
                                 *****************
                                 * O   R   C   A *
                                 *****************

                                            #,                                       
                                            ###                                      
                                            ####                                     
                                            #####                                    
                                            ######                                   
                                           ########,                                 
                                     ,,################,,,,,                         
                               ,,#################################,,                 
                          ,,##########################################,,             
                       ,#########################################, ''#####,          
                    ,#############################################,,   '####,        
                  ,##################################################,,,,####,       
                ,###########''''           ''''###############################       
              ,#####''   ,,,,##########,,,,          '''####'''          '####       
            ,##' ,,,,###########################,,,                        '##       
           ' ,,###''''                  '''############,,,                           
         ,,##''                                '''############,,,,        ,,,,,,###''
      ,#''                                            '''#######################'''  
     '                                                          ''''####''''         
             ,#######,   #######,   ,#######,      ##                                
            ,#'     '#,  ##    ##  ,#'     '#,    #''#        ######   ,####,        
            ##       ##  ##   ,#'  ##            #'  '#       #        #'  '#        
            ##       ##  #######   ##           ,######,      #####,   #    #        
            '#,     ,#'  ##    ##  '#,     ,#' ,#      #,         ##   #,  ,#        
             '#######'   ##     ##  '#######'  #'      '#     #####' # '####'        



                  #######################################################
                  #                        -***-                        #
                  #          Department of theory and spectroscopy      #
                  #    Directorship and core code : Frank Neese         #
                  #        Max Planck Institute fuer Kohlenforschung    #
                  #                Kaiser Wilhelm Platz 1               #
                  #                 D-45470 Muelheim/Ruhr               #
                  #                      Germany                        #
                  #                                                     #
                  #                  All rights reserved                #
                  #                        -***-                        #
                  #######################################################


                         Program Version 5.0.4 -  RELEASE  -


 With contributions from (in alphabetic order):
   Daniel Aravena         : Magnetic Suceptibility
   Michael Atanasov       : Ab Initio Ligand Field Theory (pilot matlab implementation)
   Alexander A. Auer      : GIAO ZORA, VPT2 properties, NMR spectrum
   Ute Becker             : Parallelization
   Giovanni Bistoni       : ED, misc. LED, open-shell LED, HFLD
   Martin Brehm           : Molecular dynamics
   Dmytro Bykov           : SCF Hessian
   Vijay G. Chilkuri      : MRCI spin determinant printing, contributions to CSF-ICE
   Dipayan Datta          : RHF DLPNO-CCSD density
   Achintya Kumar Dutta   : EOM-CC, STEOM-CC
   Dmitry Ganyushin       : Spin-Orbit,Spin-Spin,Magnetic field MRCI
   Miquel Garcia          : C-PCM and meta-GGA Hessian, CC/C-PCM, Gaussian charge scheme
   Yang Guo               : DLPNO-NEVPT2, F12-NEVPT2, CIM, IAO-localization
   Andreas Hansen         : Spin unrestricted coupled pair/coupled cluster methods
   Benjamin Helmich-Paris : MC-RPA, TRAH-SCF, COSX integrals
   Lee Huntington         : MR-EOM, pCC
   Robert Izsak           : Overlap fitted RIJCOSX, COSX-SCS-MP3, EOM
   Marcus Kettner         : VPT2
   Christian Kollmar      : KDIIS, OOCD, Brueckner-CCSD(T), CCSD density, CASPT2, CASPT2-K
   Simone Kossmann        : Meta GGA functionals, TD-DFT gradient, OOMP2, MP2 Hessian
   Martin Krupicka        : Initial AUTO-CI
   Lucas Lang             : DCDCAS
   Marvin Lechner         : AUTO-CI (C++ implementation), FIC-MRCC
   Dagmar Lenk            : GEPOL surface, SMD
   Dimitrios Liakos       : Extrapolation schemes; Compound Job, initial MDCI parallelization
   Dimitrios Manganas     : Further ROCIS development; embedding schemes
   Dimitrios Pantazis     : SARC Basis sets
   Anastasios Papadopoulos: AUTO-CI, single reference methods and gradients
   Taras Petrenko         : DFT Hessian,TD-DFT gradient, ASA, ECA, R-Raman, ABS, FL, XAS/XES, NRVS
   Peter Pinski           : DLPNO-MP2, DLPNO-MP2 Gradient
   Christoph Reimann      : Effective Core Potentials
   Marius Retegan         : Local ZFS, SOC
   Christoph Riplinger    : Optimizer, TS searches, QM/MM, DLPNO-CCSD(T), (RO)-DLPNO pert. Triples
   Tobias Risthaus        : Range-separated hybrids, TD-DFT gradient, RPA, STAB
   Michael Roemelt        : Original ROCIS implementation
   Masaaki Saitow         : Open-shell DLPNO-CCSD energy and density
   Barbara Sandhoefer     : DKH picture change effects
   Avijit Sen             : IP-ROCIS
   Kantharuban Sivalingam : CASSCF convergence, NEVPT2, FIC-MRCI
   Bernardo de Souza      : ESD, SOC TD-DFT
   Georgi Stoychev        : AutoAux, RI-MP2 NMR, DLPNO-MP2 response
   Willem Van den Heuvel  : Paramagnetic NMR
   Boris Wezisla          : Elementary symmetry handling
   Frank Wennmohs         : Technical directorship


 We gratefully acknowledge several colleagues who have allowed us to
 interface, adapt or use parts of their codes:
   Stefan Grimme, W. Hujo, H. Kruse, P. Pracht,  : VdW corrections, initial TS optimization,
                  C. Bannwarth, S. Ehlert          DFT functionals, gCP, sTDA/sTD-DF
   Ed Valeev, F. Pavosevic, A. Kumar             : LibInt (2-el integral package), F12 methods
   Garnet Chan, S. Sharma, J. Yang, R. Olivares  : DMRG
   Ulf Ekstrom                                   : XCFun DFT Library
   Mihaly Kallay                                 : mrcc  (arbitrary order and MRCC methods)
   Jiri Pittner, Ondrej Demel                    : Mk-CCSD
   Frank Weinhold                                : gennbo (NPA and NBO analysis)
   Christopher J. Cramer and Donald G. Truhlar   : smd solvation model
   Lars Goerigk                                  : TD-DFT with DH, B97 family of functionals
   V. Asgeirsson, H. Jonsson                     : NEB implementation
   FAccTs GmbH                                   : IRC, NEB, NEB-TS, DLPNO-Multilevel, CI-OPT
                                                   MM, QMMM, 2- and 3-layer-ONIOM, Crystal-QMMM,
                                                   LR-CPCM, SF, NACMEs, symmetry and pop. for TD-DFT,
                                                   nearIR, NL-DFT gradient (VV10), updates on ESD,
                                                   ML-optimized integration grids
   S Lehtola, MJT Oliveira, MAL Marques          : LibXC Library
   Liviu Ungur et al                             : ANISO software


 Your calculation uses the libint2 library for the computation of 2-el integrals
 For citations please refer to: http://libint.valeyev.net

 Your ORCA version has been built with support for libXC version: 5.1.0
 For citations please refer to: https://tddft.org/programs/libxc/

 This ORCA versions uses:
   CBLAS   interface :  Fast vector & matrix operations
   LAPACKE interface :  Fast linear algebra routines
   SCALAPACK package :  Parallel linear algebra routines
   Shared memory     :  Shared parallel matrices
   BLAS/LAPACK       :  OpenBLAS 0.3.15  USE64BITINT DYNAMIC_ARCH NO_AFFINITY SkylakeX SINGLE_THREADED
        Core in use  :  SkylakeX
   Copyright (c) 2011-2014, The OpenBLAS Project




***************************************
The coordinates will be read from file: model.xyz
***************************************


================================================================================

----- Orbital basis set information -----
Your calculation utilizes the basis: EPR-II
   V. Barone, in Recent Advances in Density Functional Methods, Part 1 (ed. D. P. Chong), World Scientific, Singapore, 1995, p. 287.

----- AuxJ basis set information -----
Your calculation utilizes the auxiliary basis: def2/J
   F. Weigend, Phys. Chem. Chem. Phys. 8, 1057 (2006).

================================================================================
                                        WARNINGS
                       Please study these warnings very carefully!
================================================================================


WARNING: your system is open-shell and RHF/RKS was chosen
  ===> : WILL SWITCH to UHF/UKS


WARNING: Geometry Optimization
  ===> : Switching off AutoStart
         For restart on a previous wavefunction, please use MOREAD

INFO   : the flag for use of the SHARK integral package has been found!

================================================================================
                                       INPUT FILE
================================================================================
NAME = BDE.inp
|  1> ! B3LYP EPR-II OPT FREQ
|  2> %pal nprocs 16 end
|  3> *XYZFile 0 2 model.xyz
|  4> 
|  5>                          ****END OF INPUT****
================================================================================

                       *****************************
                       * Geometry Optimization Run *
                       *****************************

Geometry optimization settings:
Update method            Update   .... BFGS
Choice of coordinates    CoordSys .... Z-matrix Internals
Initial Hessian          InHess   .... Almoef's Model

Convergence Tolerances:
Energy Change            TolE     ....  5.0000e-06 Eh
Max. Gradient            TolMAXG  ....  3.0000e-04 Eh/bohr
RMS Gradient             TolRMSG  ....  1.0000e-04 Eh/bohr
Max. Displacement        TolMAXD  ....  4.0000e-03 bohr
RMS Displacement         TolRMSD  ....  2.0000e-03 bohr
Strict Convergence                ....  False
------------------------------------------------------------------------------
                        ORCA OPTIMIZATION COORDINATE SETUP
------------------------------------------------------------------------------

The optimization will be done in new redundant internal coordinates
Making redundant internal coordinates   ...  (new redundants) done
Evaluating the initial hessian          ...  (Almloef) done
Evaluating the coordinates              ...  done
Calculating the B-matrix                .... done
Calculating the G-matrix                .... done
Diagonalizing the G-matrix              .... done
Small eigenvalue found = 2.512e-03
Small eigenvalue found = 7.436e-03
Small eigenvalue found = 9.948e-03
Small eigenvalue found = 2.747e-02
The first mode is                       ....   90
The number of degrees of freedom        ....  102

    -----------------------------------------------------------------
                    Redundant Internal Coordinates


    -----------------------------------------------------------------
         Definition                    Initial Value    Approx d2E/dq
    -----------------------------------------------------------------
      1. B(C   1,C   0)                  1.3604         0.696555   
      2. B(C   2,C   1)                  1.4545         0.493039   
      3. B(C   3,C   2)                  1.3770         0.655407   
      4. B(C   4,C   3)                  1.4256         0.548235   
      5. B(C   5,C   4)                  1.4366         0.526546   
      6. B(C   6,C   5)                  1.3786         0.651514   
      7. B(C   6,C   1)                  1.4490         0.503022   
      8. B(H   7,C   3)                  1.0906         0.359354   
      9. B(H   8,C   6)                  1.0892         0.361183   
     10. B(C   9,C   2)                  1.5146         0.395321   
     11. B(H  10,C   9)                  1.1074         0.337854   
     12. B(H  11,C   9)                  1.1074         0.337854   
     13. B(C  12,C   9)                  1.5307         0.372595   
     14. B(H  13,C  12)                  1.1054         0.340238   
     15. B(H  14,C  12)                  1.1054         0.340233   
     16. B(C  15,C  12)                  1.5336         0.368723   
     17. B(H  16,C  15)                  1.1057         0.339866   
     18. B(H  17,C  15)                  1.1057         0.339864   
     19. B(C  18,C  15)                  1.5307         0.372663   
     20. B(H  19,C  18)                  1.1037         0.342396   
     21. B(H  20,C  18)                  1.1037         0.342396   
     22. B(C  21,C   5)                  1.5168         0.392169   
     23. B(H  22,C  21)                  1.1056         0.340067   
     24. B(H  23,C  21)                  1.1056         0.340072   
     25. B(C  24,C  21)                  1.5305         0.372864   
     26. B(H  25,C  24)                  1.1056         0.340010   
     27. B(H  26,C  24)                  1.1056         0.340013   
     28. B(C  27,C  24)                  1.5338         0.368444   
     29. B(H  28,C  27)                  1.1059         0.339708   
     30. B(H  29,C  27)                  1.1059         0.339709   
     31. B(C  30,C  27)                  1.5307         0.372587   
     32. B(H  31,C  30)                  1.1037         0.342447   
     33. B(H  32,C  30)                  1.1037         0.342447   
     34. B(H  33,C  18)                  1.1020         0.344595   
     35. B(H  34,C  30)                  1.1021         0.344502   
     36. B(H  35,C   4)                  1.0892         0.361183   
     37. A(C   0,C   1,C   6)          117.6739         0.426905   
     38. A(C   2,C   1,C   6)          119.7534         0.401483   
     39. A(C   0,C   1,C   2)          122.5727         0.425375   
     40. A(C   1,C   2,C   3)          117.2287         0.420771   
     41. A(C   3,C   2,C   9)          124.6763         0.404592   
     42. A(C   1,C   2,C   9)          118.0950         0.384899   
     43. A(C   4,C   3,H   7)          117.2807         0.345542   
     44. A(C   2,C   3,C   4)          123.1394         0.428836   
     45. A(C   2,C   3,H   7)          119.5799         0.356122   
     46. A(C   5,C   4,H  35)          119.1063         0.343501   
     47. A(C   3,C   4,C   5)          119.7757         0.412408   
     48. A(C   3,C   4,H  35)          121.1180         0.345837   
     49. A(C   4,C   5,C   6)          118.5631         0.425291   
     50. A(C   4,C   5,C  21)          119.0829         0.388792   
     51. A(C   6,C   5,C  21)          122.3539         0.403596   
     52. A(C   5,C   6,H   8)          120.5897         0.356069   
     53. A(C   1,C   6,H   8)          117.8706         0.340882   
     54. A(C   1,C   6,C   5)          121.5397         0.421830   
     55. A(C   2,C   9,H  10)          108.0855         0.323936   
     56. A(H  11,C   9,C  12)          109.1863         0.320809   
     57. A(H  10,C   9,C  12)          109.1847         0.320809   
     58. A(C   2,C   9,C  12)          116.8004         0.366722   
     59. A(H  10,C   9,H  11)          104.8364         0.285096   
     60. A(C   2,C   9,H  11)          108.0837         0.323936   
     61. A(H  14,C  12,C  15)          109.1209         0.320629   
     62. A(H  13,C  12,C  15)          109.1169         0.320630   
     63. A(C   9,C  12,C  15)          112.6611         0.362379   
     64. A(H  13,C  12,H  14)          106.3261         0.285721   
     65. A(C   9,C  12,H  14)          109.7053         0.321177   
     66. A(C   9,C  12,H  13)          109.7086         0.321178   
     67. A(H  16,C  15,C  18)          109.5901         0.321130   
     68. A(H  16,C  15,H  17)          105.8755         0.285624   
     69. A(C  12,C  15,H  17)          109.2133         0.320572   
     70. A(C  12,C  15,C  18)          113.1031         0.362390   
     71. A(C  12,C  15,H  16)          109.2138         0.320573   
     72. A(H  17,C  15,C  18)          109.5888         0.321130   
     73. A(H  20,C  18,H  33)          107.6003         0.286572   
     74. A(H  19,C  18,H  33)          107.6004         0.286571   
     75. A(C  15,C  18,H  33)          111.4599         0.321858   
     76. A(H  19,C  18,H  20)          107.4099         0.286285   
     77. A(C  15,C  18,H  20)          111.2830         0.321520   
     78. A(C  15,C  18,H  19)          111.2841         0.321520   
     79. A(H  23,C  21,C  24)          109.3109         0.321191   
     80. A(H  22,C  21,C  24)          109.3120         0.321190   
     81. A(C   5,C  21,C  24)          117.0548         0.366265   
     82. A(H  22,C  21,H  23)          104.6105         0.285678   
     83. A(C   5,C  21,H  23)          107.9145         0.323859   
     84. A(C   5,C  21,H  22)          107.9161         0.323858   
     85. A(H  26,C  24,C  27)          109.0122         0.320556   
     86. A(H  25,C  24,C  27)          109.0140         0.320555   
     87. A(C  21,C  24,C  27)          112.5660         0.362376   
     88. A(H  25,C  24,H  26)          106.2830         0.285662   
     89. A(C  21,C  24,H  26)          109.8839         0.321181   
     90. A(C  21,C  24,H  25)          109.8797         0.321181   
     91. A(H  29,C  27,C  30)          109.5763         0.321095   
     92. A(H  28,C  27,C  30)          109.5754         0.321095   
     93. A(C  24,C  27,C  30)          113.1623         0.362330   
     94. A(H  28,C  27,H  29)          105.8848         0.285583   
     95. A(C  24,C  27,H  29)          109.1910         0.320509   
     96. A(C  24,C  27,H  28)          109.1915         0.320508   
     97. A(H  31,C  30,H  34)          107.6000         0.286566   
     98. A(C  27,C  30,H  34)          111.4859         0.321833   
     99. A(H  31,C  30,H  32)          107.3931         0.286299   
    100. A(C  27,C  30,H  32)          111.2790         0.321517   
    101. A(C  27,C  30,H  31)          111.2782         0.321517   
    102. A(H  32,C  30,H  34)          107.6003         0.286566   
    103. D(C   9,C   2,C   1,C   0)      0.0187         0.016553   
    104. D(C   3,C   2,C   1,C   0)   -179.9884         0.016553   
    105. D(C   3,C   2,C   1,C   6)      0.0065         0.016553   
    106. D(C   9,C   2,C   1,C   6)   -179.9863         0.016553   
    107. D(H   7,C   3,C   2,C   9)     -0.0112         0.029944   
    108. D(C   4,C   3,C   2,C   9)    179.9862         0.029944   
    109. D(C   4,C   3,C   2,C   1)     -0.0061         0.029944   
    110. D(H   7,C   3,C   2,C   1)    179.9965         0.029944   
    111. D(C   5,C   4,C   3,H   7)   -179.9964         0.020557   
    112. D(C   5,C   4,C   3,C   2)      0.0062         0.020557   
    113. D(H  35,C   4,C   3,C   2)   -179.9967         0.020557   
    114. D(H  35,C   4,C   3,H   7)      0.0007         0.020557   
    115. D(C  21,C   5,C   4,C   3)    179.9972         0.018918   
    116. D(C   6,C   5,C   4,H  35)    179.9964         0.018918   
    117. D(C   6,C   5,C   4,C   3)     -0.0064         0.018918   
    118. D(C  21,C   5,C   4,H  35)      0.0000         0.018918   
    119. D(H   8,C   6,C   5,C  21)      0.0004         0.029564   
    120. D(C   1,C   6,C   5,C   4)      0.0071         0.029564   
    121. D(C   1,C   6,C   5,C  21)   -179.9966         0.029564   
    122. D(C   5,C   6,C   1,C   2)     -0.0073         0.017237   
    123. D(H   8,C   6,C   5,C   4)   -179.9959         0.029564   
    124. D(C   5,C   6,C   1,C   0)    179.9879         0.017237   
    125. D(H   8,C   6,C   1,C   2)    179.9957         0.017237   
    126. D(H   8,C   6,C   1,C   0)     -0.0091         0.017237   
    127. D(C  12,C   9,C   2,C   3)      0.0659         0.011611   
    128. D(C  12,C   9,C   2,C   1)   -179.9418         0.011611   
    129. D(H  11,C   9,C   2,C   3)    123.5889         0.011611   
    130. D(H  11,C   9,C   2,C   1)    -56.4188         0.011611   
    131. D(H  10,C   9,C   2,C   3)   -123.4564         0.011611   
    132. D(H  10,C   9,C   2,C   1)     56.5358         0.011611   
    133. D(H  13,C  12,C   9,C   2)    -58.2247         0.011089   
    134. D(C  15,C  12,C   9,H  10)    -57.0399         0.011089   
    135. D(C  15,C  12,C   9,C   2)   -179.9967         0.011089   
    136. D(H  14,C  12,C   9,H  11)    -64.7270         0.011089   
    137. D(H  14,C  12,C   9,H  10)   -178.8147         0.011089   
    138. D(H  14,C  12,C   9,C   2)     58.2286         0.011089   
    139. D(H  13,C  12,C   9,H  11)    178.8196         0.011089   
    140. D(C  15,C  12,C   9,H  11)     57.0477         0.011089   
    141. D(H  13,C  12,C   9,H  10)     64.7320         0.011089   
    142. D(C  18,C  15,C  12,H  14)    -57.8880         0.010873   
    143. D(C  18,C  15,C  12,C   9)   -179.9931         0.010873   
    144. D(H  17,C  15,C  12,H  13)    -64.4211         0.010873   
    145. D(H  17,C  15,C  12,C   9)     57.6854         0.010873   
    146. D(H  17,C  15,C  12,H  14)    179.7905         0.010873   
    147. D(H  16,C  15,C  12,H  14)     64.4355         0.010873   
    148. D(C  18,C  15,C  12,H  13)     57.9005         0.010873   
    149. D(H  16,C  15,C  12,H  13)   -179.7761         0.010873   
    150. D(H  16,C  15,C  12,C   9)    -57.6696         0.010873   
    151. D(H  33,C  18,C  15,H  17)    -57.8677         0.011092   
    152. D(H  33,C  18,C  15,H  16)     57.9074         0.011092   
    153. D(H  33,C  18,C  15,C  12)   -179.9794         0.011092   
    154. D(H  20,C  18,C  15,H  17)     62.2519         0.011092   
    155. D(H  20,C  18,C  15,H  16)    178.0271         0.011092   
    156. D(H  20,C  18,C  15,C  12)    -59.8598         0.011092   
    157. D(H  19,C  18,C  15,H  17)   -177.9884         0.011092   
    158. D(H  19,C  18,C  15,H  16)    -62.2132         0.011092   
    159. D(H  19,C  18,C  15,C  12)     59.8999         0.011092   
    160. D(C  24,C  21,C   5,C   4)    179.9724         0.011435   
    161. D(H  23,C  21,C   5,C   6)   -123.7588         0.011435   
    162. D(H  23,C  21,C   5,C   4)     56.2374         0.011435   
    163. D(H  22,C  21,C   5,C   6)    123.7138         0.011435   
    164. D(C  24,C  21,C   5,C   6)     -0.0239         0.011435   
    165. D(H  22,C  21,C   5,C   4)    -56.2899         0.011435   
    166. D(C  27,C  24,C  21,H  23)    -56.9814         0.011104   
    167. D(C  27,C  24,C  21,C   5)    179.9975         0.011104   
    168. D(H  26,C  24,C  21,H  23)   -178.6794         0.011104   
    169. D(H  26,C  24,C  21,H  22)    -64.7246         0.011104   
    170. D(H  26,C  24,C  21,C   5)     58.2995         0.011104   
    171. D(H  25,C  24,C  21,H  23)     64.7160         0.011104   
    172. D(C  27,C  24,C  21,H  22)     56.9734         0.011104   
    173. D(H  25,C  24,C  21,H  22)    178.6708         0.011104   
    174. D(H  25,C  24,C  21,C   5)    -58.3051         0.011104   
    175. D(C  30,C  27,C  24,H  26)    -57.8178         0.010858   
    176. D(C  30,C  27,C  24,H  25)     57.8028         0.010858   
    177. D(C  30,C  27,C  24,C  21)    179.9905         0.010858   
    178. D(H  29,C  27,C  24,H  26)    179.8526         0.010858   
    179. D(H  29,C  27,C  24,H  25)    -64.5268         0.010858   
    180. D(H  29,C  27,C  24,C  21)     57.6609         0.010858   
    181. D(H  28,C  27,C  24,H  26)     64.5111         0.010858   
    182. D(H  28,C  27,C  24,H  25)   -179.8683         0.010858   
    183. D(H  28,C  27,C  24,C  21)    -57.6806         0.010858   
    184. D(H  34,C  30,C  27,H  29)    -57.9050         0.011088   
    185. D(H  34,C  30,C  27,H  28)     57.8659         0.011088   
    186. D(H  34,C  30,C  27,C  24)    179.9805         0.011088   
    187. D(H  32,C  30,C  27,H  29)     62.2297         0.011088   
    188. D(H  32,C  30,C  27,H  28)    178.0005         0.011088   
    189. D(H  32,C  30,C  27,C  24)    -59.8849         0.011088   
    190. D(H  31,C  30,C  27,H  29)   -178.0387         0.011088   
    191. D(H  31,C  30,C  27,H  28)    -62.2678         0.011088   
    192. D(H  31,C  30,C  27,C  24)     59.8467         0.011088   
    -----------------------------------------------------------------

Number of atoms                         .... 36
Number of degrees of freedom            .... 192

         *************************************************************
         *                GEOMETRY OPTIMIZATION CYCLE   1            *
         *************************************************************
---------------------------------
CARTESIAN COORDINATES (ANGSTROEM)
---------------------------------
  C      4.181673   -0.078846    0.000386
  C      2.823555    0.000000    0.000000
  C      2.112869    1.269014   -0.003453
  C      0.736745    1.220444   -0.003257
  C      0.000000    0.000000    0.000000
  C      0.698793   -1.255156    0.003413
  C      2.077333   -1.242087    0.003302
  H      0.165284    2.149292   -0.005725
  H      2.640466   -2.174393    0.005768
  C      2.930113    2.544202   -0.007160
  H      3.604163    2.517968   -0.885345
  H      3.605931    2.521897    0.869776
  C      2.152189    3.862503   -0.009353
  H      1.489869    3.903064   -0.893488
  H      1.491725    3.907036    0.875983
  C      3.070703    5.090558   -0.013137
  H      3.736759    5.049521    0.868537
  H      3.734693    5.045620   -0.896181
  C      2.302996    6.414777   -0.015185
  H      1.656870    6.504672    0.875121
  H      1.654281    6.500395   -0.904028
  C     -0.100725   -2.544099    0.006918
  H     -0.776136   -2.522988    0.881950
  H     -0.776803   -2.527296   -0.867689
  C      0.690626   -3.854153    0.009824
  H      1.352245   -3.895694   -0.875019
  H      1.353067   -3.891358    0.894241
  C     -0.217374   -5.090258    0.013304
  H     -0.882210   -5.050475    0.896116
  H     -0.883238   -5.054678   -0.868911
  C      0.560402   -6.408652    0.016005
  H      1.209372   -6.489002    0.905103
  H      1.207836   -6.493569   -0.873790
  H      2.988052    7.277940   -0.018259
  H     -0.117726   -7.277362    0.018824
  H     -1.089182    0.000000    0.000000

----------------------------
CARTESIAN COORDINATES (A.U.)
----------------------------
  NO LB      ZA    FRAG     MASS         X           Y           Z
   0 C     6.0000    0    12.011    7.902218   -0.148997    0.000730
   1 C     6.0000    0    12.011    5.335746    0.000000    0.000000
   2 C     6.0000    0    12.011    3.992743    2.398088   -0.006525
   3 C     6.0000    0    12.011    1.392247    2.306306   -0.006156
   4 C     6.0000    0    12.011    0.000000    0.000000    0.000000
   5 C     6.0000    0    12.011    1.320527   -2.371900    0.006450
   6 C     6.0000    0    12.011    3.925590   -2.347205    0.006240
   7 H     1.0000    0     1.008    0.312342    4.061573   -0.010818
   8 H     1.0000    0     1.008    4.989757   -4.109007    0.010900
   9 C     6.0000    0    12.011    5.537111    4.807845   -0.013530
  10 H     1.0000    0     1.008    6.810882    4.758269   -1.673059
  11 H     1.0000    0     1.008    6.814222    4.765695    1.643638
  12 C     6.0000    0    12.011    4.067048    7.299072   -0.017675
  13 H     1.0000    0     1.008    2.815445    7.375722   -1.688448
  14 H     1.0000    0     1.008    2.818952    7.383227    1.655368
  15 C     6.0000    0    12.011    5.802787    9.619760   -0.024826
  16 H     1.0000    0     1.008    7.061452    9.542212    1.641298
  17 H     1.0000    0     1.008    7.057547    9.534840   -1.693537
  18 C     6.0000    0    12.011    4.352032   12.122173   -0.028695
  19 H     1.0000    0     1.008    3.131031   12.292049    1.653740
  20 H     1.0000    0     1.008    3.126138   12.283967   -1.708366
  21 C     6.0000    0    12.011   -0.190342   -4.807650    0.013073
  22 H     1.0000    0     1.008   -1.466685   -4.767757    1.666645
  23 H     1.0000    0     1.008   -1.467945   -4.775897   -1.639694
  24 C     6.0000    0    12.011    1.305094   -7.283293    0.018564
  25 H     1.0000    0     1.008    2.555372   -7.361794   -1.653546
  26 H     1.0000    0     1.008    2.556927   -7.353601    1.689870
  27 C     6.0000    0    12.011   -0.410778   -9.619194    0.025141
  28 H     1.0000    0     1.008   -1.667136   -9.544014    1.693413
  29 H     1.0000    0     1.008   -1.669078   -9.551958   -1.642004
  30 C     6.0000    0    12.011    1.059006  -12.110597    0.030244
  31 H     1.0000    0     1.008    2.285382  -12.262437    1.710398
  32 H     1.0000    0     1.008    2.282480  -12.271067   -1.651223
  33 H     1.0000    0     1.008    5.646600   13.753313   -0.034504
  34 H     1.0000    0     1.008   -0.222470  -13.752221    0.035572
  35 H     1.0000    0     1.008   -2.058257    0.000000    0.000000

--------------------------------
INTERNAL COORDINATES (ANGSTROEM)
--------------------------------
 C      0   0   0     0.000000000000     0.00000000     0.00000000
 C      1   0   0     1.360405185319     0.00000000     0.00000000
 C      2   1   0     1.454469921347   122.57268819     0.00000000
 C      3   2   1     1.376980205276   117.22867981   180.01155133
 C      4   3   2     1.425583673666   123.13940597     0.00000000
 C      5   4   3     1.436571908015   119.77572107     0.00000000
 C      6   5   4     1.378601846072   118.56311102     0.00000000
 H      4   3   2     1.090564630134   119.57987575   179.99649833
 H      7   6   5     1.089182460831   120.58966647   180.00407873
 C      3   2   1     1.514598142723   118.09498909     0.00000000
 H     10   3   2     1.107357914797   108.08554864    56.53583640
 H     10   3   2     1.107358653133   108.08373471   303.58115173
 C     10   3   2     1.530714504273   116.80037911   180.05817530
 H     13  10   3     1.105444583557   109.70863892   301.77526478
 H     13  10   3     1.105448464411   109.70533912    58.22859509
 C     13  10   3     1.533558081836   112.66110548   180.00330809
 H     16  13  10     1.105742155630   109.21375550   302.33041700
 H     16  13  10     1.105743862505   109.21334424    57.68538025
 C     16  13  10     1.530665071547   113.10306848   180.00694349
 H     19  16  13     1.103723195989   111.28414522    59.89992568
 H     19  16  13     1.103723020554   111.28296678   300.14024699
 C      6   5   4     1.516777662764   119.08294755   179.99717513
 H     22   6   5     1.105580695090   107.91606339   303.71010562
 H     22   6   5     1.105577038079   107.91447117    56.23744229
 C     22   6   5     1.530518228938   117.05478259   179.97241622
 H     25  22   6     1.105627082562   109.87974611   301.69490790
 H     25  22   6     1.105624495008   109.88387192    58.29948707
 C     25  22   6     1.533764593160   112.56596670   179.99750910
 H     28  25  22     1.105868819020   109.19151537   302.31939430
 H     28  25  22     1.105867994934   109.19103201    57.66089111
 C     28  25  22     1.530720362247   113.16229107   179.99053428
 H     31  28  25     1.103682680849   111.27817044    59.84672679
 H     31  28  25     1.103682983367   111.27899080   300.11506691
 H     19  16  13     1.101980311358   111.45985784   180.02058315
 H     31  28  25     1.102053738826   111.48590906   179.98045042
 H      5   4   3     1.089182460000   121.11801820   180.00328207

---------------------------
INTERNAL COORDINATES (A.U.)
---------------------------
 C      0   0   0     0.000000000000     0.00000000     0.00000000
 C      1   0   0     2.570793231419     0.00000000     0.00000000
 C      2   1   0     2.748549821372   122.57268819     0.00000000
 C      3   2   1     2.602115479803   117.22867981   180.01155133
 C      4   3   2     2.693962724218   123.13940597     0.00000000
 C      5   4   3     2.714727477833   119.77572107     0.00000000
 C      6   5   4     2.605179936795   118.56311102     0.00000000
 H      4   3   2     2.060868482295   119.57987575   179.99649833
 H      7   6   5     2.058256560841   120.58966647   180.00407873
 C      3   2   1     2.862175692692   118.09498909     0.00000000
 H     10   3   2     2.092603191196   108.08554864    56.53583640
 H     10   3   2     2.092604586450   108.08373471   303.58115173
 C     10   3   2     2.892631202296   116.80037911   180.05817530
 H     13  10   3     2.088987519150   109.70863892   301.77526478
 H     13  10   3     2.088994852900   109.70533912    58.22859509
 C     13  10   3     2.898004785132   112.66110548   180.00330809
 H     16  13  10     2.089549848872   109.21375550   302.33041700
 H     16  13  10     2.089553074398   109.21334424    57.68538025
 C     16  13  10     2.892537787982   113.10306848   180.00694349
 H     19  16  13     2.085734568075   111.28414522    59.89992568
 H     19  16  13     2.085734236551   111.28296678   300.14024699
 C      6   5   4     2.866294388672   119.08294755   179.99717513
 H     22   6   5     2.089244732671   107.91606339   303.71010562
 H     22   6   5     2.089237821921   107.91447117    56.23744229
 C     22   6   5     2.892260295668   117.05478259   179.97241622
 H     25  22   6     2.089332392289   109.87974611   301.69490790
 H     25  22   6     2.089327502521   109.88387192    58.29948707
 C     25  22   6     2.898395034978   112.56596670   179.99750910
 H     28  25  22     2.089789207991   109.19151537   302.31939430
 H     28  25  22     2.089787650694   109.19103201    57.66089111
 C     28  25  22     2.892642272264   113.16229107   179.99053428
 H     31  28  25     2.085658005557   111.27817044    59.84672679
 H     31  28  25     2.085658577232   111.27899080   300.11506691
 H     19  16  13     2.082440993441   111.45985784   180.02058315
 H     31  28  25     2.082579751245   111.48590906   179.98045042
 H      5   4   3     2.058256559271   121.11801820   180.00328207

---------------------
BASIS SET INFORMATION
---------------------
There are 2 groups of distinct atoms

 Group   1 Type C   : 10s5p1d contracted to 6s2p1d pattern {511111/41/1}
 Group   2 Type H   : 6s1p contracted to 4s1p pattern {3111/1}

Atom   0C    basis set group =>   1
Atom   1C    basis set group =>   1
Atom   2C    basis set group =>   1
Atom   3C    basis set group =>   1
Atom   4C    basis set group =>   1
Atom   5C    basis set group =>   1
Atom   6C    basis set group =>   1
Atom   7H    basis set group =>   2
Atom   8H    basis set group =>   2
Atom   9C    basis set group =>   1
Atom  10H    basis set group =>   2
Atom  11H    basis set group =>   2
Atom  12C    basis set group =>   1
Atom  13H    basis set group =>   2
Atom  14H    basis set group =>   2
Atom  15C    basis set group =>   1
Atom  16H    basis set group =>   2
Atom  17H    basis set group =>   2
Atom  18C    basis set group =>   1
Atom  19H    basis set group =>   2
Atom  20H    basis set group =>   2
Atom  21C    basis set group =>   1
Atom  22H    basis set group =>   2
Atom  23H    basis set group =>   2
Atom  24C    basis set group =>   1
Atom  25H    basis set group =>   2
Atom  26H    basis set group =>   2
Atom  27C    basis set group =>   1
Atom  28H    basis set group =>   2
Atom  29H    basis set group =>   2
Atom  30C    basis set group =>   1
Atom  31H    basis set group =>   2
Atom  32H    basis set group =>   2
Atom  33H    basis set group =>   2
Atom  34H    basis set group =>   2
Atom  35H    basis set group =>   2
---------------------------------
AUXILIARY/J BASIS SET INFORMATION
---------------------------------
There are 2 groups of distinct atoms

 Group   1 Type C   : 12s5p4d2f1g contracted to 6s4p3d1f1g pattern {711111/2111/211/2/1}
 Group   2 Type H   : 5s2p1d contracted to 3s1p1d pattern {311/2/1}

Atom   0C    basis set group =>   1
Atom   1C    basis set group =>   1
Atom   2C    basis set group =>   1
Atom   3C    basis set group =>   1
Atom   4C    basis set group =>   1
Atom   5C    basis set group =>   1
Atom   6C    basis set group =>   1
Atom   7H    basis set group =>   2
Atom   8H    basis set group =>   2
Atom   9C    basis set group =>   1
Atom  10H    basis set group =>   2
Atom  11H    basis set group =>   2
Atom  12C    basis set group =>   1
Atom  13H    basis set group =>   2
Atom  14H    basis set group =>   2
Atom  15C    basis set group =>   1
Atom  16H    basis set group =>   2
Atom  17H    basis set group =>   2
Atom  18C    basis set group =>   1
Atom  19H    basis set group =>   2
Atom  20H    basis set group =>   2
Atom  21C    basis set group =>   1
Atom  22H    basis set group =>   2
Atom  23H    basis set group =>   2
Atom  24C    basis set group =>   1
Atom  25H    basis set group =>   2
Atom  26H    basis set group =>   2
Atom  27C    basis set group =>   1
Atom  28H    basis set group =>   2
Atom  29H    basis set group =>   2
Atom  30C    basis set group =>   1
Atom  31H    basis set group =>   2
Atom  32H    basis set group =>   2
Atom  33H    basis set group =>   2
Atom  34H    basis set group =>   2
Atom  35H    basis set group =>   2


           ************************************************************
           *        Program running with 16 parallel MPI-processes    *
           *              working on a common directory               *
           ************************************************************
------------------------------------------------------------------------------
                           ORCA GTO INTEGRAL CALCULATION
                           -- RI-GTO INTEGRALS CHOSEN --
------------------------------------------------------------------------------
------------------------------------------------------------------------------
                   ___                                                        
                  /   \      - P O W E R E D   B Y -                         
                 /     \                                                     
                 |  |  |   _    _      __       _____    __    __             
                 |  |  |  | |  | |    /  \     |  _  \  |  |  /  |          
                  \  \/   | |  | |   /    \    | | | |  |  | /  /          
                 / \  \   | |__| |  /  /\  \   | |_| |  |  |/  /          
                |  |  |   |  __  | /  /__\  \  |    /   |      \           
                |  |  |   | |  | | |   __   |  |    \   |  |\   \          
                \     /   | |  | | |  |  |  |  | |\  \  |  | \   \       
                 \___/    |_|  |_| |__|  |__|  |_| \__\ |__|  \__/        
                                                                              
                      - O R C A' S   B I G   F R I E N D -                    
                                      &                                       
                       - I N T E G R A L  F E E D E R -                       
                                                                              
 v1 FN, 2020, v2 2021                                                         
------------------------------------------------------------------------------


Reading SHARK input file BDE.SHARKINP.tmp ... ok
----------------------
SHARK INTEGRAL PACKAGE
----------------------

Number of atoms                             ...     36
Number of basis functions                   ...    402
Number of shells                            ...    240
Maximum angular momentum                    ...      2
Integral batch strategy                     ... SHARK/LIBINT Hybrid
RI-J (if used) integral strategy            ... SPLIT-RIJ (Revised 2003 algorithm where possible)
Printlevel                                  ...      1
Contraction scheme used                     ... SEGMENTED contraction
Coulomb Range Separation                    ... NOT USED
Exchange Range Separation                   ... NOT USED
Finite Nucleus Model                        ... NOT USED
Auxiliary Coulomb fitting basis             ... AVAILABLE
   # of basis functions in Aux-J            ...    966
   # of shells in Aux-J                     ...    330
   Maximum angular momentum in Aux-J        ...      4
Auxiliary J/K fitting basis                 ... NOT available
Auxiliary Correlation fitting basis         ... NOT available
Auxiliary 'external' fitting basis          ... NOT available
Integral threshold                          ...     2.500000e-11
Primitive cut-off                           ...     2.500000e-12
Primitive pair pre-selection threshold      ...     2.500000e-12

Calculating pre-screening integrals         ... done (  0.0 sec) Dimension = 240
Organizing shell pair data                  ... done (  0.1 sec)
Shell pair information
Total number of shell pairs                 ...     28920
Shell pairs after pre-screening             ...     17124
Total number of primitive shell pairs       ...     75381
Primitive shell pairs kept                  ...     32732
          la=0 lb=0:   8003 shell pairs
          la=1 lb=0:   5874 shell pairs
          la=1 lb=1:    999 shell pairs
          la=2 lb=0:   1603 shell pairs
          la=2 lb=1:    558 shell pairs
          la=2 lb=2:     87 shell pairs

Calculating one electron integrals          ... done (  0.0 sec)
Calculating RI/J V-Matrix + Cholesky decomp.... done (  0.1 sec)
Calculating Nuclear repulsion               ... done (  0.0 sec) ENN=    888.849714244170 Eh

SHARK setup successfully completed in   0.6 seconds

Maximum memory used throughout the entire GTOINT-calculation: 24.7 MB


           ************************************************************
           *        Program running with 16 parallel MPI-processes    *
           *              working on a common directory               *
           ************************************************************
-------------------------------------------------------------------------------
                                 ORCA SCF
-------------------------------------------------------------------------------

------------
SCF SETTINGS
------------
Hamiltonian:
 Density Functional     Method          .... DFT(GTOs)
 Exchange Functional    Exchange        .... B88
   X-Alpha parameter    XAlpha          ....  0.666667
   Becke's b parameter  XBeta           ....  0.004200
 Correlation Functional Correlation     .... LYP
 LDA part of GGA corr.  LDAOpt          .... VWN-5
 Gradients option       PostSCFGGA      .... off
 Hybrid DFT is turned on
   Fraction HF Exchange ScalHFX         ....  0.200000
   Scaling of DF-GGA-X  ScalDFX         ....  0.720000
   Scaling of DF-GGA-C  ScalDFC         ....  0.810000
   Scaling of DF-LDA-C  ScalLDAC        ....  1.000000
   Perturbative correction              ....  0.000000
   Density functional embedding theory  .... OFF
   NL short-range parameter             ....  4.800000
 RI-approximation to the Coulomb term is turned on
   Number of AuxJ basis functions       .... 966
   RIJ-COSX (HFX calculated with COS-X)).... on


General Settings:
 Integral files         IntName         .... BDE
 Hartree-Fock type      HFTyp           .... UHF
 Total Charge           Charge          ....    0
 Multiplicity           Mult            ....    2
 Number of Electrons    NEL             ....  111
 Basis Dimension        Dim             ....  402
 Nuclear Repulsion      ENuc            ....    888.8497142442 Eh

Convergence Acceleration:
 DIIS                   CNVDIIS         .... on
   Start iteration      DIISMaxIt       ....    12
   Startup error        DIISStart       ....  0.200000
   # of expansion vecs  DIISMaxEq       ....     5
   Bias factor          DIISBfac        ....   1.050
   Max. coefficient     DIISMaxC        ....  10.000
 Trust-Rad. Augm. Hess. CNVTRAH         .... auto
   Auto Start mean grad. ratio tolernc. ....  1.125000
   Auto Start start iteration           ....    20
   Auto Start num. interpolation iter.  ....    10
   Max. Number of Micro iterations      ....    16
   Max. Number of Macro iterations      .... Maxiter - #DIIS iter
   Number of Davidson start vectors     ....     2
   Converg. threshold I  (grad. norm)   ....   1.000e-05
   Converg. threshold II (energy diff.) ....   1.000e-08
   Grad. Scal. Fac. for Micro threshold ....   0.100
   Minimum threshold for Micro iter.    ....   0.010
   NR start threshold (gradient norm)   ....   0.001
   Initial trust radius                 ....   0.400
   Minimum AH scaling param. (alpha)    ....   1.000
   Maximum AH scaling param. (alpha)    .... 1000.000
   Orbital update algorithm             .... Taylor
   White noise on init. David. guess    .... on
   Maximum white noise                  ....   0.010
   Quad. conv. algorithm                .... NR
 SOSCF                  CNVSOSCF        .... off
 Level Shifting         CNVShift        .... on
   Level shift para.    LevelShift      ....    0.2500
   Turn off err/grad.   ShiftErr        ....    0.0010
 Zerner damping         CNVZerner       .... off
 Static damping         CNVDamp         .... on
   Fraction old density DampFac         ....    0.7000
   Max. Damping (<1)    DampMax         ....    0.9800
   Min. Damping (>=0)   DampMin         ....    0.0000
   Turn off err/grad.   DampErr         ....    0.1000
 Fernandez-Rico         CNVRico         .... off

SCF Procedure:
 Maximum # iterations   MaxIter         ....   125
 SCF integral mode      SCFMode         .... Direct
   Integral package                     .... SHARK and LIBINT hybrid scheme
 Reset frequency        DirectResetFreq ....    20
 Integral Threshold     Thresh          ....  2.500e-11 Eh
 Primitive CutOff       TCut            ....  2.500e-12 Eh

Convergence Tolerance:
 Convergence Check Mode ConvCheckMode   .... Total+1el-Energy
 Convergence forced     ConvForced      .... 0
 Energy Change          TolE            ....  1.000e-08 Eh
 1-El. energy change                    ....  1.000e-05 Eh
 DIIS Error             TolErr          ....  5.000e-07


Diagonalization of the overlap matrix:
Smallest eigenvalue                        ... 1.955e-04
Time for diagonalization                   ...    0.030 sec
Threshold for overlap eigenvalues          ... 1.000e-08
Number of eigenvalues below threshold      ... 0
Time for construction of square roots      ...    0.036 sec
Total time needed                          ...    0.067 sec

Time for model grid setup =    0.181 sec

------------------------------
INITIAL GUESS: MODEL POTENTIAL
------------------------------
Loading Hartree-Fock densities                     ... done
Calculating cut-offs                               ... done
Initializing the effective Hamiltonian             ... done
Setting up the integral package (SHARK)            ... done
Starting the Coulomb interaction                   ... done (   0.2 sec)
Reading the grid                                   ... done
Mapping shells                                     ... done
Starting the XC term evaluation                    ... done (   0.1 sec)
  promolecular density results
     # of electrons  =    110.997535001
     EX              =    -83.234126518
     EC              =     -3.607449922
     EX+EC           =    -86.841576439
Transforming the Hamiltonian                       ... done (   0.0 sec)
Diagonalizing the Hamiltonian                      ... done (   0.0 sec)
Back transforming the eigenvectors                 ... done (   0.0 sec)
Now organizing SCF variables                       ... done
                      ------------------
                      INITIAL GUESS DONE (   0.8 sec)
                      ------------------
-------------------
DFT GRID GENERATION
-------------------

General Integration Accuracy     IntAcc      ... 4.388
Radial Grid Type                 RadialGrid  ... OptM3 with GC (2021)
Angular Grid (max. ang.)         AngularGrid ... 4 (Lebedev-302)
Angular grid pruning method      GridPruning ... 4 (adaptive)
Weight generation scheme         WeightScheme... Becke
Basis function cutoff            BFCut       ... 1.0000e-11
Integration weight cutoff        WCut        ... 1.0000e-14
Angular grids for H and He will be reduced by one unit
Partially contracted basis set               ... off
Rotationally invariant grid construction     ... off

Total number of grid points                  ...   156667
Total number of batches                      ...     2467
Average number of points per batch           ...       63
Average number of grid points per atom       ...     4352
Time for grid setup =    0.787 sec

--------------------
COSX GRID GENERATION
--------------------

GRIDX 1
-------
General Integration Accuracy     IntAcc      ... 3.816
Radial Grid Type                 RadialGrid  ... OptM3 with GC (2021)
Angular Grid (max. ang.)         AngularGrid ... 1 (Lebedev-50)
Angular grid pruning method      GridPruning ... 4 (adaptive)
Weight generation scheme         WeightScheme... Becke
Basis function cutoff            BFCut       ... 1.0000e-11
Integration weight cutoff        WCut        ... 1.0000e-14
Angular grids for H and He will be reduced by one unit
Partially contracted basis set               ... on
Rotationally invariant grid construction     ... off

Total number of grid points                  ...    20011
Total number of batches                      ...      334
Average number of points per batch           ...       59
Average number of grid points per atom       ...      556
UseSFitting                                  ... on

GRIDX 2
-------
General Integration Accuracy     IntAcc      ... 4.020
Radial Grid Type                 RadialGrid  ... OptM3 with GC (2021)
Angular Grid (max. ang.)         AngularGrid ... 2 (Lebedev-110)
Angular grid pruning method      GridPruning ... 4 (adaptive)
Weight generation scheme         WeightScheme... Becke
Basis function cutoff            BFCut       ... 1.0000e-11
Integration weight cutoff        WCut        ... 1.0000e-14
Angular grids for H and He will be reduced by one unit
Partially contracted basis set               ... on
Rotationally invariant grid construction     ... off

Total number of grid points                  ...    42106
Total number of batches                      ...      677
Average number of points per batch           ...       62
Average number of grid points per atom       ...     1170
UseSFitting                                  ... on

GRIDX 3
-------
General Integration Accuracy     IntAcc      ... 4.338
Radial Grid Type                 RadialGrid  ... OptM3 with GC (2021)
Angular Grid (max. ang.)         AngularGrid ... 3 (Lebedev-194)
Angular grid pruning method      GridPruning ... 4 (adaptive)
Weight generation scheme         WeightScheme... Becke
Basis function cutoff            BFCut       ... 1.0000e-11
Integration weight cutoff        WCut        ... 1.0000e-14
Angular grids for H and He will be reduced by one unit
Partially contracted basis set               ... on
Rotationally invariant grid construction     ... off

Total number of grid points                  ...    92081
Total number of batches                      ...     1459
Average number of points per batch           ...       63
Average number of grid points per atom       ...     2558
UseSFitting                                  ... on

Time for X-Grid setup             =    1.559 sec

--------------
SCF ITERATIONS
--------------
ITER       Energy         Delta-E        Max-DP      RMS-DP      [F,P]     Damp
               ***  Starting incremental Fock matrix formation  ***
  0   -583.3570401362   0.000000000000 0.04151306  0.00075524  0.0797175 0.7000
  1   -583.5487819634  -0.191741827204 0.02837158  0.00054812  0.0426838 0.7000
                               ***Turning on DIIS***
  2   -583.6266564957  -0.077874532270 0.05940670  0.00101105  0.0169105 0.0000
  3   -583.7356881984  -0.109031702765 0.02033570  0.00036807  0.0270233 0.0000
  4   -583.7704313722  -0.034743173750 0.01858562  0.00014019  0.0078611 0.0000
  5   -583.7721403787  -0.001709006487 0.00560548  0.00006054  0.0069198 0.0000
  6   -583.7725260430  -0.000385664288 0.00409907  0.00003031  0.0025877 0.0000
  7   -583.7726690014  -0.000142958495 0.00412386  0.00002141  0.0018715 0.0000
  8   -583.7727446569  -0.000075655432 0.00262096  0.00001613  0.0011908 0.0000
  9   -583.7727839479  -0.000039291006 0.00234756  0.00001821  0.0008418 0.0000
               *** Restarting incremental Fock matrix formation ***
                                   *** Resetting DIIS ***
 10   -583.7730827626  -0.000298814722 0.00078003  0.00001004  0.0003139 0.0000
 11   -583.7730831935  -0.000000430906 0.00042160  0.00000278  0.0003534 0.0000
 12   -583.7730845919  -0.000001398414 0.00027955  0.00000166  0.0001335 0.0000
 13   -583.7730848572  -0.000000265301 0.00017481  0.00000123  0.0000607 0.0000
 14   -583.7730849705  -0.000000113254 0.00009397  0.00000059  0.0000301 0.0000
 15   -583.7730849888  -0.000000018356 0.00003801  0.00000028  0.0000165 0.0000
 16   -583.7730849888  -0.000000000001 0.00001519  0.00000012  0.0000045 0.0000
 17   -583.7730849933  -0.000000004466 0.00001223  0.00000008  0.0000035 0.0000
                 **** Energy Check signals convergence ****

               *****************************************************
               *                     SUCCESS                       *
               *           SCF CONVERGED AFTER  18 CYCLES          *
               *****************************************************

Old exchange energy                            =    -17.006764717 Eh
New exchange energy                            =    -17.006723843 Eh
Exchange energy change after final integration =      0.000040874 Eh
Total energy after final integration           =   -583.773044121 Eh
Final COS-X integration done in                =     4.495 sec

----------------
TOTAL SCF ENERGY
----------------

Total Energy       :         -583.77304412 Eh          -15885.27212 eV

Components:
Nuclear Repulsion  :          888.84971424 Eh           24186.83036 eV
Electronic Energy  :        -1472.62275836 Eh          -40072.10248 eV
One Electron Energy:        -2548.72168334 Eh          -69354.24291 eV
Two Electron Energy:         1076.09892497 Eh           29282.14042 eV
Max COSX asymmetry :            0.00000172 Eh               0.00005 eV

Virial components:
Potential Energy   :        -1162.91938263 Eh          -31644.64518 eV
Kinetic Energy     :          579.14633851 Eh           15759.37306 eV
Virial Ratio       :            2.00798884


DFT components:
N(Alpha)           :       56.000087346818 electrons
N(Beta)            :       55.000093522777 electrons
N(Total)           :      111.000180869595 electrons
E(X)               :      -67.410777309449 Eh       
E(C)               :       -4.262601109326 Eh       
E(XC)              :      -71.673378418775 Eh       
DFET-embed. en.    :        0.000000000000 Eh       

---------------
SCF CONVERGENCE
---------------

  Last Energy change         ...   -1.5525e-09  Tolerance :   1.0000e-08
  Last MAX-Density change    ...    0.0000e+00  Tolerance :   1.0000e-07
  Last RMS-Density change    ...    0.0000e+00  Tolerance :   5.0000e-09
  Last DIIS Error            ...    2.8681e-06  Tolerance :   5.0000e-07

             **** THE GBW FILE WAS UPDATED (BDE.gbw) ****
             **** DENSITY BDE.scfp WAS UPDATED ****
             **** ENERGY FILE WAS UPDATED (BDE.en.tmp) ****
----------------------
UHF SPIN CONTAMINATION
----------------------

Warning: in a DFT calculation there is little theoretical justification to 
         calculate <S**2> as in Hartree-Fock theory. We will do it anyways
         but you should keep in mind that the values have only limited relevance

Expectation value of <S**2>     :     0.790107
Ideal value S*(S+1) for S=0.5   :     0.750000
Deviation                       :     0.040107

             **** THE GBW FILE WAS UPDATED (BDE.gbw) ****
             **** DENSITY BDE.scfp WAS UPDATED ****
----------------
ORBITAL ENERGIES
----------------
                 SPIN UP ORBITALS
  NO   OCC          E(Eh)            E(eV) 
   0   1.0000     -10.249843      -278.9124 
   1   1.0000     -10.221442      -278.1396 
   2   1.0000     -10.211604      -277.8719 
   3   1.0000     -10.210177      -277.8331 
   4   1.0000     -10.208294      -277.7818 
   5   1.0000     -10.203806      -277.6597 
   6   1.0000     -10.201055      -277.5848 
   7   1.0000     -10.194796      -277.4145 
   8   1.0000     -10.194224      -277.3989 
   9   1.0000     -10.186832      -277.1978 
  10   1.0000     -10.186610      -277.1918 
  11   1.0000     -10.185828      -277.1705 
  12   1.0000     -10.185140      -277.1517 
  13   1.0000     -10.175564      -276.8912 
  14   1.0000     -10.175506      -276.8896 
  15   1.0000      -0.871780       -23.7223 
  16   1.0000      -0.817082       -22.2339 
  17   1.0000      -0.797189       -21.6926 
  18   1.0000      -0.780768       -21.2458 
  19   1.0000      -0.767920       -20.8962 
  20   1.0000      -0.732805       -19.9406 
  21   1.0000      -0.703158       -19.1339 
  22   1.0000      -0.666411       -18.1340 
  23   1.0000      -0.653897       -17.7934 
  24   1.0000      -0.621729       -16.9181 
  25   1.0000      -0.595515       -16.2048 
  26   1.0000      -0.581072       -15.8118 
  27   1.0000      -0.565156       -15.3787 
  28   1.0000      -0.532407       -14.4875 
  29   1.0000      -0.487220       -13.2579 
  30   1.0000      -0.474936       -12.9237 
  31   1.0000      -0.473608       -12.8875 
  32   1.0000      -0.470690       -12.8081 
  33   1.0000      -0.436686       -11.8828 
  34   1.0000      -0.426778       -11.6132 
  35   1.0000      -0.426556       -11.6072 
  36   1.0000      -0.423136       -11.5141 
  37   1.0000      -0.420701       -11.4479 
  38   1.0000      -0.412429       -11.2228 
  39   1.0000      -0.394699       -10.7403 
  40   1.0000      -0.379169       -10.3177 
  41   1.0000      -0.368705       -10.0330 
  42   1.0000      -0.367488        -9.9999 
  43   1.0000      -0.362048        -9.8518 
  44   1.0000      -0.360524        -9.8104 
  45   1.0000      -0.344982        -9.3874 
  46   1.0000      -0.335867        -9.1394 
  47   1.0000      -0.332727        -9.0540 
  48   1.0000      -0.328184        -8.9303 
  49   1.0000      -0.326682        -8.8895 
  50   1.0000      -0.325283        -8.8514 
  51   1.0000      -0.320170        -8.7123 
  52   1.0000      -0.294453        -8.0125 
  53   1.0000      -0.289640        -7.8815 
  54   1.0000      -0.256309        -6.9745 
  55   1.0000      -0.179921        -4.8959 
  56   0.0000      -0.103960        -2.8289 
  57   0.0000      -0.007542        -0.2052 
  58   0.0000       0.011602         0.3157 
  59   0.0000       0.018475         0.5027 
  60   0.0000       0.020994         0.5713 
  61   0.0000       0.025404         0.6913 
  62   0.0000       0.032849         0.8939 
  63   0.0000       0.035062         0.9541 
  64   0.0000       0.046613         1.2684 
  65   0.0000       0.055495         1.5101 
  66   0.0000       0.074500         2.0272 
  67   0.0000       0.077697         2.1143 
  68   0.0000       0.091271         2.4836 
  69   0.0000       0.101991         2.7753 
  70   0.0000       0.103592         2.8189 
  71   0.0000       0.125149         3.4055 
  72   0.0000       0.125900         3.4259 
  73   0.0000       0.146726         3.9926 
  74   0.0000       0.155261         4.2249 
  75   0.0000       0.159374         4.3368 
  76   0.0000       0.172253         4.6872 
  77   0.0000       0.173779         4.7288 
  78   0.0000       0.181361         4.9351 
  79   0.0000       0.185317         5.0427 
  80   0.0000       0.189705         5.1621 
  81   0.0000       0.195268         5.3135 
  82   0.0000       0.195630         5.3234 
  83   0.0000       0.196531         5.3479 
  84   0.0000       0.205359         5.5881 
  85   0.0000       0.208615         5.6767 
  86   0.0000       0.208839         5.6828 
  87   0.0000       0.214649         5.8409 
  88   0.0000       0.228415         6.2155 
  89   0.0000       0.232412         6.3243 
  90   0.0000       0.236634         6.4391 
  91   0.0000       0.247266         6.7284 
  92   0.0000       0.247721         6.7408 
  93   0.0000       0.248244         6.7551 
  94   0.0000       0.255314         6.9475 
  95   0.0000       0.262396         7.1401 
  96   0.0000       0.269530         7.3343 
  97   0.0000       0.272649         7.4191 
  98   0.0000       0.275129         7.4866 
  99   0.0000       0.281756         7.6670 
 100   0.0000       0.288903         7.8614 
 101   0.0000       0.291381         7.9289 
 102   0.0000       0.295567         8.0428 
 103   0.0000       0.297741         8.1019 
 104   0.0000       0.305442         8.3115 
 105   0.0000       0.307525         8.3682 
 106   0.0000       0.309436         8.4202 
 107   0.0000       0.317926         8.6512 
 108   0.0000       0.318867         8.6768 
 109   0.0000       0.325997         8.8708 
 110   0.0000       0.331149         9.0110 
 111   0.0000       0.339060         9.2263 
 112   0.0000       0.352850         9.6015 
 113   0.0000       0.352892         9.6027 
 114   0.0000       0.360695         9.8150 
 115   0.0000       0.367312         9.9951 
 116   0.0000       0.367356         9.9963 
 117   0.0000       0.369117        10.0442 
 118   0.0000       0.376222        10.2375 
 119   0.0000       0.391045        10.6409 
 120   0.0000       0.391121        10.6430 
 121   0.0000       0.401158        10.9161 
 122   0.0000       0.411335        11.1930 
 123   0.0000       0.412989        11.2380 
 124   0.0000       0.416474        11.3328 
 125   0.0000       0.425501        11.5785 
 126   0.0000       0.432429        11.7670 
 127   0.0000       0.437198        11.8968 
 128   0.0000       0.456116        12.4115 
 129   0.0000       0.459351        12.4996 
 130   0.0000       0.470214        12.7952 
 131   0.0000       0.476241        12.9592 
 132   0.0000       0.478871        13.0307 
 133   0.0000       0.494710        13.4617 
 134   0.0000       0.507190        13.8013 
 135   0.0000       0.507653        13.8139 
 136   0.0000       0.518010        14.0958 
 137   0.0000       0.520494        14.1634 
 138   0.0000       0.528042        14.3688 
 139   0.0000       0.530805        14.4439 
 140   0.0000       0.544422        14.8145 
 141   0.0000       0.558085        15.1863 
 142   0.0000       0.563450        15.3323 
 143   0.0000       0.568887        15.4802 
 144   0.0000       0.575973        15.6730 
 145   0.0000       0.585743        15.9389 
 146   0.0000       0.611660        16.6441 
 147   0.0000       0.625995        17.0342 
 148   0.0000       0.645960        17.5775 
 149   0.0000       0.663409        18.0523 
 150   0.0000       0.679435        18.4884 
 151   0.0000       0.706932        19.2366 
 152   0.0000       0.736495        20.0410 
 153   0.0000       0.761560        20.7231 
 154   0.0000       0.764655        20.8073 
 155   0.0000       0.772536        21.0218 
 156   0.0000       0.773515        21.0484 
 157   0.0000       0.791160        21.5286 
 158   0.0000       0.824011        22.4225 
 159   0.0000       0.826351        22.4862 
 160   0.0000       0.841340        22.8940 
 161   0.0000       0.843594        22.9554 
 162   0.0000       0.848345        23.0846 
 163   0.0000       0.860958        23.4279 
 164   0.0000       0.874649        23.8004 
 165   0.0000       0.876186        23.8422 
 166   0.0000       0.890045        24.2193 
 167   0.0000       0.891865        24.2689 
 168   0.0000       0.893930        24.3251 
 169   0.0000       0.913550        24.8589 
 170   0.0000       0.914971        24.8976 
 171   0.0000       0.920263        25.0416 
 172   0.0000       0.921322        25.0705 
 173   0.0000       0.923534        25.1306 
 174   0.0000       0.939252        25.5584 
 175   0.0000       0.942197        25.6385 
 176   0.0000       0.947628        25.7863 
 177   0.0000       0.954461        25.9722 
 178   0.0000       0.967464        26.3260 
 179   0.0000       0.971451        26.4345 
 180   0.0000       0.979081        26.6421 
 181   0.0000       0.986659        26.8484 
 182   0.0000       0.990446        26.9514 
 183   0.0000       1.007845        27.4249 
 184   0.0000       1.016350        27.6563 
 185   0.0000       1.019824        27.7508 
 186   0.0000       1.022647        27.8276 
 187   0.0000       1.040456        28.3122 
 188   0.0000       1.057131        28.7660 
 189   0.0000       1.057646        28.7800 
 190   0.0000       1.060511        28.8580 
 191   0.0000       1.089263        29.6404 
 192   0.0000       1.101584        29.9756 
 193   0.0000       1.102975        30.0135 
 194   0.0000       1.104894        30.0657 
 195   0.0000       1.129268        30.7289 
 196   0.0000       1.141307        31.0565 
 197   0.0000       1.163325        31.6557 
 198   0.0000       1.171218        31.8705 
 199   0.0000       1.175208        31.9790 
 200   0.0000       1.186544        32.2875 
 201   0.0000       1.192605        32.4524 
 202   0.0000       1.199601        32.6428 
 203   0.0000       1.202052        32.7095 
 204   0.0000       1.209589        32.9146 
 205   0.0000       1.223740        33.2997 
 206   0.0000       1.251315        34.0500 
 207   0.0000       1.257385        34.2152 
 208   0.0000       1.267692        34.4956 
 209   0.0000       1.282788        34.9064 
 210   0.0000       1.292785        35.1785 
 211   0.0000       1.307169        35.5699 
 212   0.0000       1.314705        35.7749 
 213   0.0000       1.334292        36.3079 
 214   0.0000       1.341164        36.4949 
 215   0.0000       1.362503        37.0756 
 216   0.0000       1.378069        37.4992 
 217   0.0000       1.387406        37.7532 
 218   0.0000       1.388536        37.7840 
 219   0.0000       1.424251        38.7558 
 220   0.0000       1.425819        38.7985 
 221   0.0000       1.431711        38.9588 
 222   0.0000       1.445525        39.3347 
 223   0.0000       1.455619        39.6094 
 224   0.0000       1.463096        39.8129 
 225   0.0000       1.479601        40.2620 
 226   0.0000       1.501048        40.8456 
 227   0.0000       1.502483        40.8846 
 228   0.0000       1.505114        40.9562 
 229   0.0000       1.521130        41.3920 
 230   0.0000       1.543423        41.9987 
 231   0.0000       1.547268        42.1033 
 232   0.0000       1.550925        42.2028 
 233   0.0000       1.553039        42.2603 
 234   0.0000       1.567508        42.6541 
 235   0.0000       1.576012        42.8855 
 236   0.0000       1.582572        43.0640 
 237   0.0000       1.594895        43.3993 
 238   0.0000       1.599915        43.5359 
 239   0.0000       1.601088        43.5678 
 240   0.0000       1.605261        43.6814 
 241   0.0000       1.607350        43.7382 
 242   0.0000       1.620017        44.0829 
 243   0.0000       1.626044        44.2469 
 244   0.0000       1.636197        44.5232 
 245   0.0000       1.646681        44.8085 
 246   0.0000       1.665665        45.3250 
 247   0.0000       1.671225        45.4763 
 248   0.0000       1.678292        45.6686 
 249   0.0000       1.696860        46.1739 
 250   0.0000       1.699274        46.2396 
 251   0.0000       1.704879        46.3921 
 252   0.0000       1.707608        46.4664 
 253   0.0000       1.724841        46.9353 
 254   0.0000       1.733484        47.1705 
 255   0.0000       1.734773        47.2056 
 256   0.0000       1.734895        47.2089 
 257   0.0000       1.748172        47.5702 
 258   0.0000       1.757149        47.8144 
 259   0.0000       1.763024        47.9743 
 260   0.0000       1.767180        48.0874 
 261   0.0000       1.782521        48.5049 
 262   0.0000       1.792010        48.7631 
 263   0.0000       1.800575        48.9961 
 264   0.0000       1.813491        49.3476 
 265   0.0000       1.822888        49.6033 
 266   0.0000       1.832921        49.8763 
 267   0.0000       1.852537        50.4101 
 268   0.0000       1.871139        50.9163 
 269   0.0000       1.892827        51.5064 
 270   0.0000       1.899751        51.6949 
 271   0.0000       1.927645        52.4539 
 272   0.0000       1.927918        52.4613 
 273   0.0000       1.933141        52.6034 
 274   0.0000       1.943034        52.8726 
 275   0.0000       1.948485        53.0210 
 276   0.0000       1.968307        53.5604 
 277   0.0000       1.991668        54.1960 
 278   0.0000       2.033047        55.3220 
 279   0.0000       2.045746        55.6676 
 280   0.0000       2.051692        55.8294 
 281   0.0000       2.059415        56.0395 
 282   0.0000       2.071607        56.3713 
 283   0.0000       2.090073        56.8738 
 284   0.0000       2.103336        57.2347 
 285   0.0000       2.136892        58.1478 
 286   0.0000       2.140175        58.2371 
 287   0.0000       2.192213        59.6531 
 288   0.0000       2.201275        59.8997 
 289   0.0000       2.205000        60.0011 
 290   0.0000       2.224136        60.5218 
 291   0.0000       2.244555        61.0775 
 292   0.0000       2.249411        61.2096 
 293   0.0000       2.250147        61.2296 
 294   0.0000       2.267699        61.7072 
 295   0.0000       2.280145        62.0459 
 296   0.0000       2.297362        62.5144 
 297   0.0000       2.308930        62.8292 
 298   0.0000       2.317969        63.0751 
 299   0.0000       2.318480        63.0891 
 300   0.0000       2.326857        63.3170 
 301   0.0000       2.343063        63.7580 
 302   0.0000       2.346387        63.8484 
 303   0.0000       2.396208        65.2041 
 304   0.0000       2.416151        65.7468 
 305   0.0000       2.423738        65.9533 
 306   0.0000       2.425157        65.9919 
 307   0.0000       2.440730        66.4156 
 308   0.0000       2.447527        66.6006 
 309   0.0000       2.450669        66.6861 
 310   0.0000       2.451952        66.7210 
 311   0.0000       2.465759        67.0967 
 312   0.0000       2.472831        67.2892 
 313   0.0000       2.476782        67.3967 
 314   0.0000       2.508217        68.2521 
 315   0.0000       2.509416        68.2847 
 316   0.0000       2.536672        69.0264 
 317   0.0000       2.543081        69.2007 
 318   0.0000       2.565271        69.8046 
 319   0.0000       2.572432        69.9994 
 320   0.0000       2.579468        70.1909 
 321   0.0000       2.606654        70.9307 
 322   0.0000       2.608283        70.9750 
 323   0.0000       2.615485        71.1710 
 324   0.0000       2.618783        71.2607 
 325   0.0000       2.633957        71.6736 
 326   0.0000       2.722582        74.0852 
 327   0.0000       2.763342        75.1943 
 328   0.0000       2.824893        76.8692 
 329   0.0000       3.240534        88.1794 
 330   0.0000       4.979076       135.4876 
 331   0.0000       4.980212       135.5185 
 332   0.0000       5.002643       136.1288 
 333   0.0000       5.003734       136.1585 
 334   0.0000       5.004985       136.1926 
 335   0.0000       5.005452       136.2053 
 336   0.0000       5.014972       136.4643 
 337   0.0000       5.028481       136.8319 
 338   0.0000       5.030814       136.8954 
 339   0.0000       5.039586       137.1341 
 340   0.0000       5.042671       137.2181 
 341   0.0000       5.131537       139.6362 
 342   0.0000       5.204257       141.6150 
 343   0.0000       5.224718       142.1718 
 344   0.0000       5.246272       142.7583 
 345   0.0000       5.266813       143.3173 
 346   0.0000       5.277958       143.6206 
 347   0.0000       5.288546       143.9087 
 348   0.0000       5.297750       144.1591 
 349   0.0000       5.308470       144.4508 
 350   0.0000       5.323730       144.8661 
 351   0.0000       5.350021       145.5815 
 352   0.0000       5.370987       146.1520 
 353   0.0000       5.425058       147.6233 
 354   0.0000       5.426163       147.6534 
 355   0.0000       5.446389       148.2038 
 356   0.0000       5.513989       150.0433 
 357   0.0000       5.527348       150.4068 
 358   0.0000       5.586548       152.0177 
 359   0.0000       5.594947       152.2463 
 360   0.0000       5.685116       154.6999 
 361   0.0000       5.733180       156.0077 
 362   0.0000       5.737923       156.1368 
 363   0.0000       5.841439       158.9536 
 364   0.0000       5.871627       159.7751 
 365   0.0000       6.078302       165.3990 
 366   0.0000      29.583473       805.0072 
 367   0.0000      29.748074       809.4862 
 368   0.0000      29.803917       811.0058 
 369   0.0000      29.819779       811.4374 
 370   0.0000      29.893264       813.4371 
 371   0.0000      29.943529       814.8048 
 372   0.0000      29.969126       815.5014 
 373   0.0000      29.988691       816.0338 
 374   0.0000      30.021668       816.9311 
 375   0.0000      30.103927       819.1695 
 376   0.0000      30.139250       820.1307 
 377   0.0000      30.144254       820.2668 
 378   0.0000      30.253818       823.2482 
 379   0.0000      30.273758       823.7908 
 380   0.0000      30.411527       827.5397 
 381   0.0000      36.605604       996.0891 
 382   0.0000      36.606734       996.1199 
 383   0.0000      36.621254       996.5150 
 384   0.0000      36.621654       996.5259 
 385   0.0000      36.629475       996.7387 
 386   0.0000      36.632346       996.8168 
 387   0.0000      36.651997       997.3515 
 388   0.0000      36.655793       997.4548 
 389   0.0000      36.663647       997.6686 
 390   0.0000      36.666205       997.7382 
 391   0.0000      36.751645      1000.0631 
 392   0.0000      36.821107      1001.9532 
 393   0.0000      36.846279      1002.6382 
 394   0.0000      36.854145      1002.8523 
 395   0.0000      36.868970      1003.2557 
 396   0.0000      36.873851      1003.3885 
 397   0.0000      36.924430      1004.7648 
 398   0.0000      36.928318      1004.8706 
 399   0.0000      36.950738      1005.4807 
 400   0.0000      36.982011      1006.3317 
 401   0.0000      36.996850      1006.7355 

                 SPIN DOWN ORBITALS
  NO   OCC          E(Eh)            E(eV) 
   0   1.0000     -10.241644      -278.6893 
   1   1.0000     -10.217269      -278.0260 
   2   1.0000     -10.213603      -277.9263 
   3   1.0000     -10.210825      -277.8507 
   4   1.0000     -10.206387      -277.7299 
   5   1.0000     -10.203099      -277.6404 
   6   1.0000     -10.198572      -277.5173 
   7   1.0000     -10.195091      -277.4225 
   8   1.0000     -10.194107      -277.3958 
   9   1.0000     -10.186822      -277.1975 
  10   1.0000     -10.186607      -277.1917 
  11   1.0000     -10.185829      -277.1705 
  12   1.0000     -10.185143      -277.1518 
  13   1.0000     -10.175564      -276.8912 
  14   1.0000     -10.175508      -276.8897 
  15   1.0000      -0.867473       -23.6051 
  16   1.0000      -0.815704       -22.1964 
  17   1.0000      -0.796560       -21.6755 
  18   1.0000      -0.776283       -21.1237 
  19   1.0000      -0.764889       -20.8137 
  20   1.0000      -0.732146       -19.9227 
  21   1.0000      -0.701536       -19.0898 
  22   1.0000      -0.654008       -17.7965 
  23   1.0000      -0.653216       -17.7749 
  24   1.0000      -0.619833       -16.8665 
  25   1.0000      -0.593901       -16.1609 
  26   1.0000      -0.580818       -15.8049 
  27   1.0000      -0.564241       -15.3538 
  28   1.0000      -0.527623       -14.3573 
  29   1.0000      -0.482816       -13.1381 
  30   1.0000      -0.474282       -12.9059 
  31   1.0000      -0.473358       -12.8807 
  32   1.0000      -0.469103       -12.7650 
  33   1.0000      -0.435536       -11.8515 
  34   1.0000      -0.425811       -11.5869 
  35   1.0000      -0.424236       -11.5441 
  36   1.0000      -0.422883       -11.5072 
  37   1.0000      -0.420179       -11.4336 
  38   1.0000      -0.412009       -11.2113 
  39   1.0000      -0.393262       -10.7012 
  40   1.0000      -0.372630       -10.1398 
  41   1.0000      -0.368210       -10.0195 
  42   1.0000      -0.366742        -9.9796 
  43   1.0000      -0.359805        -9.7908 
  44   1.0000      -0.359734        -9.7889 
  45   1.0000      -0.340274        -9.2593 
  46   1.0000      -0.335751        -9.1362 
  47   1.0000      -0.332105        -9.0370 
  48   1.0000      -0.327941        -8.9237 
  49   1.0000      -0.326397        -8.8817 
  50   1.0000      -0.324911        -8.8413 
  51   1.0000      -0.319626        -8.6975 
  52   1.0000      -0.277987        -7.5644 
  53   1.0000      -0.271320        -7.3830 
  54   1.0000      -0.244412        -6.6508 
  55   0.0000      -0.093543        -2.5454 
  56   0.0000      -0.088234        -2.4010 
  57   0.0000       0.000888         0.0242 
  58   0.0000       0.018674         0.5082 
  59   0.0000       0.020992         0.5712 
  60   0.0000       0.025649         0.6980 
  61   0.0000       0.033149         0.9020 
  62   0.0000       0.033657         0.9159 
  63   0.0000       0.035319         0.9611 
  64   0.0000       0.046789         1.2732 
  65   0.0000       0.056079         1.5260 
  66   0.0000       0.075234         2.0472 
  67   0.0000       0.078463         2.1351 
  68   0.0000       0.091449         2.4885 
  69   0.0000       0.102424         2.7871 
  70   0.0000       0.104331         2.8390 
  71   0.0000       0.125903         3.4260 
  72   0.0000       0.134009         3.6466 
  73   0.0000       0.147048         4.0014 
  74   0.0000       0.156113         4.2480 
  75   0.0000       0.159920         4.3517 
  76   0.0000       0.172510         4.6942 
  77   0.0000       0.174353         4.7444 
  78   0.0000       0.183099         4.9824 
  79   0.0000       0.186109         5.0643 
  80   0.0000       0.189855         5.1662 
  81   0.0000       0.195451         5.3185 
  82   0.0000       0.196055         5.3349 
  83   0.0000       0.196964         5.3597 
  84   0.0000       0.205683         5.5969 
  85   0.0000       0.209383         5.6976 
  86   0.0000       0.210255         5.7213 
  87   0.0000       0.216073         5.8796 
  88   0.0000       0.229037         6.2324 
  89   0.0000       0.232849         6.3361 
  90   0.0000       0.237437         6.4610 
  91   0.0000       0.247949         6.7470 
  92   0.0000       0.248594         6.7646 
  93   0.0000       0.249173         6.7803 
  94   0.0000       0.256466         6.9788 
  95   0.0000       0.263593         7.1727 
  96   0.0000       0.270282         7.3547 
  97   0.0000       0.273323         7.4375 
  98   0.0000       0.278454         7.5771 
  99   0.0000       0.281883         7.6704 
 100   0.0000       0.289560         7.8793 
 101   0.0000       0.291764         7.9393 
 102   0.0000       0.296369         8.0646 
 103   0.0000       0.301059         8.1922 
 104   0.0000       0.306423         8.3382 
 105   0.0000       0.309043         8.4095 
 106   0.0000       0.309921         8.4334 
 107   0.0000       0.319489         8.6938 
 108   0.0000       0.323225         8.7954 
 109   0.0000       0.327149         8.9022 
 110   0.0000       0.337303         9.1785 
 111   0.0000       0.339910         9.2494 
 112   0.0000       0.353476         9.6186 
 113   0.0000       0.361231         9.8296 
[...]
     91      -0.000257  -0.042949   0.025352   0.000021   0.000038  -0.000054
     92      -0.087147   0.000223  -0.000130   0.000001   0.000000   0.000001
     93       0.394731   0.172679  -0.101763  -0.000092   0.000035   0.000001
     94      -0.041596  -0.028599   0.016867   0.000039   0.000027  -0.000042
     95       0.530191   0.261739  -0.154265  -0.000134   0.000018  -0.000044
     96      -0.393311   0.172217  -0.101477  -0.000082   0.000039   0.000005
     97       0.044509  -0.030068   0.017732   0.000039   0.000026  -0.000042
     98       0.530788  -0.262268   0.154558   0.000119  -0.000024   0.000039
     99       0.000010   0.267628   0.453763   0.000696  -0.000552   0.000123
    100       0.000013   0.339695   0.575975   0.000929  -0.000593   0.000207
    101      -0.000489  -0.001165  -0.001975  -0.000004   0.000002  -0.000001
    102       0.000139   0.455216  -0.268695  -0.000255  -0.000421   0.000445
    103       0.000151   0.569031  -0.335887  -0.000433  -0.000635   0.000479
    104      -0.019354  -0.002134   0.001260   0.000002   0.000002  -0.000002
    105      -0.000021  -0.000442   0.001081  -0.941464  -0.320899  -0.033213
    106      -0.000001   0.000018   0.000003   0.011831   0.000955   0.001316
    107      -0.000149  -0.000001  -0.000001  -0.000294  -0.000114   0.000060


-----------
IR SPECTRUM
-----------

 Mode   freq       eps      Int      T**2         TX        TY        TZ
       cm**-1   L/(mol*cm) km/mol    a.u.
----------------------------------------------------------------------------
  7:     12.49   0.000004    0.02  0.000109  ( 0.000087  0.000046  0.010434)
  8:     45.85   0.000002    0.01  0.000016  ( 0.003836 -0.000682  0.001108)
  9:     59.38   0.000015    0.07  0.000077  (-0.008578  0.000149  0.001799)
 10:     61.22   0.000083    0.42  0.000422  ( 0.001726 -0.000374 -0.020474)
 11:     83.68   0.000015    0.08  0.000058  (-0.000734 -0.000027  0.007550)
 12:    100.32   0.000121    0.61  0.000376  (-0.000909 -0.019381  0.000084)
 13:    109.87   0.000010    0.05  0.000027  ( 0.000155  0.000021  0.005203)
 14:    120.01   0.000061    0.31  0.000159  (-0.002375  0.000537 -0.012359)
 15:    137.98   0.000277    1.40  0.000626  (-0.003003 -0.000001  0.024833)
 16:    199.09   0.001330    6.72  0.002084  (-0.000911  0.045643 -0.000381)
 17:    224.92   0.000053    0.27  0.000074  (-0.006032  0.006113  0.000046)
 18:    226.04   0.000021    0.11  0.000029  (-0.002520 -0.004740  0.000062)
 19:    237.07   0.000002    0.01  0.000002  (-0.001440 -0.000161 -0.000579)
 20:    240.86   0.000002    0.01  0.000003  ( 0.001067  0.000021 -0.001200)
 21:    283.01   0.000091    0.46  0.000101  ( 0.006941  0.000829  0.007204)
 22:    314.62   0.000190    0.96  0.000188  (-0.007806 -0.006238 -0.009406)
 23:    318.04   0.000281    1.42  0.000276  ( 0.005608 -0.014936  0.004603)
 24:    345.83   0.000238    1.20  0.000214  ( 0.000471  0.014635 -0.000283)
 25:    439.17   0.000183    0.93  0.000130  (-0.004669  0.010401  0.000295)
 26:    466.58   0.000170    0.86  0.000114  ( 0.000444 -0.010645  0.000522)
 27:    491.35   0.000422    2.13  0.000268  (-0.006491 -0.000438 -0.015016)
 28:    514.92   0.000014    0.07  0.000009  (-0.002363  0.000630  0.001631)
 29:    589.96   0.000011    0.06  0.000006  ( 0.000515 -0.002266 -0.000764)
 30:    674.63   0.000007    0.03  0.000003  (-0.001234  0.000262 -0.001199)
 31:    728.42   0.000190    0.96  0.000082  ( 0.003129 -0.000055 -0.008470)
 32:    734.05   0.000101    0.51  0.000043  (-0.002949  0.001449 -0.005669)
 33:    735.87   0.000590    2.98  0.000250  ( 0.001000  0.000383  0.015775)
 34:    766.70   0.002791   14.11  0.001136  (-0.002325 -0.000371 -0.033625)
 35:    780.52   0.000052    0.26  0.000021  ( 0.001292  0.003654  0.002367)
 36:    785.80   0.000330    1.67  0.000131  (-0.003164 -0.000380  0.010999)
 37:    826.67   0.003220   16.27  0.001215  (-0.001411  0.000273  0.034833)
 38:    850.10   0.000697    3.52  0.000256  ( 0.003694  0.000282  0.015555)
 39:    904.46   0.001042    5.27  0.000360  ( 0.008749  0.016820  0.000284)
 40:    907.48   0.000193    0.98  0.000066  (-0.003167 -0.007501  0.000249)
 41:    931.63   0.000024    0.12  0.000008  (-0.000567 -0.000178  0.002776)
 42:    945.51   0.001209    6.11  0.000399  ( 0.001816  0.000778 -0.019878)
 43:    961.62   0.000822    4.15  0.000267  (-0.007635 -0.010151  0.010261)
 44:    964.67   0.001271    6.42  0.000411  (-0.007507 -0.018103 -0.005207)
 45:   1014.40   0.000118    0.60  0.000036  (-0.004540  0.003905 -0.000724)
 46:   1026.21   0.000100    0.51  0.000030  ( 0.005519  0.000092 -0.000021)
 47:   1059.80   0.000025    0.13  0.000007  (-0.000096 -0.002039  0.001794)
 48:   1068.51   0.000001    0.01  0.000000  (-0.000290  0.000103  0.000454)
 49:   1070.62   0.000464    2.34  0.000135  (-0.010371  0.001638  0.005000)
 50:   1089.65   0.001045    5.28  0.000299  ( 0.017278 -0.000680 -0.000446)
 51:   1115.10   0.000182    0.92  0.000051  (-0.003839 -0.006012  0.000056)
 52:   1123.12   0.000030    0.15  0.000008  (-0.000478 -0.000136  0.002835)
 53:   1130.08   0.000510    2.58  0.000141  (-0.001982  0.011696 -0.000123)
 54:   1168.40   0.000074    0.38  0.000020  ( 0.004423 -0.000473 -0.000211)
 55:   1187.15   0.000574    2.90  0.000151  (-0.006120 -0.010633  0.000676)
 56:   1208.90   0.000187    0.95  0.000048  ( 0.005025 -0.003933 -0.002763)
 57:   1239.33   0.000012    0.06  0.000003  ( 0.000049  0.000046  0.001703)
 58:   1245.03   0.003823   19.32  0.000958  (-0.023982 -0.019570 -0.000132)
 59:   1264.69   0.000727    3.67  0.000179  ( 0.012843  0.003791  0.000158)
 60:   1276.41   0.000419    2.12  0.000102  ( 0.003503  0.009490 -0.000011)
 61:   1285.08   0.000199    1.01  0.000048  ( 0.006506  0.000775 -0.002342)
 62:   1314.00   0.000067    0.34  0.000016  (-0.000864  0.000111 -0.003885)
 63:   1315.11   0.001664    8.41  0.000395  ( 0.019816 -0.001447 -0.000246)
 64:   1320.95   0.000138    0.70  0.000033  (-0.005626  0.001006  0.000130)
 65:   1328.05   0.000093    0.47  0.000022  (-0.001697  0.000081 -0.004359)
 66:   1330.23   0.000060    0.30  0.000014  (-0.000101 -0.000007 -0.003758)
 67:   1366.76   0.000285    1.44  0.000065  (-0.007289 -0.003464 -0.000137)
 68:   1370.81   0.000219    1.11  0.000050  ( 0.006949 -0.001247  0.000166)
 69:   1388.81   0.001329    6.72  0.000299  (-0.014489  0.009416 -0.000265)
 70:   1398.65   0.001122    5.67  0.000250  (-0.002677 -0.015591 -0.000046)
 71:   1409.19   0.002352   11.89  0.000521  ( 0.000285 -0.022822 -0.000076)
 72:   1411.04   0.000708    3.58  0.000157  (-0.011582  0.004739 -0.000005)
 73:   1413.94   0.001833    9.26  0.000405  ( 0.017292  0.010274  0.000078)
 74:   1447.44   0.001514    7.65  0.000326  ( 0.013247  0.012284 -0.000172)
 75:   1477.05   0.000024    0.12  0.000005  ( 0.001667  0.001478 -0.000035)
 76:   1478.87   0.001161    5.87  0.000245  (-0.015493 -0.002207 -0.000008)
 77:   1490.52   0.000565    2.85  0.000118  (-0.001104  0.010818 -0.000024)
 78:   1490.61   0.000013    0.07  0.000003  ( 0.000222 -0.001633  0.000007)
 79:   1502.23   0.000012    0.06  0.000002  (-0.001187  0.001043 -0.000014)
 80:   1502.62   0.000140    0.71  0.000029  (-0.002081  0.004967 -0.000042)
 81:   1505.66   0.001916    9.68  0.000397  (-0.000032 -0.000050 -0.019929)
 82:   1505.73   0.001950    9.86  0.000404  (-0.000114  0.000042  0.020105)
 83:   1515.92   0.001151    5.82  0.000237  ( 0.014258  0.005801 -0.000031)
 84:   1516.10   0.003597   18.18  0.000740  ( 0.025638  0.009110 -0.000029)
 85:   1552.60   0.002794   14.12  0.000562  ( 0.008661  0.022058 -0.000034)
 86:   1592.02   0.000584    2.95  0.000115  (-0.003656 -0.010057  0.000079)
 87:   2991.64   0.000845    4.27  0.000088  (-0.009320  0.000300  0.001070)
 88:   3000.70   0.001768    8.94  0.000184  (-0.008243  0.000249 -0.010766)
 89:   3001.96   0.000577    2.92  0.000060  (-0.007734  0.000457  0.000000)
 90:   3005.09   0.000128    0.65  0.000013  ( 0.001329 -0.003397 -0.000032)
 91:   3006.03   0.000156    0.79  0.000016  ( 0.003039  0.002618  0.000379)
 92:   3014.20   0.011502   58.13  0.001191  (-0.034223 -0.004428  0.000042)
 93:   3014.68   0.009140   46.19  0.000946  ( 0.030523  0.003800  0.000082)
 94:   3020.31   0.008124   41.06  0.000839  ( 0.019279 -0.021627  0.000042)
 95:   3020.81   0.006848   34.61  0.000707  (-0.016295  0.021021 -0.000035)
 96:   3028.20   0.000621    3.14  0.000064  ( 0.000064 -0.000001 -0.008002)
 97:   3036.36   0.000016    0.08  0.000002  (-0.001269  0.000021  0.000292)
 98:   3037.07   0.000003    0.01  0.000000  (-0.000028  0.000013  0.000538)
 99:   3059.87   0.005739   29.00  0.000585  (-0.001766 -0.000019 -0.024129)
100:   3061.60   0.008985   45.41  0.000916  (-0.000060 -0.000091 -0.030263)
101:   3089.15   0.011741   59.33  0.001186  (-0.000377 -0.000079 -0.034437)
102:   3089.91   0.012746   64.41  0.001287  (-0.000060 -0.000110 -0.035878)
103:   3093.65   0.015270   77.17  0.001540  (-0.030571 -0.024610  0.000116)
104:   3093.68   0.000945    4.78  0.000095  (-0.007405 -0.006363  0.000025)
105:   3164.42   0.002276   11.50  0.000224  ( 0.013481  0.006533  0.000052)
106:   3191.37   0.003130   15.82  0.000306  ( 0.011174 -0.013460  0.000049)
107:   3202.92   0.000589    2.97  0.000057  ( 0.000576  0.007551  0.000051)

* The epsilon (eps) is given for a Dirac delta lineshape.
** The dipole moment derivative (T) already includes vibrational overlap.

The first frequency considered to be a vibration is 7
The total number of vibrations considered is 101


--------------------------
THERMOCHEMISTRY AT 298.15K
--------------------------

Temperature         ... 298.15 K
Pressure            ... 1.00 atm
Total Mass          ... 201.33 AMU

Throughout the following assumptions are being made:
  (1) The electronic state is orbitally nondegenerate
      but the spin degeneracy is treated
  (2) There are no thermally accessible electronically excited states
  (3) Hindered rotations indicated by low frequency modes are not
      treated as such but are treated as vibrations and this may
      cause some error
  (4) All equations used are the standard statistical mechanics
      equations for an ideal gas
  (5) All vibrations are strictly harmonic

freq.      12.49  E(vib)   ...       0.57 
freq.      45.85  E(vib)   ...       0.53 
freq.      59.38  E(vib)   ...       0.51 
freq.      61.22  E(vib)   ...       0.51 
freq.      83.68  E(vib)   ...       0.48 
freq.     100.32  E(vib)   ...       0.46 
freq.     109.87  E(vib)   ...       0.45 
freq.     120.01  E(vib)   ...       0.44 
freq.     137.98  E(vib)   ...       0.42 
freq.     199.09  E(vib)   ...       0.35 
freq.     224.92  E(vib)   ...       0.33 
freq.     226.04  E(vib)   ...       0.33 
freq.     237.07  E(vib)   ...       0.32 
freq.     240.86  E(vib)   ...       0.31 
freq.     283.01  E(vib)   ...       0.28 
freq.     314.62  E(vib)   ...       0.25 
freq.     318.04  E(vib)   ...       0.25 
freq.     345.83  E(vib)   ...       0.23 
freq.     439.17  E(vib)   ...       0.17 
freq.     466.58  E(vib)   ...       0.16 
freq.     491.35  E(vib)   ...       0.14 
freq.     514.92  E(vib)   ...       0.13 
freq.     589.96  E(vib)   ...       0.10 
freq.     674.63  E(vib)   ...       0.08 
freq.     728.42  E(vib)   ...       0.06 
freq.     734.05  E(vib)   ...       0.06 
freq.     735.87  E(vib)   ...       0.06 
freq.     766.70  E(vib)   ...       0.06 
freq.     780.52  E(vib)   ...       0.05 
freq.     785.80  E(vib)   ...       0.05 
freq.     826.67  E(vib)   ...       0.04 
freq.     850.10  E(vib)   ...       0.04 
freq.     904.46  E(vib)   ...       0.03 
freq.     907.48  E(vib)   ...       0.03 
freq.     931.63  E(vib)   ...       0.03 
freq.     945.51  E(vib)   ...       0.03 
freq.     961.62  E(vib)   ...       0.03 
freq.     964.67  E(vib)   ...       0.03 
freq.    1014.40  E(vib)   ...       0.02 
freq.    1026.21  E(vib)   ...       0.02 
freq.    1059.80  E(vib)   ...       0.02 
freq.    1068.51  E(vib)   ...       0.02 
freq.    1070.62  E(vib)   ...       0.02 
freq.    1089.65  E(vib)   ...       0.02 
freq.    1115.10  E(vib)   ...       0.01 
freq.    1123.12  E(vib)   ...       0.01 
freq.    1130.08  E(vib)   ...       0.01 
freq.    1168.40  E(vib)   ...       0.01 
freq.    1187.15  E(vib)   ...       0.01 
freq.    1208.90  E(vib)   ...       0.01 
freq.    1239.33  E(vib)   ...       0.01 
freq.    1245.03  E(vib)   ...       0.01 
freq.    1264.69  E(vib)   ...       0.01 
freq.    1276.41  E(vib)   ...       0.01 
freq.    1285.08  E(vib)   ...       0.01 
freq.    1314.00  E(vib)   ...       0.01 
freq.    1315.11  E(vib)   ...       0.01 
freq.    1320.95  E(vib)   ...       0.01 
freq.    1328.05  E(vib)   ...       0.01 
freq.    1330.23  E(vib)   ...       0.01 
freq.    1366.76  E(vib)   ...       0.01 
freq.    1370.81  E(vib)   ...       0.01 
freq.    1388.81  E(vib)   ...       0.00 
freq.    1398.65  E(vib)   ...       0.00 
freq.    1409.19  E(vib)   ...       0.00 
freq.    1411.04  E(vib)   ...       0.00 
freq.    1413.94  E(vib)   ...       0.00 
freq.    1447.44  E(vib)   ...       0.00 
freq.    1477.05  E(vib)   ...       0.00 
freq.    1478.87  E(vib)   ...       0.00 
freq.    1490.52  E(vib)   ...       0.00 
freq.    1490.61  E(vib)   ...       0.00 
freq.    1502.23  E(vib)   ...       0.00 
freq.    1502.62  E(vib)   ...       0.00 
freq.    1505.66  E(vib)   ...       0.00 
freq.    1505.73  E(vib)   ...       0.00 
freq.    1515.92  E(vib)   ...       0.00 
freq.    1516.10  E(vib)   ...       0.00 
freq.    1552.60  E(vib)   ...       0.00 
freq.    1592.02  E(vib)   ...       0.00 
freq.    2991.64  E(vib)   ...       0.00 
freq.    3000.70  E(vib)   ...       0.00 
freq.    3001.96  E(vib)   ...       0.00 
freq.    3005.09  E(vib)   ...       0.00 
freq.    3006.03  E(vib)   ...       0.00 
freq.    3014.20  E(vib)   ...       0.00 
freq.    3014.68  E(vib)   ...       0.00 
freq.    3020.31  E(vib)   ...       0.00 
freq.    3020.81  E(vib)   ...       0.00 
freq.    3028.20  E(vib)   ...       0.00 
freq.    3036.36  E(vib)   ...       0.00 
freq.    3037.07  E(vib)   ...       0.00 
freq.    3059.87  E(vib)   ...       0.00 
freq.    3061.60  E(vib)   ...       0.00 
freq.    3089.15  E(vib)   ...       0.00 
freq.    3089.91  E(vib)   ...       0.00 
freq.    3093.65  E(vib)   ...       0.00 
freq.    3093.68  E(vib)   ...       0.00 
freq.    3164.42  E(vib)   ...       0.00 
freq.    3191.37  E(vib)   ...       0.00 
freq.    3202.92  E(vib)   ...       0.00 

------------
INNER ENERGY
------------

The inner energy is: U= E(el) + E(ZPE) + E(vib) + E(rot) + E(trans)
    E(el)   - is the total energy from the electronic structure calculation
              = E(kin-el) + E(nuc-el) + E(el-el) + E(nuc-nuc)
    E(ZPE)  - the the zero temperature vibrational energy from the frequency calculation
    E(vib)  - the the finite temperature correction to E(ZPE) due to population
              of excited vibrational states
    E(rot)  - is the rotational thermal energy
    E(trans)- is the translational thermal energy

Summary of contributions to the inner energy U:
Electronic energy                ...   -583.77492879 Eh
Zero point energy                ...      0.31407128 Eh     197.08 kcal/mol
Thermal vibrational correction   ...      0.01394884 Eh       8.75 kcal/mol
Thermal rotational correction    ...      0.00141627 Eh       0.89 kcal/mol
Thermal translational correction ...      0.00141627 Eh       0.89 kcal/mol
-----------------------------------------------------------------------
Total thermal energy                   -583.44407613 Eh


Summary of corrections to the electronic energy:
(perhaps to be used in another calculation)
Total thermal correction                  0.01678138 Eh      10.53 kcal/mol
Non-thermal (ZPE) correction              0.31407128 Eh     197.08 kcal/mol
-----------------------------------------------------------------------
Total correction                          0.33085266 Eh     207.61 kcal/mol


--------
ENTHALPY
--------

The enthalpy is H = U + kB*T
                kB is Boltzmann's constant
Total free energy                 ...   -583.44407613 Eh 
Thermal Enthalpy correction       ...      0.00094421 Eh       0.59 kcal/mol
-----------------------------------------------------------------------
Total Enthalpy                    ...   -583.44313192 Eh


Note: Only C1 symmetry has been detected, increase convergence thresholds 
      if your molecule has a higher symmetry. Symmetry factor of 1.0 is   
      used for the rotational entropy correction. 
 

Note: Rotational entropy computed according to Herzberg 
Infrared and Raman Spectra, Chapter V,1, Van Nostrand Reinhold, 1945 
Point Group:  C1, Symmetry Number:   1  
Rotational constants in cm-1:     0.070899     0.005942     0.005527 

Vibrational entropy computed according to the QRRHO of S. Grimme
Chem.Eur.J. 2012 18 9955


-------
ENTROPY
-------

The entropy contributions are T*S = T*(S(el)+S(vib)+S(rot)+S(trans))
     S(el)   - electronic entropy
     S(vib)  - vibrational entropy
     S(rot)  - rotational entropy
     S(trans)- translational entropy
The entropies will be listed as multiplied by the temperature to get
units of energy

Electronic entropy                ...      0.00065446 Eh      0.41 kcal/mol
Vibrational entropy               ...      0.02536432 Eh     15.92 kcal/mol
Rotational entropy                ...      0.01563393 Eh      9.81 kcal/mol
Translational entropy             ...      0.01986233 Eh     12.46 kcal/mol
-----------------------------------------------------------------------
Final entropy term                ...      0.06151503 Eh     38.60 kcal/mol

In case the symmetry of your molecule has not been determined correctly
or in case you have a reason to use a different symmetry number we print 
out the resulting rotational entropy values for sn=1,12 :
 --------------------------------------------------------
|  sn= 1 | S(rot)=       0.01563393 Eh      9.81 kcal/mol|
|  sn= 2 | S(rot)=       0.01497947 Eh      9.40 kcal/mol|
|  sn= 3 | S(rot)=       0.01459664 Eh      9.16 kcal/mol|
|  sn= 4 | S(rot)=       0.01432501 Eh      8.99 kcal/mol|
|  sn= 5 | S(rot)=       0.01411432 Eh      8.86 kcal/mol|
|  sn= 6 | S(rot)=       0.01394218 Eh      8.75 kcal/mol|
|  sn= 7 | S(rot)=       0.01379663 Eh      8.66 kcal/mol|
|  sn= 8 | S(rot)=       0.01367056 Eh      8.58 kcal/mol|
|  sn= 9 | S(rot)=       0.01355935 Eh      8.51 kcal/mol|
|  sn=10 | S(rot)=       0.01345987 Eh      8.45 kcal/mol|
|  sn=11 | S(rot)=       0.01336988 Eh      8.39 kcal/mol|
|  sn=12 | S(rot)=       0.01328772 Eh      8.34 kcal/mol|
 --------------------------------------------------------


-------------------
GIBBS FREE ENERGY
-------------------

The Gibbs free energy is G = H - T*S

Total enthalpy                    ...   -583.44313192 Eh 
Total entropy correction          ...     -0.06151503 Eh    -38.60 kcal/mol
-----------------------------------------------------------------------
Final Gibbs free energy         ...   -583.50464695 Eh

For completeness - the Gibbs free energy minus the electronic energy
G-E(el)                           ...      0.27028184 Eh    169.60 kcal/mol


Timings for individual modules:

Sum of individual times         ...     1139.565 sec (=  18.993 min)
GTO integral calculation        ...       15.952 sec (=   0.266 min)   1.4 %
SCF iterations                  ...      395.218 sec (=   6.587 min)  34.7 %
SCF Gradient evaluation         ...       70.830 sec (=   1.181 min)   6.2 %
Geometry relaxation             ...        1.043 sec (=   0.017 min)   0.1 %
Analytical frequency calculation...      656.521 sec (=  10.942 min)  57.6 %
                             ****ORCA TERMINATED NORMALLY****
TOTAL RUN TIME: 0 days 0 hours 19 minutes 24 seconds 812 msec
