
                                 *****************
                                 * O   R   C   A *
                                 *****************

                                            #,                                       
                                            ###                                      
                                            ####                                     
                                            #####                                    
                                            ######                                   
                                           ########,                                 
                                     ,,################,,,,,                         
                               ,,#################################,,                 
                          ,,##########################################,,             
                       ,#########################################, ''#####,          
                    ,#############################################,,   '####,        
                  ,##################################################,,,,####,       
                ,###########''''           ''''###############################       
              ,#####''   ,,,,##########,,,,          '''####'''          '####       
            ,##' ,,,,###########################,,,                        '##       
           ' ,,###''''                  '''############,,,                           
         ,,##''                                '''############,,,,        ,,,,,,###''
      ,#''                                            '''#######################'''  
     '                                                          ''''####''''         
             ,#######,   #######,   ,#######,      ##                                
            ,#'     '#,  ##    ##  ,#'     '#,    #''#        ######   ,####,        
            ##       ##  ##   ,#'  ##            #'  '#       #        #'  '#        
            ##       ##  #######   ##           ,######,      #####,   #    #        
            '#,     ,#'  ##    ##  '#,     ,#' ,#      #,         ##   #,  ,#        
             '#######'   ##     ##  '#######'  #'      '#     #####' # '####'        



                  #######################################################
                  #                        -***-                        #
                  #          Department of theory and spectroscopy      #
                  #    Directorship and core code : Frank Neese         #
                  #        Max Planck Institute fuer Kohlenforschung    #
                  #                Kaiser Wilhelm Platz 1               #
                  #                 D-45470 Muelheim/Ruhr               #
                  #                      Germany                        #
                  #                                                     #
                  #                  All rights reserved                #
                  #                        -***-                        #
                  #######################################################


                         Program Version 5.0.4 -  RELEASE  -


 With contributions from (in alphabetic order):
   Daniel Aravena         : Magnetic Suceptibility
   Michael Atanasov       : Ab Initio Ligand Field Theory (pilot matlab implementation)
   Alexander A. Auer      : GIAO ZORA, VPT2 properties, NMR spectrum
   Ute Becker             : Parallelization
   Giovanni Bistoni       : ED, misc. LED, open-shell LED, HFLD
   Martin Brehm           : Molecular dynamics
   Dmytro Bykov           : SCF Hessian
   Vijay G. Chilkuri      : MRCI spin determinant printing, contributions to CSF-ICE
   Dipayan Datta          : RHF DLPNO-CCSD density
   Achintya Kumar Dutta   : EOM-CC, STEOM-CC
   Dmitry Ganyushin       : Spin-Orbit,Spin-Spin,Magnetic field MRCI
   Miquel Garcia          : C-PCM and meta-GGA Hessian, CC/C-PCM, Gaussian charge scheme
   Yang Guo               : DLPNO-NEVPT2, F12-NEVPT2, CIM, IAO-localization
   Andreas Hansen         : Spin unrestricted coupled pair/coupled cluster methods
   Benjamin Helmich-Paris : MC-RPA, TRAH-SCF, COSX integrals
   Lee Huntington         : MR-EOM, pCC
   Robert Izsak           : Overlap fitted RIJCOSX, COSX-SCS-MP3, EOM
   Marcus Kettner         : VPT2
   Christian Kollmar      : KDIIS, OOCD, Brueckner-CCSD(T), CCSD density, CASPT2, CASPT2-K
   Simone Kossmann        : Meta GGA functionals, TD-DFT gradient, OOMP2, MP2 Hessian
   Martin Krupicka        : Initial AUTO-CI
   Lucas Lang             : DCDCAS
   Marvin Lechner         : AUTO-CI (C++ implementation), FIC-MRCC
   Dagmar Lenk            : GEPOL surface, SMD
   Dimitrios Liakos       : Extrapolation schemes; Compound Job, initial MDCI parallelization
   Dimitrios Manganas     : Further ROCIS development; embedding schemes
   Dimitrios Pantazis     : SARC Basis sets
   Anastasios Papadopoulos: AUTO-CI, single reference methods and gradients
   Taras Petrenko         : DFT Hessian,TD-DFT gradient, ASA, ECA, R-Raman, ABS, FL, XAS/XES, NRVS
   Peter Pinski           : DLPNO-MP2, DLPNO-MP2 Gradient
   Christoph Reimann      : Effective Core Potentials
   Marius Retegan         : Local ZFS, SOC
   Christoph Riplinger    : Optimizer, TS searches, QM/MM, DLPNO-CCSD(T), (RO)-DLPNO pert. Triples
   Tobias Risthaus        : Range-separated hybrids, TD-DFT gradient, RPA, STAB
   Michael Roemelt        : Original ROCIS implementation
   Masaaki Saitow         : Open-shell DLPNO-CCSD energy and density
   Barbara Sandhoefer     : DKH picture change effects
   Avijit Sen             : IP-ROCIS
   Kantharuban Sivalingam : CASSCF convergence, NEVPT2, FIC-MRCI
   Bernardo de Souza      : ESD, SOC TD-DFT
   Georgi Stoychev        : AutoAux, RI-MP2 NMR, DLPNO-MP2 response
   Willem Van den Heuvel  : Paramagnetic NMR
   Boris Wezisla          : Elementary symmetry handling
   Frank Wennmohs         : Technical directorship


 We gratefully acknowledge several colleagues who have allowed us to
 interface, adapt or use parts of their codes:
   Stefan Grimme, W. Hujo, H. Kruse, P. Pracht,  : VdW corrections, initial TS optimization,
                  C. Bannwarth, S. Ehlert          DFT functionals, gCP, sTDA/sTD-DF
   Ed Valeev, F. Pavosevic, A. Kumar             : LibInt (2-el integral package), F12 methods
   Garnet Chan, S. Sharma, J. Yang, R. Olivares  : DMRG
   Ulf Ekstrom                                   : XCFun DFT Library
   Mihaly Kallay                                 : mrcc  (arbitrary order and MRCC methods)
   Jiri Pittner, Ondrej Demel                    : Mk-CCSD
   Frank Weinhold                                : gennbo (NPA and NBO analysis)
   Christopher J. Cramer and Donald G. Truhlar   : smd solvation model
   Lars Goerigk                                  : TD-DFT with DH, B97 family of functionals
   V. Asgeirsson, H. Jonsson                     : NEB implementation
   FAccTs GmbH                                   : IRC, NEB, NEB-TS, DLPNO-Multilevel, CI-OPT
                                                   MM, QMMM, 2- and 3-layer-ONIOM, Crystal-QMMM,
                                                   LR-CPCM, SF, NACMEs, symmetry and pop. for TD-DFT,
                                                   nearIR, NL-DFT gradient (VV10), updates on ESD,
                                                   ML-optimized integration grids
   S Lehtola, MJT Oliveira, MAL Marques          : LibXC Library
   Liviu Ungur et al                             : ANISO software


 Your calculation uses the libint2 library for the computation of 2-el integrals
 For citations please refer to: http://libint.valeyev.net

 Your ORCA version has been built with support for libXC version: 5.1.0
 For citations please refer to: https://tddft.org/programs/libxc/

 This ORCA versions uses:
   CBLAS   interface :  Fast vector & matrix operations
   LAPACKE interface :  Fast linear algebra routines
   SCALAPACK package :  Parallel linear algebra routines
   Shared memory     :  Shared parallel matrices
   BLAS/LAPACK       :  OpenBLAS 0.3.15  USE64BITINT DYNAMIC_ARCH NO_AFFINITY SkylakeX SINGLE_THREADED
        Core in use  :  SkylakeX
   Copyright (c) 2011-2014, The OpenBLAS Project




***************************************
The coordinates will be read from file: model.xyz
***************************************


================================================================================

----- Orbital basis set information -----
Your calculation utilizes the basis: cc-pVDZ 
       H, B-Ne : Obtained from the ccRepo (grant-hill.group.shef.ac.uk/ccrepo) Feb. 2017
                 T. H. Dunning, Jr., J. Chem. Phys. 90, 1007 (1989)
            He : Obtained from the ccRepo (grant-hill.group.shef.ac.uk/ccrepo) Feb. 2017
                 D. E. Woon, T. H. Dunning, Jr., J. Chem. Phys. 100, 2975 (1994)
  Li-Be, Na-Mg : Obtained from the ccRepo (grant-hill.group.shef.ac.uk/ccrepo) Feb. 2017
                 B. P. Prascher, D. E. Woon, K. A. Peterson, T. H. Dunning, Jr., A. K. Wilson, Theor. Chem. Acc. 128, 69 (2011)
         Al-Ar : Obtained from the ccRepo (grant-hill.group.shef.ac.uk/ccrepo) Feb. 2017
                 D. E. Woon, T. H. Dunning, Jr., J. Chem. Phys. 98, 1358 (1993)
            Ca : Obtained from the Peterson Research Group Website (tyr0.chem.wsu.edu/~kipeters) Feb. 2017
                 J. Koput, K. A. Peterson, J. Phys. Chem. 106, 9595 (2002)
         Sc-Zn : Obtained from the ccRepo (grant-hill.group.shef.ac.uk/ccrepo) Feb. 2017
                 N. B. Balabanov, K. A. Peterson, J. Chem. Phys. 123, 064107 (2005)
                 N. B. Balabanov, K. A. Peterson, J. Chem. Phys. 125, 074110 (2006)
         Ga-Kr : Obtained from the ccRepo (grant-hill.group.shef.ac.uk/ccrepo) Feb. 2017
                 A. K. Wilson, D. E. Woon, K. A. Peterson, T. H. Dunning, Jr., J. Chem. Phys. 110, 7667 (1999)

----- AuxJ basis set information -----
Your calculation utilizes the auxiliary basis: def2/J
   F. Weigend, Phys. Chem. Chem. Phys. 8, 1057 (2006).

================================================================================
                                        WARNINGS
                       Please study these warnings very carefully!
================================================================================


WARNING: Geometry Optimization
  ===> : Switching off AutoStart
         For restart on a previous wavefunction, please use MOREAD

INFO   : the flag for use of the SHARK integral package has been found!

================================================================================
                                       INPUT FILE
================================================================================
NAME = opt.inp
|  1> ! B3LYP cc-pVDZ OPT FREQ
|  2> %pal nprocs 16 end
|  3> *XYZFile 0 1 model.xyz
|  4> 
|  5>                          ****END OF INPUT****
================================================================================

                       *****************************
                       * Geometry Optimization Run *
                       *****************************

Geometry optimization settings:
Update method            Update   .... BFGS
Choice of coordinates    CoordSys .... Z-matrix Internals
Initial Hessian          InHess   .... Almoef's Model

Convergence Tolerances:
Energy Change            TolE     ....  5.0000e-06 Eh
Max. Gradient            TolMAXG  ....  3.0000e-04 Eh/bohr
RMS Gradient             TolRMSG  ....  1.0000e-04 Eh/bohr
Max. Displacement        TolMAXD  ....  4.0000e-03 bohr
RMS Displacement         TolRMSD  ....  2.0000e-03 bohr
Strict Convergence                ....  False
------------------------------------------------------------------------------
                        ORCA OPTIMIZATION COORDINATE SETUP
------------------------------------------------------------------------------

The optimization will be done in new redundant internal coordinates
Making redundant internal coordinates   ...  (new redundants) done
Evaluating the initial hessian          ...  (Almloef) done
Evaluating the coordinates              ...  done
Calculating the B-matrix                .... done
Calculating the G-matrix                .... done
Diagonalizing the G-matrix              .... done
Small eigenvalue found = 1.686e-03
Small eigenvalue found = 1.952e-03
Small eigenvalue found = 2.026e-03
Small eigenvalue found = 6.622e-03
Small eigenvalue found = 6.828e-03
Small eigenvalue found = 8.536e-03
Small eigenvalue found = 1.024e-02
Small eigenvalue found = 1.264e-02
Small eigenvalue found = 1.708e-02
Small eigenvalue found = 1.840e-02
Small eigenvalue found = 2.770e-02
The first mode is                       ....  185
The number of degrees of freedom        ....  210

    -----------------------------------------------------------------
                    Redundant Internal Coordinates


    -----------------------------------------------------------------
         Definition                    Initial Value    Approx d2E/dq
    -----------------------------------------------------------------
      1. B(C   1,C   0)                  1.4218         0.556001   
      2. B(C   2,C   1)                  1.3936         0.616616   
      3. B(C   3,C   2)                  1.4121         0.576076   
      4. B(C   4,C   3)                  1.4215         0.556436   
      5. B(C   5,C   0)                  1.4124         0.575374   
      6. B(C   5,C   4)                  1.3935         0.616815   
      7. B(H   6,C   2)                  1.0899         0.360265   
      8. B(H   7,C   5)                  1.0899         0.360254   
      9. B(C   8,C   1)                  1.5165         0.392640   
     10. B(H   9,C   8)                  1.1058         0.339854   
     11. B(H  10,C   8)                  1.1058         0.339847   
     12. B(C  11,C   8)                  1.5309         0.372397   
     13. B(H  12,C  11)                  1.1056         0.339989   
     14. B(H  13,C  11)                  1.1056         0.339997   
     15. B(C  14,C  11)                  1.5337         0.368557   
     16. B(H  15,C  14)                  1.1059         0.339665   
     17. B(H  16,C  14)                  1.1059         0.339668   
     18. B(C  17,C  14)                  1.5308         0.372534   
     19. B(H  18,C  17)                  1.1038         0.342358   
     20. B(H  19,C  17)                  1.1038         0.342358   
     21. B(C  20,C   4)                  1.5166         0.392434   
     22. B(H  21,C  20)                  1.1057         0.339863   
     23. B(H  22,C  20)                  1.1057         0.339858   
     24. B(C  23,C  20)                  1.5309         0.372375   
     25. B(H  24,C  23)                  1.1056         0.339998   
     26. B(H  25,C  23)                  1.1056         0.339991   
     27. B(C  26,C  23)                  1.5336         0.368605   
     28. B(H  27,C  26)                  1.1059         0.339671   
     29. B(H  28,C  26)                  1.1059         0.339670   
     30. B(C  29,C  26)                  1.5308         0.372487   
     31. B(H  30,C  29)                  1.1038         0.342340   
     32. B(H  31,C  29)                  1.1038         0.342341   
     33. B(H  32,C  17)                  1.1021         0.344411   
     34. B(H  33,C  29)                  1.1021         0.344409   
     35. B(C  34,C   0)                  1.4257         0.548061   
     36. B(C  35,C  34)                  1.2239         1.150026   
     37. B(C  36,C  35)                  1.4257         0.548063   
     38. B(C  37,C  36)                  1.4218         0.556001   
     39. B(C  38,C  37)                  1.3936         0.616616   
     40. B(C  39,C  38)                  1.4121         0.576076   
     41. B(C  40,C  39)                  1.4215         0.556438   
     42. B(C  41,C  40)                  1.3935         0.616816   
     43. B(C  41,C  36)                  1.4124         0.575373   
     44. B(H  42,C  38)                  1.0899         0.360265   
     45. B(H  43,C  41)                  1.0899         0.360254   
     46. B(C  44,C  37)                  1.5165         0.392640   
     47. B(H  45,C  44)                  1.1058         0.339847   
     48. B(H  46,C  44)                  1.1058         0.339853   
     49. B(C  47,C  44)                  1.5309         0.372397   
     50. B(H  48,C  47)                  1.1056         0.339997   
     51. B(H  49,C  47)                  1.1056         0.339989   
     52. B(C  50,C  47)                  1.5337         0.368557   
     53. B(H  51,C  50)                  1.1059         0.339668   
     54. B(H  51,H  25)                  4.8421         0.000000   
     55. B(H  52,C  50)                  1.1059         0.339665   
     56. B(C  53,C  50)                  1.5308         0.372535   
     57. B(H  54,C  53)                  1.1038         0.342358   
     58. B(H  55,C  53)                  1.1038         0.342358   
     59. B(C  56,C  40)                  1.5166         0.392433   
     60. B(H  57,C  56)                  1.1057         0.339858   
     61. B(H  58,C  56)                  1.1057         0.339863   
     62. B(C  59,C  56)                  1.5309         0.372375   
     63. B(H  60,C  59)                  1.1056         0.339990   
     64. B(H  61,C  59)                  1.1056         0.339999   
     65. B(H  61,H  15)                  4.8421         0.000000   
     66. B(C  62,C  59)                  1.5336         0.368605   
     67. B(H  63,C  62)                  1.1059         0.339670   
     68. B(H  64,C  62)                  1.1059         0.339671   
     69. B(C  65,C  62)                  1.5308         0.372487   
     70. B(H  66,C  65)                  1.1038         0.342342   
     71. B(H  67,C  65)                  1.1038         0.342340   
     72. B(H  68,C  53)                  1.1021         0.344411   
     73. B(H  69,C  65)                  1.1021         0.344409   
     74. B(H  70,C  39)                  1.0899         0.360265   
     75. B(H  71,C   3)                  1.0899         0.360265   
     76. A(C   1,C   0,C  34)          120.8393         0.416393   
     77. A(C   5,C   0,C  34)          119.1861         0.418941   
     78. A(C   1,C   0,C   5)          119.9746         0.420017   
     79. A(C   0,C   1,C   2)          117.5096         0.425244   
     80. A(C   2,C   1,C   8)          122.7662         0.399785   
     81. A(C   0,C   1,C   8)          119.7242         0.392590   
     82. A(C   1,C   2,H   6)          119.9783         0.352610   
     83. A(C   1,C   2,C   3)          122.5002         0.427954   
     84. A(C   3,C   2,H   6)          117.5214         0.348583   
     85. A(C   2,C   3,H  71)          121.0717         0.348583   
     86. A(C   2,C   3,C   4)          120.0046         0.420167   
     87. A(C   4,C   3,H  71)          118.9238         0.346553   
     88. A(C   3,C   4,C  20)          119.7452         0.392608   
     89. A(C   3,C   4,C   5)          117.4992         0.425328   
     90. A(C   5,C   4,C  20)          122.7556         0.399770   
     91. A(C   0,C   5,C   4)          122.5118         0.427886   
     92. A(C   4,C   5,H   7)          119.9669         0.352627   
     93. A(C   0,C   5,H   7)          117.5213         0.348510   
     94. A(H   9,C   8,C  11)          109.1821         0.321091   
     95. A(H   9,C   8,H  10)          104.5342         0.285620   
     96. A(C   1,C   8,H  10)          108.1378         0.323887   
     97. A(H  10,C   8,C  11)          109.1825         0.321090   
     98. A(C   1,C   8,C  11)          116.9489         0.366262   
     99. A(C   1,C   8,H   9)          108.1399         0.323888   
    100. A(H  12,C  11,H  13)          106.2049         0.285657   
    101. A(H  13,C  11,C  14)          109.0395         0.320569   
    102. A(H  12,C  11,C  14)          109.0420         0.320568   
    103. A(C   8,C  11,C  14)          112.5769         0.362318   
    104. A(C   8,C  11,H  12)          109.8828         0.321112   
    105. A(C   8,C  11,H  13)          109.8878         0.321113   
    106. A(H  16,C  14,C  17)          109.5777         0.321082   
    107. A(C  11,C  14,C  17)          113.1865         0.362341   
    108. A(H  15,C  14,H  16)          105.8547         0.285572   
    109. A(C  11,C  14,H  15)          109.1920         0.320518   
    110. A(H  15,C  14,C  17)          109.5761         0.321081   
    111. A(C  11,C  14,H  16)          109.1906         0.320518   
    112. A(C  14,C  17,H  18)          111.2688         0.321496   
    113. A(H  18,C  17,H  19)          107.3763         0.286276   
    114. A(H  18,C  17,H  32)          107.5973         0.286543   
    115. A(C  14,C  17,H  32)          111.5258         0.321811   
    116. A(H  19,C  17,H  32)          107.5980         0.286543   
    117. A(C  14,C  17,H  19)          111.2686         0.321496   
    118. A(H  22,C  20,C  23)          109.1875         0.321089   
    119. A(H  21,C  20,C  23)          109.1859         0.321089   
    120. A(C   4,C  20,C  23)          116.9156         0.366225   
    121. A(H  21,C  20,H  22)          104.5433         0.285623   
    122. A(C   4,C  20,H  22)          108.1493         0.323861   
    123. A(C   4,C  20,H  21)          108.1485         0.323862   
    124. A(H  25,C  23,C  26)          109.0282         0.320575   
    125. A(H  24,C  23,C  26)          109.0256         0.320576   
    126. A(C  20,C  23,C  26)          112.6232         0.362322   
    127. A(H  24,C  23,H  25)          106.2069         0.285658   
    128. A(C  20,C  23,H  25)          109.8708         0.321109   
    129. A(C  20,C  23,H  24)          109.8765         0.321110   
    130. A(H  28,C  26,C  29)          109.5728         0.321075   
    131. A(H  27,C  26,C  29)          109.5741         0.321075   
    132. A(C  23,C  26,C  29)          113.1714         0.362341   
    133. A(H  27,C  26,H  28)          105.8693         0.285573   
    134. A(C  23,C  26,H  28)          109.1967         0.320526   
    135. A(C  23,C  26,H  27)          109.1953         0.320526   
    136. A(H  31,C  29,H  33)          107.5960         0.286540   
    137. A(H  30,C  29,H  33)          107.5966         0.286540   
    138. A(C  26,C  29,H  33)          111.5275         0.321804   
    139. A(H  30,C  29,H  31)          107.3758         0.286271   
    140. A(C  26,C  29,H  31)          111.2693         0.321487   
    141. A(C  26,C  29,H  30)          111.2695         0.321487   
    142. L(C   0,C  34,C  35,C   5, 2) 180.2738         0.474930   
    143. L(C   0,C  34,C  35,C   5, 1) 179.7692         0.474930   
    144. L(C  34,C  35,C  36,C  41, 2) 180.3021         0.474931   
    145. L(C  34,C  35,C  36,C  41, 1) 179.7687         0.474931   
    146. A(C  37,C  36,C  41)          119.9746         0.420017   
    147. A(C  35,C  36,C  41)          119.1861         0.418941   
    148. A(C  35,C  36,C  37)          120.8394         0.416393   
    149. A(C  38,C  37,C  44)          122.7663         0.399785   
    150. A(C  36,C  37,C  44)          119.7241         0.392590   
    151. A(C  36,C  37,C  38)          117.5097         0.425244   
    152. A(C  39,C  38,H  42)          117.5214         0.348583   
    153. A(C  37,C  38,H  42)          119.9784         0.352610   
    154. A(C  37,C  38,C  39)          122.5001         0.427954   
    155. A(C  38,C  39,C  40)          120.0046         0.420167   
    156. A(C  40,C  39,H  70)          118.9238         0.346553   
    157. A(C  38,C  39,H  70)          121.0716         0.348583   
    158. A(C  41,C  40,C  56)          122.7557         0.399770   
    159. A(C  39,C  40,C  56)          119.7450         0.392608   
    160. A(C  39,C  40,C  41)          117.4994         0.425329   
    161. A(C  40,C  41,H  43)          119.9671         0.352627   
    162. A(C  36,C  41,H  43)          117.5213         0.348510   
    163. A(C  36,C  41,C  40)          122.5117         0.427886   
    164. A(H  46,C  44,C  47)          109.1820         0.321091   
    165. A(H  45,C  44,C  47)          109.1827         0.321090   
    166. A(C  37,C  44,C  47)          116.9489         0.366262   
    167. A(H  45,C  44,H  46)          104.5342         0.285620   
    168. A(C  37,C  44,H  46)          108.1399         0.323888   
    169. A(C  37,C  44,H  45)          108.1378         0.323887   
    170. A(H  49,C  47,C  50)          109.0423         0.320568   
    171. A(H  48,C  47,C  50)          109.0392         0.320569   
    172. A(C  44,C  47,C  50)          112.5769         0.362318   
    173. A(H  48,C  47,H  49)          106.2049         0.285657   
    174. A(C  44,C  47,H  49)          109.8826         0.321112   
    175. A(C  44,C  47,H  48)          109.8880         0.321113   
    176. A(H  52,C  50,C  53)          109.5760         0.321081   
    177. A(H  51,C  50,C  53)          109.5778         0.321082   
    178. A(C  47,C  50,C  53)          113.1865         0.362341   
    179. A(H  51,C  50,H  52)          105.8547         0.285572   
    180. A(C  47,C  50,H  52)          109.1919         0.320518   
    181. A(C  47,C  50,H  51)          109.1907         0.320518   
    182. A(C  50,C  53,H  68)          111.5258         0.321811   
    183. A(H  54,C  53,H  55)          107.3763         0.286276   
    184. A(C  50,C  53,H  55)          111.2688         0.321496   
    185. A(C  50,C  53,H  54)          111.2686         0.321496   
    186. A(H  55,C  53,H  68)          107.5972         0.286543   
    187. A(H  54,C  53,H  68)          107.5980         0.286543   
    188. A(H  58,C  56,C  59)          109.1861         0.321089   
    189. A(H  57,C  56,C  59)          109.1873         0.321088   
    190. A(C  40,C  56,C  59)          116.9156         0.366225   
    191. A(H  57,C  56,H  58)          104.5434         0.285623   
    192. A(C  40,C  56,H  58)          108.1477         0.323862   
    193. A(C  40,C  56,H  57)          108.1500         0.323861   
    194. A(H  61,C  59,C  62)          109.0252         0.320576   
    195. A(H  60,C  59,C  62)          109.0287         0.320575   
    196. A(C  56,C  59,C  62)          112.6232         0.362322   
    197. A(H  60,C  59,H  61)          106.2069         0.285658   
    198. A(C  56,C  59,H  61)          109.8769         0.321110   
    199. A(C  56,C  59,H  60)          109.8703         0.321109   
    200. A(H  64,C  62,C  65)          109.5742         0.321075   
    201. A(H  63,C  62,C  65)          109.5727         0.321075   
    202. A(C  59,C  62,C  65)          113.1714         0.362341   
    203. A(H  63,C  62,H  64)          105.8693         0.285573   
    204. A(C  59,C  62,H  64)          109.1953         0.320526   
    205. A(C  59,C  62,H  63)          109.1967         0.320526   
    206. A(H  66,C  65,H  67)          107.3758         0.286271   
    207. A(C  62,C  65,H  67)          111.2696         0.321487   
    208. A(C  62,C  65,H  66)          111.2692         0.321487   
    209. A(H  67,C  65,H  69)          107.5967         0.286540   
    210. A(H  66,C  65,H  69)          107.5960         0.286540   
    211. A(C  62,C  65,H  69)          111.5275         0.321804   
    212. D(C   2,C   1,C   0,C   5)      0.0043         0.021164   
    213. D(C   2,C   1,C   0,C  34)   -179.9984         0.021164   
    214. D(C   8,C   1,C   0,C   5)    179.9941         0.021164   
    215. D(C   8,C   1,C   0,C  34)     -0.0086         0.021164   
    216. D(H   6,C   2,C   1,C   0)    179.9985         0.026293   
    217. D(H   6,C   2,C   1,C   8)      0.0091         0.026293   
    218. D(C   3,C   2,C   1,C   8)   -179.9926         0.026293   
    219. D(C   3,C   2,C   1,C   0)     -0.0032         0.026293   
    220. D(C   4,C   3,C   2,H   6)    179.9998         0.022786   
    221. D(H  71,C   3,C   2,H   6)      0.0000         0.022786   
    222. D(C   4,C   3,C   2,C   1)      0.0015         0.022786   
    223. D(H  71,C   3,C   2,C   1)   -179.9983         0.022786   
    224. D(C   5,C   4,C   3,C   2)     -0.0008         0.021199   
    225. D(C  20,C   4,C   3,C   2)   -179.9965         0.021199   
    226. D(C   5,C   4,C   3,H  71)    179.9990         0.021199   
    227. D(C  20,C   4,C   3,H  71)      0.0033         0.021199   
    228. D(H   7,C   5,C   4,C  20)     -0.0062         0.026310   
    229. D(H   7,C   5,C   4,C   3)    179.9983         0.026310   
    230. D(C   0,C   5,C   4,C  20)    179.9976         0.026310   
    231. D(H   7,C   5,C   0,C  34)      0.0024         0.022728   
    232. D(C   4,C   5,C   0,C  34)    179.9987         0.022728   
    233. D(H   7,C   5,C   0,C   1)    179.9998         0.022728   
    234. D(C   0,C   5,C   4,C   3)      0.0021         0.026310   
    235. D(C   4,C   5,C   0,C   1)     -0.0039         0.022728   
    236. D(H  10,C   8,C   1,C   2)    123.6273         0.011462   
    237. D(C  11,C   8,C   1,C   0)    179.9672         0.011462   
    238. D(H   9,C   8,C   1,C   2)   -123.7157         0.011462   
    239. D(H  10,C   8,C   1,C   0)    -56.3620         0.011462   
    240. D(H   9,C   8,C   1,C   0)     56.2951         0.011462   
    241. D(C  11,C   8,C   1,C   2)     -0.0436         0.011462   
    242. D(H  12,C  11,C   8,C   1)    -58.2624         0.011078   
    243. D(C  14,C  11,C   8,H   9)    -56.8669         0.011078   
    244. D(C  14,C  11,C   8,C   1)    179.9947         0.011078   
    245. D(H  13,C  11,C   8,H  10)    -64.8844         0.011078   
    246. D(H  13,C  11,C   8,H   9)   -178.6102         0.011078   
    247. D(C  14,C  11,C   8,H  10)     56.8588         0.011078   
    248. D(H  13,C  11,C   8,C   1)     58.2514         0.011078   
    249. D(H  12,C  11,C   8,H   9)     64.8759         0.011078   
    250. D(H  12,C  11,C   8,H  10)    178.6017         0.011078   
    251. D(C  17,C  14,C  11,H  13)    -57.7866         0.010864   
    252. D(C  17,C  14,C  11,C   8)    179.9900         0.010864   
    253. D(H  16,C  14,C  11,C   8)     57.6423         0.010864   
    254. D(H  16,C  14,C  11,H  12)    -64.5764         0.010864   
    255. D(H  16,C  14,C  11,H  13)    179.8657         0.010864   
    256. D(H  15,C  14,C  11,H  13)     64.5600         0.010864   
    257. D(C  17,C  14,C  11,H  12)     57.7713         0.010864   
    258. D(H  15,C  14,C  11,C   8)    -57.6634         0.010864   
    259. D(H  15,C  14,C  11,H  12)   -179.8821         0.010864   
    260. D(H  32,C  17,C  14,H  16)    -57.8898         0.011085   
    261. D(H  32,C  17,C  14,H  15)     57.8461         0.011085   
    262. D(H  32,C  17,C  14,C  11)    179.9784         0.011085   
    263. D(H  19,C  17,C  14,H  16)     62.2619         0.011085   
    264. D(H  19,C  17,C  14,H  15)    177.9978         0.011085   
    265. D(H  19,C  17,C  14,C  11)    -59.8699         0.011085   
    266. D(H  18,C  17,C  14,H  16)   -178.0409         0.011085   
    267. D(H  18,C  17,C  14,H  15)    -62.3049         0.011085   
    268. D(H  18,C  17,C  14,C  11)     59.8274         0.011085   
    269. D(C  23,C  20,C   4,C   3)   -179.9554         0.011450   
    270. D(H  22,C  20,C   4,C   5)   -123.6135         0.011450   
    271. D(H  22,C  20,C   4,C   3)     56.3819         0.011450   
    272. D(H  21,C  20,C   4,C   3)    -56.2955         0.011450   
    273. D(C  23,C  20,C   4,C   5)      0.0492         0.011450   
    274. D(H  21,C  20,C   4,C   5)    123.7091         0.011450   
    275. D(C  26,C  23,C  20,H  22)    -56.8665         0.011076   
    276. D(C  26,C  23,C  20,C   4)   -179.9972         0.011076   
    277. D(C  26,C  23,C  20,H  21)     56.8746         0.011076   
    278. D(H  25,C  23,C  20,H  21)    -64.8736         0.011076   
    279. D(H  25,C  23,C  20,H  22)   -178.6148         0.011076   
    280. D(H  25,C  23,C  20,C   4)     58.2546         0.011076   
    281. D(H  24,C  23,C  20,H  22)     64.8825         0.011076   
    282. D(H  24,C  23,C  20,H  21)    178.6237         0.011076   
    283. D(H  24,C  23,C  20,C   4)    -58.2481         0.011076   
    284. D(C  29,C  26,C  23,H  25)    -57.7611         0.010867   
    285. D(C  29,C  26,C  23,H  24)     57.7841         0.010867   
    286. D(C  29,C  26,C  23,C  20)   -179.9857         0.010867   
    287. D(H  28,C  26,C  23,H  25)    179.9034         0.010867   
    288. D(H  28,C  26,C  23,H  24)    -64.5514         0.010867   
    289. D(H  28,C  26,C  23,C  20)     57.6788         0.010867   
    290. D(H  27,C  26,C  23,H  25)     64.5751         0.010867   
    291. D(H  27,C  26,C  23,H  24)   -179.8797         0.010867   
    292. D(H  27,C  26,C  23,C  20)    -57.6495         0.010867   
    293. D(H  33,C  29,C  26,H  28)    -57.8510         0.011083   
    294. D(H  33,C  29,C  26,H  27)     57.8986         0.011083   
    295. D(H  33,C  29,C  26,C  23)   -179.9766         0.011083   
    296. D(H  31,C  29,C  26,H  28)     62.2998         0.011083   
    297. D(H  31,C  29,C  26,H  27)    178.0494         0.011083   
    298. D(H  31,C  29,C  26,C  23)    -59.8258         0.011083   
    299. D(H  30,C  29,C  26,H  28)   -178.0027         0.011083   
    300. D(H  30,C  29,C  26,C  23)     59.8716         0.011083   
    301. D(H  30,C  29,C  26,H  27)    -62.2532         0.011083   
    302. D(C  41,C  36,C   0,C   5)    179.9340         0.001500   
    303. D(C  41,C  36,C   0,C   1)     -0.1057         0.001500   
    304. D(C  37,C  36,C   0,C   5)     -0.0095         0.001500   
    305. D(C  37,C  36,C   0,C   1)    179.9508         0.001500   
    306. D(C  44,C  37,C  36,C  41)   -179.9926         0.021164   
    307. D(C  44,C  37,C  36,C  35)      0.0100         0.021164   
    308. D(C  38,C  37,C  36,C  41)      0.0005         0.021164   
    309. D(C  38,C  37,C  36,C  35)   -179.9969         0.021164   
    310. D(H  42,C  38,C  37,C  44)     -0.0085         0.026293   
    311. D(H  42,C  38,C  37,C  36)    179.9986         0.026293   
    312. D(C  39,C  38,C  37,C  44)    179.9900         0.026293   
    313. D(C  39,C  38,C  37,C  36)     -0.0029         0.026293   
    314. D(H  70,C  39,C  38,H  42)      0.0000         0.022786   
    315. D(H  70,C  39,C  38,C  37)   -179.9985         0.022786   
    316. D(C  40,C  39,C  38,H  42)   -179.9975         0.022786   
    317. D(C  40,C  39,C  38,C  37)      0.0040         0.022786   
    318. D(C  56,C  40,C  39,H  70)     -0.0011         0.021199   
    319. D(C  56,C  40,C  39,C  38)    179.9965         0.021199   
    320. D(C  41,C  40,C  39,H  70)    180.0000         0.021199   
    321. D(C  41,C  40,C  39,C  38)     -0.0024         0.021199   
    322. D(H  43,C  41,C  40,C  56)      0.0050         0.026311   
    323. D(H  43,C  41,C  40,C  39)   -179.9961         0.026311   
    324. D(C  36,C  41,C  40,C  56)   -179.9989         0.026311   
    325. D(C  36,C  41,C  40,C  39)      0.0000         0.026311   
    326. D(H  43,C  41,C  36,C  37)    179.9972         0.022728   
    327. D(H  43,C  41,C  36,C  35)     -0.0054         0.022728   
    328. D(C  40,C  41,C  36,C  37)      0.0010         0.022728   
    329. D(C  40,C  41,C  36,C  35)    179.9984         0.022728   
    330. D(C  47,C  44,C  37,C  38)      0.0469         0.011462   
    331. D(C  47,C  44,C  37,C  36)   -179.9604         0.011462   
    332. D(H  46,C  44,C  37,C  38)    123.7188         0.011462   
    333. D(H  46,C  44,C  37,C  36)    -56.2885         0.011462   
    334. D(H  45,C  44,C  37,C  38)   -123.6242         0.011462   
    335. D(H  45,C  44,C  37,C  36)     56.3685         0.011462   
    336. D(H  48,C  47,C  44,H  46)    178.6104         0.011078   
    337. D(H  48,C  47,C  44,H  45)     64.8846         0.011078   
    338. D(H  48,C  47,C  44,C  37)    -58.2514         0.011078   
    339. D(C  50,C  47,C  44,H  46)     56.8674         0.011078   
    340. D(C  50,C  47,C  44,H  45)    -56.8583         0.011078   
    341. D(C  50,C  47,C  44,C  37)   -179.9944         0.011078   
    342. D(H  49,C  47,C  44,H  46)    -64.8757         0.011078   
    343. D(H  49,C  47,C  44,H  45)   -178.6015         0.011078   
    344. D(H  49,C  47,C  44,C  37)     58.2625         0.011078   
    345. D(C  53,C  50,C  47,H  49)    -57.7670         0.010864   
    346. D(C  53,C  50,C  47,H  48)     57.7910         0.010864   
    347. D(C  53,C  50,C  47,C  44)   -179.9857         0.010864   
    348. D(H  52,C  50,C  47,H  49)    179.8867         0.010864   
    349. D(H  52,C  50,C  47,H  48)    -64.5554         0.010864   
    350. D(H  52,C  50,C  47,C  44)     57.6679         0.010864   
    351. D(H  51,C  50,C  47,H  49)     64.5810         0.010864   
    352. D(H  51,C  50,C  47,H  48)   -179.8611         0.010864   
    353. D(H  51,C  50,C  47,C  44)    -57.6378         0.010864   
    354. D(H  68,C  53,C  50,H  51)     57.8934         0.011085   
    355. D(H  68,C  53,C  50,C  47)   -179.9746         0.011085   
    356. D(H  55,C  53,C  50,H  52)     62.3084         0.011085   
    357. D(H  55,C  53,C  50,H  51)    178.0443         0.011085   
    358. D(H  55,C  53,C  50,C  47)    -59.8237         0.011085   
    359. D(H  54,C  53,C  50,H  52)   -177.9944         0.011085   
    360. D(H  54,C  53,C  50,H  51)    -62.2584         0.011085   
    361. D(H  68,C  53,C  50,H  52)    -57.8425         0.011085   
    362. D(H  54,C  53,C  50,C  47)     59.8735         0.011085   
    363. D(C  59,C  56,C  40,C  41)     -0.0573         0.011450   
    364. D(C  59,C  56,C  40,C  39)    179.9438         0.011450   
    365. D(H  58,C  56,C  40,C  41)   -123.7168         0.011450   
    366. D(H  58,C  56,C  40,C  39)     56.2844         0.011450   
    367. D(H  57,C  56,C  40,C  41)    123.6057         0.011450   
    368. D(H  57,C  56,C  40,C  39)    -56.3932         0.011450   
    369. D(C  62,C  59,C  56,H  58)    -56.8729         0.011076   
    370. D(C  62,C  59,C  56,H  57)     56.8683         0.011076   
    371. D(C  62,C  59,C  56,C  40)    179.9998         0.011076   
    372. D(H  61,C  59,C  56,H  58)   -178.6217         0.011076   
    373. D(H  61,C  59,C  56,H  57)    -64.8805         0.011076   
    374. D(H  61,C  59,C  56,C  40)     58.2509         0.011076   
    375. D(H  60,C  59,C  56,H  58)     64.8756         0.011076   
    376. D(H  60,C  59,C  56,H  57)    178.6169         0.011076   
    377. D(H  60,C  59,C  56,C  40)    -58.2517         0.011076   
    378. D(C  65,C  62,C  59,H  60)     57.7567         0.010867   
    379. D(C  65,C  62,C  59,C  56)    179.9811         0.010867   
    380. D(H  64,C  62,C  59,H  61)    179.8752         0.010867   
    381. D(H  64,C  62,C  59,H  60)    -64.5796         0.010867   
    382. D(H  64,C  62,C  59,C  56)     57.6448         0.010867   
    383. D(H  63,C  62,C  59,H  61)     64.5469         0.010867   
    384. D(H  63,C  62,C  59,H  60)   -179.9079         0.010867   
    385. D(C  65,C  62,C  59,H  61)    -57.7885         0.010867   
    386. D(H  63,C  62,C  59,C  56)    -57.6834         0.010867   
    387. D(H  69,C  65,C  62,H  64)    -57.9030         0.011083   
    388. D(H  69,C  65,C  62,H  63)     57.8465         0.011083   
    389. D(H  69,C  65,C  62,C  59)    179.9721         0.011083   
    390. D(H  67,C  65,C  62,H  64)     62.2489         0.011083   
    391. D(H  67,C  65,C  62,H  63)    177.9984         0.011083   
    392. D(H  67,C  65,C  62,C  59)    -59.8760         0.011083   
    393. D(H  66,C  65,C  62,H  64)   -178.0537         0.011083   
    394. D(H  66,C  65,C  62,H  63)    -62.3042         0.011083   
    395. D(H  66,C  65,C  62,C  59)     59.8214         0.011083   
    -----------------------------------------------------------------

Number of atoms                         .... 72
Number of degrees of freedom            .... 395

         *************************************************************
         *                GEOMETRY OPTIMIZATION CYCLE   1            *
         *************************************************************
---------------------------------
CARTESIAN COORDINATES (ANGSTROEM)
---------------------------------
  C      2.809890   -0.000000   -0.000000
  C      2.121953    1.244220    0.006693
  C      0.728798    1.209477    0.006539
  C      0.000000    0.000000    0.000000
  C      0.687522   -1.244206   -0.006731
  C      2.080591   -1.209563   -0.006566
  H      0.160850    2.139659    0.011569
  H      2.648292   -2.139905   -0.011572
  C      2.910629    2.539427    0.013860
  H      3.587828    2.534974   -0.860251
  H      3.586713    2.525932    0.888747
  C      2.105900    3.841696    0.020073
  H      1.443516    3.878631   -0.864421
  H      1.442242    3.869512    0.903938
  C      3.001076    5.087002    0.027179
  H      3.666278    5.051525    0.909941
  H      3.667767    5.060495   -0.854772
  C      2.210300    6.397673    0.033199
  H      1.560073    6.468895    0.922246
  H      1.562137    6.478307   -0.856550
  C     -0.101079   -2.539627   -0.013816
  H     -0.778254   -2.535393    0.860304
  H     -0.777046   -2.526580   -0.888788
  C      0.704566   -3.841349   -0.019791
  H      1.368298   -3.868589   -0.903618
  H      1.366912   -3.877444    0.864765
  C     -0.188714   -5.087973   -0.026775
  H     -0.855447   -5.062485    0.855171
  H     -0.853755   -5.053842   -0.909707
  C      0.604396   -6.397276   -0.032447
  H      1.252578   -6.476627    0.857422
  H      1.254892   -6.467513   -0.921391
  H      2.879250    7.273549    0.038617
  H     -0.062980   -7.274353   -0.037816
  C      4.234776   -0.047297   -0.000253
  C      5.457846   -0.092837    0.002470
  C      6.882731   -0.140124    0.001855
  C      7.570676   -1.384345   -0.003791
  C      8.963830   -1.349595   -0.003972
  C      9.692621   -0.140106    0.001121
  C      9.005091    1.104101    0.006788
  C      7.612022    1.069451    0.006999
  H      9.531784   -2.279777   -0.008183
  H      7.044315    1.999793    0.011187
  C      6.782005   -2.679563   -0.009467
  H      6.105773   -2.666987   -0.884253
  H      6.104953   -2.674195    0.864753
  C      7.586738   -3.981834   -0.014444
  H      8.250252   -4.010578   -0.898388
  H      8.249267   -4.017833    0.869980
  C      6.691567   -5.227150   -0.020103
  H      6.024961   -5.199682    0.861882
  H      6.026280   -5.192639   -0.902840
  C      7.482348   -6.537824   -0.024771
  H      8.130551   -6.617514    0.865034
  H      8.132536   -6.609985   -0.913771
  C      9.793690    2.399532    0.012321
  H     10.469774    2.387480    0.887218
  H     10.470747    2.394307   -0.861885
  C      8.988042    3.701258    0.016933
  H      8.325552    3.736325   -0.867557
  H      8.324454    3.729519    0.900835
  C      9.881319    4.947892    0.022343
  H     10.546443    4.914817    0.905253
  H     10.547968    4.921352   -0.859635
  C      9.088206    6.257198    0.026529
  H      8.437738    6.328458    0.915412
  H      8.439996    6.335522   -0.863410
  H      6.813401   -7.413708   -0.029234
  H      9.755580    7.134283    0.030868
  H     10.782496   -0.140098    0.000837
  H     -1.089875    0.000000    0.000000

----------------------------
CARTESIAN COORDINATES (A.U.)
----------------------------
  NO LB      ZA    FRAG     MASS         X           Y           Z
   0 C     6.0000    0    12.011    5.309923   -0.000000   -0.000000
   1 C     6.0000    0    12.011    4.009910    2.351236    0.012648
   2 C     6.0000    0    12.011    1.377229    2.285581    0.012357
   3 C     6.0000    0    12.011    0.000000    0.000000    0.000000
   4 C     6.0000    0    12.011    1.299229   -2.351209   -0.012720
   5 C     6.0000    0    12.011    3.931748   -2.285743   -0.012408
   6 H     1.0000    0     1.008    0.303963    4.043369    0.021862
   7 H     1.0000    0     1.008    5.004548   -4.043835   -0.021868
   8 C     6.0000    0    12.011    5.500292    4.798822    0.026192
   9 H     1.0000    0     1.008    6.780012    4.790406   -1.625638
  10 H     1.0000    0     1.008    6.777906    4.773320    1.679489
  11 C     6.0000    0    12.011    3.979575    7.259753    0.037932
  12 H     1.0000    0     1.008    2.727850    7.329550   -1.633520
  13 H     1.0000    0     1.008    2.725443    7.312319    1.708196
  14 C     6.0000    0    12.011    5.671211    9.613040    0.051361
  15 H     1.0000    0     1.008    6.928262    9.545998    1.719538
  16 H     1.0000    0     1.008    6.931074    9.562949   -1.615285
  17 C     6.0000    0    12.011    4.176861   12.089851    0.062737
  18 H     1.0000    0     1.008    2.948110   12.224440    1.742792
  19 H     1.0000    0     1.008    2.952010   12.242226   -1.618645
  20 C     6.0000    0    12.011   -0.191011   -4.799200   -0.026108
  21 H     1.0000    0     1.008   -1.470687   -4.791199    1.625740
  22 H     1.0000    0     1.008   -1.468405   -4.774544   -1.679566
  23 C     6.0000    0    12.011    1.331437   -7.259099   -0.037400
  24 H     1.0000    0     1.008    2.585708   -7.310574   -1.707590
  25 H     1.0000    0     1.008    2.583090   -7.327307    1.634169
  26 C     6.0000    0    12.011   -0.356619   -9.614876   -0.050598
  27 H     1.0000    0     1.008   -1.616560   -9.566710    1.616039
  28 H     1.0000    0     1.008   -1.613362   -9.550377   -1.719098
  29 C     6.0000    0    12.011    1.142142  -12.089100   -0.061316
  30 H     1.0000    0     1.008    2.367028  -12.239051    1.620292
  31 H     1.0000    0     1.008    2.371403  -12.221828   -1.741177
  32 H     1.0000    0     1.008    5.440993   13.745016    0.072976
  33 H     1.0000    0     1.008   -0.119015  -13.746536   -0.071462
  34 C     6.0000    0    12.011    8.002567   -0.089377   -0.000477
  35 C     6.0000    0    12.011   10.313834   -0.175436    0.004668
  36 C     6.0000    0    12.011   13.006476   -0.264796    0.003505
  37 C     6.0000    0    12.011   14.306505   -2.616033   -0.007164
  38 C     6.0000    0    12.011   16.939185   -2.550364   -0.007506
  39 C     6.0000    0    12.011   18.316400   -0.264761    0.002119
  40 C     6.0000    0    12.011   17.017156    2.086448    0.012828
  41 C     6.0000    0    12.011   14.384638    2.020970    0.013227
  42 H     1.0000    0     1.008   18.012461   -4.308153   -0.015463
  43 H     1.0000    0     1.008   13.311827    3.779062    0.021140
  44 C     6.0000    0    12.011   12.816132   -5.063639   -0.017890
  45 H     1.0000    0     1.008   11.538239   -5.039876   -1.670996
  46 H     1.0000    0     1.008   11.536690   -5.053496    1.634147
  47 C     6.0000    0    12.011   14.336858   -7.524575   -0.027295
  48 H     1.0000    0     1.008   15.590717   -7.578894   -1.697708
  49 H     1.0000    0     1.008   15.588856   -7.592605    1.644024
  50 C     6.0000    0    12.011   12.645229   -9.877882   -0.037989
  51 H     1.0000    0     1.008   11.385525   -9.825976    1.628721
  52 H     1.0000    0     1.008   11.388020   -9.812666   -1.706120
  53 C     6.0000    0    12.011   14.139588  -12.354698   -0.046811
  54 H     1.0000    0     1.008   15.364514  -12.505289    1.634677
  55 H     1.0000    0     1.008   15.368265  -12.491061   -1.726777
  56 C     6.0000    0    12.011   18.507391    4.534457    0.023284
  57 H     1.0000    0     1.008   19.785005    4.511684    1.676599
  58 H     1.0000    0     1.008   19.786844    4.524584   -1.628726
  59 C     6.0000    0    12.011   16.984939    6.994364    0.031999
  60 H     1.0000    0     1.008   15.733014    7.060631   -1.639445
  61 H     1.0000    0     1.008   15.730938    7.047769    1.702331
  62 C     6.0000    0    12.011   18.672988    9.350160    0.042222
  63 H     1.0000    0     1.008   19.929889    9.287659    1.710680
  64 H     1.0000    0     1.008   19.932771    9.300007   -1.624475
  65 C     6.0000    0    12.011   17.174221   11.824391    0.050132
  66 H     1.0000    0     1.008   15.945013   11.959053    1.729877
  67 H     1.0000    0     1.008   15.949281   11.972402   -1.631609
  68 H     1.0000    0     1.008   12.875462  -14.009877   -0.055245
  69 H     1.0000    0     1.008   18.435374   13.481841    0.058331
  70 H     1.0000    0     1.008   20.375965   -0.264748    0.001581
  71 H     1.0000    0     1.008   -2.059565    0.000000    0.000000

--------------------------------
INTERNAL COORDINATES (ANGSTROEM)
--------------------------------
 C      0   0   0     0.000000000000     0.00000000     0.00000000
 C      1   0   0     1.421755125863     0.00000000     0.00000000
 C      2   1   0     1.393587548066   117.50956633     0.00000000
 C      3   2   1     1.412099654702   122.50023886     0.00000000
 C      4   3   2     1.421541933225   120.00457621     0.00000000
 C      5   4   3     1.393499677787   117.49920267     0.00000000
 H      3   2   1     1.089875025922   119.97834764   179.99851249
 H      6   5   4     1.089883378587   119.96690368   179.99830258
 C      2   1   3     1.516450524554   119.72419733   179.98979383
 H      9   2   1     1.105751860753   108.13990962    56.29508473
 H      9   2   1     1.105757409581   108.13784620   303.63801778
 C      9   2   1     1.530859763315   116.94888819   179.96718361
 H     12   9   2     1.105643198133   109.88280862   301.73755999
 H     12   9   2     1.105637306523   109.88783366    58.25144930
 C     12   9   2     1.533680656173   112.57688690   179.99472221
 H     15  12   9     1.105902776014   109.19195697   302.33657758
 H     15  12   9     1.105900736453   109.19064104    57.64227224
 C     15  12   9     1.530759149591   113.18647382   179.98999597
 H     18  15  12     1.103753303677   111.26879051    59.82735572
 H     18  15  12     1.103753155878   111.26860721   300.13013753
 C      5   4   3     1.516593769803   119.74521823   180.00350756
 H     21   5   4     1.105744220264   108.14853558   303.70448678
 H     21   5   4     1.105748195689   108.14926162    56.38190959
 C     21   5   4     1.530875573863   116.91559709   180.04460562
 H     24  21   5     1.105636143848   109.87653840   301.75190064
 H     24  21   5     1.105642048264   109.87078270    58.25462116
 C     24  21   5     1.533645689166   112.62316914   180.00284532
 H     27  24  21     1.105898218702   109.19531117   302.35049715
 H     27  24  21     1.105899140348   109.19672750    57.67877274
 C     27  24  21     1.530793915620   113.17138383   180.01429666
 H     30  27  24     1.103767380117   111.26951412    59.87160325
 H     30  27  24     1.103766647968   111.26926708   300.17418867
 H     18  15  12     1.102125798058   111.52584270   179.97838298
 H     30  27  24     1.102127121293   111.52748807   180.02335743
 C      1   2   3     1.425670247562   120.83930638   180.00161213
 C     35   1   2     1.223920522527   179.73088467   148.93466896
 C     36  35   1     1.425669416201   179.72282987   177.44907711
 C     37  36  35     1.421754900553   120.83935440   213.55838027
 C     38  37  36     1.393587528833   117.50967892   180.00307728
 C     39  38  37     1.412099727355   122.50012715     0.00000000
 C     40  39  38     1.421541144728   120.00455836     0.00000000
 C     41  40  39     1.393499421364   117.49937238     0.00000000
 H     39  38  37     1.089874958501   119.97844791   179.99859762
 H     42  41  40     1.089883271756   119.96705546   180.00388068
 C     38  37  36     1.516450827476   119.72406582     0.00000000
 H     45  38  37     1.105757066500   108.13781994    56.36850699
 H     45  38  37     1.105752275387   108.13987015   303.71151257
 C     45  38  37     1.530859507989   116.94891388   180.03962491
 H     48  45  38     1.105637237747   109.88799599   301.74860618
 H     48  45  38     1.105643179011   109.88263076    58.26249074
 C     48  45  38     1.533680767847   112.57688805   180.00563672
 H     51  48  45     1.105900708185   109.19069679   302.36223135
 H     51  48  45     1.105902863309   109.19187190    57.66791877
 C     51  48  45     1.530759019516   113.18648326   180.01430557
 H     54  51  48     1.103753101996   111.26860300    59.87351041
 H     54  51  48     1.103753313681   111.26879316   300.17628879
 C     41  40  39     1.516594517091   119.74495890   179.99651782
 H     57  41  40     1.105748507046   108.15004548   303.60682436
 H     57  41  40     1.105744179390   108.14773280    56.28436062
 C     57  41  40     1.530875686102   116.91561201   179.94382488
 H     60  57  41     1.105642524973   109.87029987   301.74830187
 H     60  57  41     1.105635648887   109.87692932    58.25094700
 C     60  57  41     1.533645579846   112.62322078   179.99975053
 H     63  60  57     1.105899048476   109.19672272   302.31655579
 H     63  60  57     1.105898356796   109.19530156    57.64482294
 C     63  60  57     1.530793913901   113.17141080   179.98113433
 H     66  63  60     1.103766406355   111.26918423    59.82142853
 H     66  63  60     1.103767571427   111.26960095   300.12402044
 H     54  51  48     1.102125910550   111.52584717   180.02535232
 H     66  63  60     1.102127097310   111.52749589   179.97212892
 H     40  39  38     1.089874957175   121.07160828   180.00152898
 H      4   3   2     1.089874960000   121.07165827   180.00165215

---------------------------
INTERNAL COORDINATES (A.U.)
---------------------------
 C      0   0   0     0.000000000000     0.00000000     0.00000000
 C      1   0   0     2.686727817380     0.00000000     0.00000000
 C      2   1   0     2.633498809488   117.50956633     0.00000000
 C      3   2   1     2.668481621192   122.50023886     0.00000000
 C      4   3   2     2.686324941680   120.00457621     0.00000000
 C      5   4   3     2.633332758724   117.49920267     0.00000000
 H      3   2   1     2.059565319192   119.97834764   179.99851249
 H      6   5   4     2.059581103442   119.96690368   179.99830258
 C      2   1   3     2.865676187048   119.72419733   179.98979383
 H      9   2   1     2.089568188896   108.13990962    56.29508473
 H      9   2   1     2.089578674663   108.13784620   303.63801778
 C      9   2   1     2.892905702105   116.94888819   179.96718361
 H     12   9   2     2.089362846304   109.88280862   301.73755999
 H     12   9   2     2.089351712775   109.88783366    58.25144930
 C     12   9   2     2.898236417060   112.57688690   179.99472221
 H     15  12   9     2.089853377410   109.19195697   302.33657758
 H     15  12   9     2.089849523198   109.19064104    57.64227224
 C     15  12   9     2.892715569722   113.18647382   179.98999597
 H     18  15  12     2.085791463361   111.26879051    59.82735572
 H     18  15  12     2.085791184060   111.26860721   300.13013753
 C      5   4   3     2.865946881340   119.74521823   180.00350756
 H     21   5   4     2.089553750465   108.14853558   303.70448678
 H     21   5   4     2.089561262930   108.14926162    56.38190959
 C     21   5   4     2.892935579710   116.91559709   180.04460562
 H     24  21   5     2.089349515637   109.87653840   301.75190064
 H     24  21   5     2.089360673366   109.87078270    58.25462116
 C     24  21   5     2.898170338993   112.62316914   180.00284532
 H     27  24  21     2.089844765338   109.19531117   302.35049715
 H     27  24  21     2.089846506997   109.19672750    57.67877274
 C     27  24  21     2.892781267995   113.17138383   180.01429666
 H     30  27  24     2.085818063978   111.26951412    59.87160325
 H     30  27  24     2.085816680417   111.26926708   300.17418867
 H     18  15  12     2.082715923458   111.52584270   179.97838298
 H     30  27  24     2.082718424011   111.52748807   180.02335743
 C      1   2   3     2.694126325173   120.83930638   180.00161213
 C     35   1   2     2.312874597262   179.73088467   148.93466896
 C     36  35   1     2.694124754127   179.72282987   177.44907711
 C     37  36  35     2.686727391606   120.83935440   213.55838027
 C     38  37  36     2.633498773143   117.50967892   180.00307728
 C     39  38  37     2.668481758485   122.50012715     0.00000000
 C     40  39  38     2.686323451636   120.00455836     0.00000000
 C     41  40  39     2.633332274155   117.49937238     0.00000000
 H     39  38  37     2.059565191786   119.97844791   179.99859762
 H     42  41  40     2.059580901560   119.96705546   180.00388068
 C     38  37  36     2.865676759489   119.72406582     0.00000000
 H     45  38  37     2.089578026332   108.13781994    56.36850699
 H     45  38  37     2.089568972441   108.13987015   303.71151257
 C     45  38  37     2.892905219609   116.94891388   180.03962491
 H     48  45  38     2.089351582808   109.88799599   301.74860618
 H     48  45  38     2.089362810169   109.88263076    58.26249074
 C     48  45  38     2.898236628093   112.57688805   180.00563672
 H     51  48  45     2.089849469779   109.19069679   302.36223135
 H     51  48  45     2.089853542373   109.19187190    57.66791877
 C     51  48  45     2.892715323915   113.18648326   180.01430557
 H     54  51  48     2.085791082239   111.26860300    59.87351041
 H     54  51  48     2.085791482265   111.26879316   300.17628879
 C     41  40  39     2.865948293509   119.74495890   179.99651782
 H     57  41  40     2.089561851310   108.15004548   303.60682436
 H     57  41  40     2.089553673224   108.14773280    56.28436062
 C     57  41  40     2.892935791812   116.91561201   179.94382488
 H     60  57  41     2.089361574217   109.87029987   301.74830187
 H     60  57  41     2.089348580296   109.87692932    58.25094700
 C     60  57  41     2.898170132407   112.62322078   179.99975053
 H     63  60  57     2.089846333383   109.19672272   302.31655579
 H     63  60  57     2.089845026297   109.19530156    57.64482294
 C     63  60  57     2.892781264746   113.17141080   179.98113433
 H     66  63  60     2.085816223833   111.26918423    59.82142853
 H     66  63  60     2.085818425500   111.26960095   300.12402044
 H     54  51  48     2.082716136039   111.52584717   180.02535232
 H     66  63  60     2.082718378690   111.52749589   179.97212892
 H     40  39  38     2.059565189279   121.07160828   180.00152898
 H      4   3   2     2.059565194618   121.07165827   180.00165215

---------------------
BASIS SET INFORMATION
---------------------
There are 2 groups of distinct atoms

 Group   1 Type C   : 17s4p1d contracted to 3s2p1d pattern {881/31/1}
 Group   2 Type H   : 4s1p contracted to 2s1p pattern {31/1}

Atom   0C    basis set group =>   1
Atom   1C    basis set group =>   1
Atom   2C    basis set group =>   1
Atom   3C    basis set group =>   1
Atom   4C    basis set group =>   1
Atom   5C    basis set group =>   1
Atom   6H    basis set group =>   2
Atom   7H    basis set group =>   2
Atom   8C    basis set group =>   1
Atom   9H    basis set group =>   2
Atom  10H    basis set group =>   2
Atom  11C    basis set group =>   1
Atom  12H    basis set group =>   2
Atom  13H    basis set group =>   2
Atom  14C    basis set group =>   1
Atom  15H    basis set group =>   2
Atom  16H    basis set group =>   2
Atom  17C    basis set group =>   1
Atom  18H    basis set group =>   2
Atom  19H    basis set group =>   2
Atom  20C    basis set group =>   1
Atom  21H    basis set group =>   2
Atom  22H    basis set group =>   2
Atom  23C    basis set group =>   1
Atom  24H    basis set group =>   2
Atom  25H    basis set group =>   2
Atom  26C    basis set group =>   1
Atom  27H    basis set group =>   2
Atom  28H    basis set group =>   2
Atom  29C    basis set group =>   1
Atom  30H    basis set group =>   2
Atom  31H    basis set group =>   2
Atom  32H    basis set group =>   2
Atom  33H    basis set group =>   2
Atom  34C    basis set group =>   1
Atom  35C    basis set group =>   1
Atom  36C    basis set group =>   1
Atom  37C    basis set group =>   1
Atom  38C    basis set group =>   1
Atom  39C    basis set group =>   1
Atom  40C    basis set group =>   1
Atom  41C    basis set group =>   1
Atom  42H    basis set group =>   2
Atom  43H    basis set group =>   2
Atom  44C    basis set group =>   1
Atom  45H    basis set group =>   2
Atom  46H    basis set group =>   2
Atom  47C    basis set group =>   1
Atom  48H    basis set group =>   2
Atom  49H    basis set group =>   2
Atom  50C    basis set group =>   1
Atom  51H    basis set group =>   2
Atom  52H    basis set group =>   2
Atom  53C    basis set group =>   1
Atom  54H    basis set group =>   2
Atom  55H    basis set group =>   2
Atom  56C    basis set group =>   1
Atom  57H    basis set group =>   2
Atom  58H    basis set group =>   2
Atom  59C    basis set group =>   1
Atom  60H    basis set group =>   2
Atom  61H    basis set group =>   2
Atom  62C    basis set group =>   1
Atom  63H    basis set group =>   2
Atom  64H    basis set group =>   2
Atom  65C    basis set group =>   1
Atom  66H    basis set group =>   2
Atom  67H    basis set group =>   2
Atom  68H    basis set group =>   2
Atom  69H    basis set group =>   2
Atom  70H    basis set group =>   2
Atom  71H    basis set group =>   2
---------------------------------
AUXILIARY/J BASIS SET INFORMATION
---------------------------------
There are 2 groups of distinct atoms

 Group   1 Type C   : 12s5p4d2f1g contracted to 6s4p3d1f1g pattern {711111/2111/211/2/1}
 Group   2 Type H   : 5s2p1d contracted to 3s1p1d pattern {311/2/1}

Atom   0C    basis set group =>   1
Atom   1C    basis set group =>   1
Atom   2C    basis set group =>   1
Atom   3C    basis set group =>   1
Atom   4C    basis set group =>   1
Atom   5C    basis set group =>   1
Atom   6H    basis set group =>   2
Atom   7H    basis set group =>   2
Atom   8C    basis set group =>   1
Atom   9H    basis set group =>   2
Atom  10H    basis set group =>   2
Atom  11C    basis set group =>   1
Atom  12H    basis set group =>   2
Atom  13H    basis set group =>   2
Atom  14C    basis set group =>   1
Atom  15H    basis set group =>   2
Atom  16H    basis set group =>   2
Atom  17C    basis set group =>   1
Atom  18H    basis set group =>   2
Atom  19H    basis set group =>   2
Atom  20C    basis set group =>   1
Atom  21H    basis set group =>   2
Atom  22H    basis set group =>   2
Atom  23C    basis set group =>   1
Atom  24H    basis set group =>   2
Atom  25H    basis set group =>   2
Atom  26C    basis set group =>   1
Atom  27H    basis set group =>   2
Atom  28H    basis set group =>   2
Atom  29C    basis set group =>   1
Atom  30H    basis set group =>   2
Atom  31H    basis set group =>   2
Atom  32H    basis set group =>   2
Atom  33H    basis set group =>   2
Atom  34C    basis set group =>   1
Atom  35C    basis set group =>   1
Atom  36C    basis set group =>   1
Atom  37C    basis set group =>   1
Atom  38C    basis set group =>   1
Atom  39C    basis set group =>   1
Atom  40C    basis set group =>   1
Atom  41C    basis set group =>   1
Atom  42H    basis set group =>   2
Atom  43H    basis set group =>   2
Atom  44C    basis set group =>   1
Atom  45H    basis set group =>   2
Atom  46H    basis set group =>   2
Atom  47C    basis set group =>   1
Atom  48H    basis set group =>   2
Atom  49H    basis set group =>   2
Atom  50C    basis set group =>   1
Atom  51H    basis set group =>   2
Atom  52H    basis set group =>   2
Atom  53C    basis set group =>   1
Atom  54H    basis set group =>   2
Atom  55H    basis set group =>   2
Atom  56C    basis set group =>   1
Atom  57H    basis set group =>   2
Atom  58H    basis set group =>   2
Atom  59C    basis set group =>   1
Atom  60H    basis set group =>   2
Atom  61H    basis set group =>   2
Atom  62C    basis set group =>   1
Atom  63H    basis set group =>   2
Atom  64H    basis set group =>   2
Atom  65C    basis set group =>   1
Atom  66H    basis set group =>   2
Atom  67H    basis set group =>   2
Atom  68H    basis set group =>   2
Atom  69H    basis set group =>   2
Atom  70H    basis set group =>   2
Atom  71H    basis set group =>   2


           ************************************************************
           *        Program running with 16 parallel MPI-processes    *
           *              working on a common directory               *
           ************************************************************
------------------------------------------------------------------------------
                           ORCA GTO INTEGRAL CALCULATION
                           -- RI-GTO INTEGRALS CHOSEN --
------------------------------------------------------------------------------
------------------------------------------------------------------------------
                   ___                                                        
                  /   \      - P O W E R E D   B Y -                         
                 /     \                                                     
                 |  |  |   _    _      __       _____    __    __             
                 |  |  |  | |  | |    /  \     |  _  \  |  |  /  |          
                  \  \/   | |  | |   /    \    | | | |  |  | /  /          
                 / \  \   | |__| |  /  /\  \   | |_| |  |  |/  /          
                |  |  |   |  __  | /  /__\  \  |    /   |      \           
                |  |  |   | |  | | |   __   |  |    \   |  |\   \          
                \     /   | |  | | |  |  |  |  | |\  \  |  | \   \       
                 \___/    |_|  |_| |__|  |__|  |_| \__\ |__|  \__/        
                                                                              
                      - O R C A' S   B I G   F R I E N D -                    
                                      &                                       
                       - I N T E G R A L  F E E D E R -                       
                                                                              
 v1 FN, 2020, v2 2021                                                         
------------------------------------------------------------------------------


Reading SHARK input file opt.SHARKINP.tmp ... ok
----------------------
SHARK INTEGRAL PACKAGE
----------------------

Number of atoms                             ...     72
Number of basis functions                   ...    810
Number of shells                            ...    486
Maximum angular momentum                    ...      2
Integral batch strategy                     ... SHARK/LIBINT Hybrid
RI-J (if used) integral strategy            ... SPLIT-RIJ (Revised 2003 algorithm where possible)
Printlevel                                  ...      1
Contraction scheme used                     ... PARTIAL GENERAL contraction
Coulomb Range Separation                    ... NOT USED
Exchange Range Separation                   ... NOT USED
Finite Nucleus Model                        ... NOT USED
Auxiliary Coulomb fitting basis             ... AVAILABLE
   # of basis functions in Aux-J            ...   1932
   # of shells in Aux-J                     ...    660
   Maximum angular momentum in Aux-J        ...      4
Auxiliary J/K fitting basis                 ... NOT available
Auxiliary Correlation fitting basis         ... NOT available
Auxiliary 'external' fitting basis          ... NOT available
Integral threshold                          ...     2.500000e-11
Primitive cut-off                           ...     2.500000e-12
Primitive pair pre-selection threshold      ...     2.500000e-12

Calculating pre-screening integrals         ... done (  0.0 sec) Dimension = 486
Calculating pre-screening integrals (ORCA)  ... done (  0.1 sec) Dimension = 306
Organizing shell pair data                  ... done (  0.3 sec)
Shell pair information
Total number of shell pairs                 ...    118341
Shell pairs after pre-screening             ...     41295
Total number of primitive shell pairs       ...    198981
Primitive shell pairs kept                  ...     56633
          la=0 lb=0:  18356 shell pairs
          la=1 lb=0:  14652 shell pairs
          la=1 lb=1:   2673 shell pairs
          la=2 lb=0:   3972 shell pairs
          la=2 lb=1:   1438 shell pairs
          la=2 lb=2:    204 shell pairs

Calculating one electron integrals          ... done (  0.1 sec)
Calculating RI/J V-Matrix + Cholesky decomp.... done (  0.3 sec)
Calculating Nuclear repulsion               ... done (  0.0 sec) ENN=   2646.135088065168 Eh

SHARK setup successfully completed in   1.6 seconds

Maximum memory used throughout the entire GTOINT-calculation: 57.5 MB


           ************************************************************
           *        Program running with 16 parallel MPI-processes    *
           *              working on a common directory               *
           ************************************************************
-------------------------------------------------------------------------------
                                 ORCA SCF
-------------------------------------------------------------------------------

------------
SCF SETTINGS
------------
Hamiltonian:
 Density Functional     Method          .... DFT(GTOs)
 Exchange Functional    Exchange        .... B88
   X-Alpha parameter    XAlpha          ....  0.666667
   Becke's b parameter  XBeta           ....  0.004200
 Correlation Functional Correlation     .... LYP
 LDA part of GGA corr.  LDAOpt          .... VWN-5
 Gradients option       PostSCFGGA      .... off
 Hybrid DFT is turned on
   Fraction HF Exchange ScalHFX         ....  0.200000
   Scaling of DF-GGA-X  ScalDFX         ....  0.720000
   Scaling of DF-GGA-C  ScalDFC         ....  0.810000
   Scaling of DF-LDA-C  ScalLDAC        ....  1.000000
   Perturbative correction              ....  0.000000
   Density functional embedding theory  .... OFF
   NL short-range parameter             ....  4.800000
 RI-approximation to the Coulomb term is turned on
   Number of AuxJ basis functions       .... 1932
   RIJ-COSX (HFX calculated with COS-X)).... on


General Settings:
 Integral files         IntName         .... opt
 Hartree-Fock type      HFTyp           .... RHF
 Total Charge           Charge          ....    0
 Multiplicity           Mult            ....    1
 Number of Electrons    NEL             ....  222
 Basis Dimension        Dim             ....  630
 Nuclear Repulsion      ENuc            ....   2646.1350880652 Eh

Convergence Acceleration:
 DIIS                   CNVDIIS         .... on
   Start iteration      DIISMaxIt       ....    12
   Startup error        DIISStart       ....  0.200000
   # of expansion vecs  DIISMaxEq       ....     5
   Bias factor          DIISBfac        ....   1.050
   Max. coefficient     DIISMaxC        ....  10.000
 Trust-Rad. Augm. Hess. CNVTRAH         .... auto
   Auto Start mean grad. ratio tolernc. ....  1.125000
   Auto Start start iteration           ....    20
   Auto Start num. interpolation iter.  ....    10
   Max. Number of Micro iterations      ....    16
   Max. Number of Macro iterations      .... Maxiter - #DIIS iter
   Number of Davidson start vectors     ....     2
   Converg. threshold I  (grad. norm)   ....   1.000e-05
   Converg. threshold II (energy diff.) ....   1.000e-08
   Grad. Scal. Fac. for Micro threshold ....   0.100
   Minimum threshold for Micro iter.    ....   0.010
   NR start threshold (gradient norm)   ....   0.001
   Initial trust radius                 ....   0.400
   Minimum AH scaling param. (alpha)    ....   1.000
   Maximum AH scaling param. (alpha)    .... 1000.000
   Orbital update algorithm             .... Taylor
   White noise on init. David. guess    .... on
   Maximum white noise                  ....   0.010
   Quad. conv. algorithm                .... NR
 SOSCF                  CNVSOSCF        .... on
   Start iteration      SOSCFMaxIt      ....   150
   Startup grad/error   SOSCFStart      ....  0.003300
 Level Shifting         CNVShift        .... on
   Level shift para.    LevelShift      ....    0.2500
   Turn off err/grad.   ShiftErr        ....    0.0010
 Zerner damping         CNVZerner       .... off
 Static damping         CNVDamp         .... on
   Fraction old density DampFac         ....    0.7000
   Max. Damping (<1)    DampMax         ....    0.9800
   Min. Damping (>=0)   DampMin         ....    0.0000
   Turn off err/grad.   DampErr         ....    0.1000
 Fernandez-Rico         CNVRico         .... off

SCF Procedure:
 Maximum # iterations   MaxIter         ....   125
 SCF integral mode      SCFMode         .... Direct
   Integral package                     .... SHARK and LIBINT hybrid scheme
 Reset frequency        DirectResetFreq ....    20
 Integral Threshold     Thresh          ....  2.500e-11 Eh
 Primitive CutOff       TCut            ....  2.500e-12 Eh

Convergence Tolerance:
 Convergence Check Mode ConvCheckMode   .... Total+1el-Energy
 Convergence forced     ConvForced      .... 0
 Energy Change          TolE            ....  1.000e-08 Eh
 1-El. energy change                    ....  1.000e-05 Eh
 Orbital Gradient       TolG            ....  1.000e-05
 Orbital Rotation angle TolX            ....  1.000e-05
 DIIS Error             TolErr          ....  5.000e-07


Diagonalization of the overlap matrix:
Smallest eigenvalue                        ... 4.801e-05
Time for diagonalization                   ...    0.112 sec
Threshold for overlap eigenvalues          ... 1.000e-08
Number of eigenvalues below threshold      ... 0
Time for construction of square roots      ...    0.088 sec
Total time needed                          ...    0.202 sec

Time for model grid setup =    0.676 sec

------------------------------
INITIAL GUESS: MODEL POTENTIAL
------------------------------
Loading Hartree-Fock densities                     ... done
Calculating cut-offs                               ... done
Initializing the effective Hamiltonian             ... done
Setting up the integral package (SHARK)            ... done
Starting the Coulomb interaction                   ... done (   0.5 sec)
Reading the grid                                   ... done
Mapping shells                                     ... done
Starting the XC term evaluation                    ... done (   0.1 sec)
  promolecular density results
     # of electrons  =    221.996751866
     EX              =   -166.654027395
     EC              =     -7.243885766
     EX+EC           =   -173.897913162
Transforming the Hamiltonian                       ... done (   0.1 sec)
Diagonalizing the Hamiltonian                      ... done (   0.1 sec)
Back transforming the eigenvectors                 ... done (   0.0 sec)
Now organizing SCF variables                       ... done
                      ------------------
                      INITIAL GUESS DONE (   1.8 sec)
                      ------------------
-------------------
DFT GRID GENERATION
-------------------

General Integration Accuracy     IntAcc      ... 4.388
Radial Grid Type                 RadialGrid  ... OptM3 with GC (2021)
Angular Grid (max. ang.)         AngularGrid ... 4 (Lebedev-302)
Angular grid pruning method      GridPruning ... 4 (adaptive)
Weight generation scheme         WeightScheme... Becke
Basis function cutoff            BFCut       ... 1.0000e-11
Integration weight cutoff        WCut        ... 1.0000e-14
Angular grids for H and He will be reduced by one unit
Partially contracted basis set               ... off
Rotationally invariant grid construction     ... off

Total number of grid points                  ...   312087
Total number of batches                      ...     4914
Average number of points per batch           ...       63
Average number of grid points per atom       ...     4335
Time for grid setup =    2.410 sec

--------------------
COSX GRID GENERATION
--------------------

GRIDX 1
-------
General Integration Accuracy     IntAcc      ... 3.816
Radial Grid Type                 RadialGrid  ... OptM3 with GC (2021)
Angular Grid (max. ang.)         AngularGrid ... 1 (Lebedev-50)
Angular grid pruning method      GridPruning ... 4 (adaptive)
Weight generation scheme         WeightScheme... Becke
Basis function cutoff            BFCut       ... 1.0000e-11
Integration weight cutoff        WCut        ... 1.0000e-14
Angular grids for H and He will be reduced by one unit
Partially contracted basis set               ... on
Rotationally invariant grid construction     ... off

Total number of grid points                  ...    39737
Total number of batches                      ...      665
Average number of points per batch           ...       59
Average number of grid points per atom       ...      552
UseSFitting                                  ... on

GRIDX 2
-------
General Integration Accuracy     IntAcc      ... 4.020
Radial Grid Type                 RadialGrid  ... OptM3 with GC (2021)
Angular Grid (max. ang.)         AngularGrid ... 2 (Lebedev-110)
Angular grid pruning method      GridPruning ... 4 (adaptive)
Weight generation scheme         WeightScheme... Becke
Basis function cutoff            BFCut       ... 1.0000e-11
Integration weight cutoff        WCut        ... 1.0000e-14
Angular grids for H and He will be reduced by one unit
Partially contracted basis set               ... on
Rotationally invariant grid construction     ... off

Total number of grid points                  ...    82940
Total number of batches                      ...     1335
Average number of points per batch           ...       62
Average number of grid points per atom       ...     1152
UseSFitting                                  ... on

GRIDX 3
-------
General Integration Accuracy     IntAcc      ... 4.338
Radial Grid Type                 RadialGrid  ... OptM3 with GC (2021)
Angular Grid (max. ang.)         AngularGrid ... 3 (Lebedev-194)
Angular grid pruning method      GridPruning ... 4 (adaptive)
Weight generation scheme         WeightScheme... Becke
Basis function cutoff            BFCut       ... 1.0000e-11
Integration weight cutoff        WCut        ... 1.0000e-14
Angular grids for H and He will be reduced by one unit
Partially contracted basis set               ... on
Rotationally invariant grid construction     ... off

Total number of grid points                  ...   180463
Total number of batches                      ...     2855
Average number of points per batch           ...       63
Average number of grid points per atom       ...     2506
UseSFitting                                  ... on

Time for X-Grid setup             =    3.960 sec

 re-compute Schwartz prescreening matrix in partically contracted basis (1) ...done (   0.367 sec)
--------------
SCF ITERATIONS
--------------
ITER       Energy         Delta-E        Max-DP      RMS-DP      [F,P]     Damp
               ***  Starting incremental Fock matrix formation  ***
  0  -1166.9187845322   0.000000000000 0.13391619  0.00135872  0.1740304 0.7000
  1  -1167.2783800161  -0.359595483855 0.11785536  0.00106601  0.0917791 0.7000
                               ***Turning on DIIS***
  2  -1167.4355476957  -0.157167679599 0.24706596  0.00204916  0.0352123 0.0000
  3  -1167.6528701705  -0.217322474790 0.05041746  0.00057834  0.0498215 0.0000
  4  -1167.7137560879  -0.060885917464 0.03528959  0.00024914  0.0107104 0.0000
                      *** Initiating the SOSCF procedure ***
                           *** Shutting down DIIS ***
                      *** Re-Reading the Fockian *** 
                      *** Removing any level shift *** 
ITER      Energy       Delta-E        Grad      Rot      Max-DP    RMS-DP
  5  -1167.71726622  -0.0035101323  0.000946  0.000946  0.002871  0.000057
               *** Restarting incremental Fock matrix formation ***
[...]
155:   1468.76   0.000352    1.78  0.000075  (-0.000027 -0.000031  0.008650)
156:   1468.76   0.000554    2.80  0.000118  (-0.000009  0.000054 -0.010848)
157:   1468.84   0.000561    2.84  0.000119  (-0.000040 -0.000021  0.010920)
158:   1468.84   0.003167   16.01  0.000673  ( 0.000041  0.000061 -0.025940)
159:   1470.85   0.000074    0.37  0.000016  (-0.003941  0.000377  0.000003)
160:   1470.87   0.000000    0.00  0.000000  ( 0.000002  0.000001 -0.000005)
161:   1471.12   0.000000    0.00  0.000000  ( 0.000001  0.000001  0.000034)
162:   1471.37   0.000203    1.03  0.000043  ( 0.002200 -0.006190  0.000026)
163:   1483.58   0.000000    0.00  0.000000  (-0.000025 -0.000009  0.000001)
164:   1483.68   0.002966   14.99  0.000624  ( 0.023442  0.008621  0.000052)
165:   1484.01   0.000410    2.07  0.000086  ( 0.008514  0.003698  0.000027)
166:   1484.10   0.000000    0.00  0.000000  ( 0.000001 -0.000000  0.000016)
167:   1521.39   0.000000    0.00  0.000000  (-0.000002 -0.000001 -0.000034)
168:   1531.29   0.014504   73.30  0.002956  (-0.039376 -0.037486 -0.000192)
169:   1598.79   0.000000    0.00  0.000000  (-0.000001 -0.000001 -0.000014)
170:   1603.35   0.001630    8.23  0.000317  ( 0.010841 -0.014128 -0.000080)
171:   1651.35   0.000000    0.00  0.000000  (-0.000003 -0.000001  0.000010)
172:   1655.15   0.005288   26.72  0.000997  ( 0.030577  0.007872  0.000046)
173:   2290.94   0.000000    0.00  0.000000  ( 0.000001  0.000001 -0.000002)
174:   2997.15   0.003277   16.56  0.000341  ( 0.017912  0.004508  0.000126)
175:   2997.17   0.000001    0.00  0.000000  (-0.000267 -0.000068  0.000060)
176:   3001.10   0.000385    1.94  0.000040  (-0.005828 -0.002459 -0.000018)
177:   3001.12   0.000000    0.00  0.000000  (-0.000063 -0.000028  0.000002)
178:   3002.11   0.000015    0.07  0.000002  (-0.001077  0.000616  0.000012)
179:   3002.12   0.001118    5.65  0.000116  ( 0.009359 -0.005353  0.000015)
180:   3002.53   0.000715    3.61  0.000074  (-0.005897  0.006284  0.000021)
181:   3002.70   0.000000    0.00  0.000000  ( 0.000015 -0.000017  0.000017)
182:   3009.64   0.000146    0.74  0.000015  ( 0.003883  0.000271 -0.000056)
183:   3009.64   0.048423  244.71  0.005021  ( 0.070688  0.004907  0.000232)
184:   3010.52   0.006792   34.33  0.000704  (-0.026422  0.002436  0.000009)
185:   3010.57   0.000000    0.00  0.000000  ( 0.000115 -0.000009 -0.000094)
186:   3018.45   0.018977   95.90  0.001962  (-0.025846  0.035971  0.000150)
187:   3018.51   0.000000    0.00  0.000000  (-0.000045  0.000065 -0.000014)
188:   3019.03   0.000004    0.02  0.000000  (-0.000323  0.000528  0.000022)
189:   3019.04   0.010921   55.19  0.001129  ( 0.017480 -0.028693 -0.000071)
190:   3020.78   0.000217    1.09  0.000022  ( 0.000046 -0.000010  0.004730)
191:   3020.78   0.002177   11.00  0.000225  ( 0.000179  0.000117 -0.014994)
192:   3022.62   0.000477    2.41  0.000049  ( 0.000011 -0.000062  0.007019)
193:   3022.65   0.000000    0.00  0.000000  ( 0.000044  0.000007 -0.000045)
194:   3030.24   0.000001    0.00  0.000000  ( 0.000027  0.000002 -0.000303)
195:   3030.24   0.000014    0.07  0.000001  ( 0.000069  0.000009  0.001202)
196:   3031.97   0.000004    0.02  0.000000  (-0.000015  0.000013 -0.000630)
197:   3032.01   0.000000    0.00  0.000000  ( 0.000016  0.000008  0.000004)
198:   3055.19   0.000002    0.01  0.000000  (-0.000050 -0.000012 -0.000454)
199:   3055.21   0.009693   48.98  0.000990  (-0.000015 -0.000171  0.031464)
200:   3056.00   0.000000    0.00  0.000000  ( 0.000080  0.000011  0.000204)
201:   3056.08   0.026780  135.33  0.002735  ( 0.000172  0.000232 -0.052292)
202:   3087.11   0.000001    0.01  0.000000  (-0.000062 -0.000015 -0.000354)
203:   3087.12   0.012411   62.72  0.001255  (-0.000057 -0.000217  0.035419)
204:   3087.70   0.000008    0.04  0.000001  ( 0.000050  0.000002  0.000880)
205:   3087.74   0.032759  165.55  0.003311  ( 0.000163  0.000255 -0.057539)
206:   3093.90   0.000009    0.04  0.000001  ( 0.000715  0.000610  0.000048)
207:   3093.91   0.018996   96.00  0.001916  ( 0.033265  0.028449  0.000235)
208:   3094.51   0.013365   67.54  0.001348  ( 0.029048  0.022449  0.000161)
209:   3094.54   0.000001    0.01  0.000000  ( 0.000298  0.000228  0.000047)
210:   3156.80   0.005409   27.33  0.000535  (-0.021747 -0.007857 -0.000042)
211:   3156.83   0.000000    0.00  0.000000  ( 0.000085  0.000031 -0.000005)
212:   3197.26   0.008900   44.98  0.000869  ( 0.021320 -0.020350 -0.000098)
213:   3197.35   0.000000    0.00  0.000000  (-0.000071  0.000067 -0.000013)
214:   3203.18   0.000002    0.01  0.000000  (-0.000007  0.000460  0.000012)
215:   3203.20   0.001363    6.89  0.000133  (-0.000193  0.011522  0.000065)

* The epsilon (eps) is given for a Dirac delta lineshape.
** The dipole moment derivative (T) already includes vibrational overlap.

The first frequency considered to be a vibration is 6
The total number of vibrations considered is 210


--------------------------
THERMOCHEMISTRY AT 298.15K
--------------------------

Temperature         ... 298.15 K
Pressure            ... 1.00 atm
Total Mass          ... 402.67 AMU

Throughout the following assumptions are being made:
  (1) The electronic state is orbitally nondegenerate
  (2) There are no thermally accessible electronically excited states
  (3) Hindered rotations indicated by low frequency modes are not
      treated as such but are treated as vibrations and this may
      cause some error
  (4) All equations used are the standard statistical mechanics
      equations for an ideal gas
  (5) All vibrations are strictly harmonic

freq.       3.89  E(vib)   ...       0.59 
freq.      12.49  E(vib)   ...       0.57 
freq.      12.99  E(vib)   ...       0.57 
freq.      14.03  E(vib)   ...       0.57 
freq.      30.95  E(vib)   ...       0.55 
freq.      34.27  E(vib)   ...       0.54 
freq.      45.98  E(vib)   ...       0.53 
freq.      49.54  E(vib)   ...       0.52 
freq.      51.67  E(vib)   ...       0.52 
freq.      61.78  E(vib)   ...       0.51 
freq.      66.49  E(vib)   ...       0.50 
freq.      67.34  E(vib)   ...       0.50 
freq.      84.87  E(vib)   ...       0.48 
freq.      92.11  E(vib)   ...       0.47 
freq.     107.32  E(vib)   ...       0.45 
freq.     119.40  E(vib)   ...       0.44 
freq.     119.46  E(vib)   ...       0.44 
freq.     124.87  E(vib)   ...       0.43 
freq.     126.60  E(vib)   ...       0.43 
freq.     127.47  E(vib)   ...       0.43 
freq.     131.60  E(vib)   ...       0.42 
freq.     148.98  E(vib)   ...       0.40 
freq.     160.62  E(vib)   ...       0.39 
freq.     174.29  E(vib)   ...       0.38 
freq.     230.28  E(vib)   ...       0.32 
freq.     231.08  E(vib)   ...       0.32 
freq.     232.43  E(vib)   ...       0.32 
freq.     247.59  E(vib)   ...       0.31 
freq.     250.15  E(vib)   ...       0.31 
freq.     253.84  E(vib)   ...       0.30 
freq.     254.43  E(vib)   ...       0.30 
freq.     275.95  E(vib)   ...       0.28 
freq.     279.02  E(vib)   ...       0.28 
freq.     287.93  E(vib)   ...       0.27 
freq.     312.72  E(vib)   ...       0.25 
freq.     319.92  E(vib)   ...       0.25 
freq.     330.78  E(vib)   ...       0.24 
freq.     336.03  E(vib)   ...       0.24 
freq.     343.63  E(vib)   ...       0.23 
freq.     417.59  E(vib)   ...       0.18 
freq.     436.60  E(vib)   ...       0.17 
freq.     449.21  E(vib)   ...       0.17 
freq.     454.68  E(vib)   ...       0.16 
freq.     466.11  E(vib)   ...       0.16 
freq.     468.70  E(vib)   ...       0.16 
freq.     499.05  E(vib)   ...       0.14 
freq.     541.79  E(vib)   ...       0.12 
freq.     548.91  E(vib)   ...       0.12 
freq.     571.76  E(vib)   ...       0.11 
freq.     589.72  E(vib)   ...       0.10 
freq.     614.39  E(vib)   ...       0.10 
freq.     615.67  E(vib)   ...       0.10 
freq.     622.98  E(vib)   ...       0.09 
freq.     704.46  E(vib)   ...       0.07 
freq.     719.08  E(vib)   ...       0.07 
freq.     721.29  E(vib)   ...       0.07 
freq.     741.28  E(vib)   ...       0.06 
freq.     741.61  E(vib)   ...       0.06 
freq.     755.04  E(vib)   ...       0.06 
freq.     755.60  E(vib)   ...       0.06 
freq.     756.20  E(vib)   ...       0.06 
freq.     779.34  E(vib)   ...       0.05 
freq.     779.91  E(vib)   ...       0.05 
freq.     784.69  E(vib)   ...       0.05 
freq.     800.06  E(vib)   ...       0.05 
freq.     800.32  E(vib)   ...       0.05 
freq.     800.44  E(vib)   ...       0.05 
freq.     843.32  E(vib)   ...       0.04 
freq.     843.32  E(vib)   ...       0.04 
freq.     903.72  E(vib)   ...       0.03 
freq.     907.37  E(vib)   ...       0.03 
freq.     907.89  E(vib)   ...       0.03 
freq.     908.08  E(vib)   ...       0.03 
freq.     909.39  E(vib)   ...       0.03 
freq.     910.16  E(vib)   ...       0.03 
freq.     924.70  E(vib)   ...       0.03 
freq.     936.98  E(vib)   ...       0.03 
freq.     937.40  E(vib)   ...       0.03 
freq.     949.62  E(vib)   ...       0.03 
freq.     949.81  E(vib)   ...       0.03 
freq.     978.99  E(vib)   ...       0.03 
freq.     979.02  E(vib)   ...       0.03 
freq.     989.13  E(vib)   ...       0.02 
freq.    1031.58  E(vib)   ...       0.02 
freq.    1031.59  E(vib)   ...       0.02 
freq.    1033.42  E(vib)   ...       0.02 
freq.    1034.21  E(vib)   ...       0.02 
freq.    1071.41  E(vib)   ...       0.02 
freq.    1071.43  E(vib)   ...       0.02 
freq.    1073.96  E(vib)   ...       0.02 
freq.    1074.34  E(vib)   ...       0.02 
freq.    1095.50  E(vib)   ...       0.02 
freq.    1106.41  E(vib)   ...       0.02 
freq.    1114.64  E(vib)   ...       0.01 
freq.    1118.59  E(vib)   ...       0.01 
freq.    1120.07  E(vib)   ...       0.01 
freq.    1120.41  E(vib)   ...       0.01 
freq.    1121.73  E(vib)   ...       0.01 
freq.    1122.87  E(vib)   ...       0.01 
freq.    1123.37  E(vib)   ...       0.01 
freq.    1146.08  E(vib)   ...       0.01 
freq.    1171.81  E(vib)   ...       0.01 
freq.    1189.77  E(vib)   ...       0.01 
freq.    1208.41  E(vib)   ...       0.01 
freq.    1209.50  E(vib)   ...       0.01 
freq.    1227.50  E(vib)   ...       0.01 
freq.    1233.28  E(vib)   ...       0.01 
freq.    1233.41  E(vib)   ...       0.01 
freq.    1233.98  E(vib)   ...       0.01 
freq.    1234.24  E(vib)   ...       0.01 
freq.    1259.49  E(vib)   ...       0.01 
freq.    1266.86  E(vib)   ...       0.01 
freq.    1266.99  E(vib)   ...       0.01 
freq.    1268.60  E(vib)   ...       0.01 
freq.    1293.46  E(vib)   ...       0.01 
freq.    1294.23  E(vib)   ...       0.01 
freq.    1307.37  E(vib)   ...       0.01 
freq.    1307.69  E(vib)   ...       0.01 
freq.    1308.50  E(vib)   ...       0.01 
freq.    1308.51  E(vib)   ...       0.01 
freq.    1310.87  E(vib)   ...       0.01 
freq.    1321.57  E(vib)   ...       0.01 
freq.    1321.64  E(vib)   ...       0.01 
freq.    1322.29  E(vib)   ...       0.01 
freq.    1322.33  E(vib)   ...       0.01 
freq.    1329.41  E(vib)   ...       0.01 
freq.    1343.44  E(vib)   ...       0.01 
freq.    1356.49  E(vib)   ...       0.01 
freq.    1362.09  E(vib)   ...       0.01 
freq.    1367.18  E(vib)   ...       0.01 
freq.    1368.44  E(vib)   ...       0.01 
freq.    1392.93  E(vib)   ...       0.00 
freq.    1398.19  E(vib)   ...       0.00 
freq.    1398.44  E(vib)   ...       0.00 
freq.    1398.75  E(vib)   ...       0.00 
freq.    1398.87  E(vib)   ...       0.00 
freq.    1399.79  E(vib)   ...       0.00 
freq.    1400.91  E(vib)   ...       0.00 
freq.    1400.99  E(vib)   ...       0.00 
freq.    1426.69  E(vib)   ...       0.00 
freq.    1440.87  E(vib)   ...       0.00 
freq.    1444.65  E(vib)   ...       0.00 
freq.    1445.63  E(vib)   ...       0.00 
freq.    1449.24  E(vib)   ...       0.00 
freq.    1458.26  E(vib)   ...       0.00 
freq.    1459.61  E(vib)   ...       0.00 
freq.    1459.68  E(vib)   ...       0.00 
freq.    1460.76  E(vib)   ...       0.00 
freq.    1460.78  E(vib)   ...       0.00 
freq.    1468.76  E(vib)   ...       0.00 
freq.    1468.76  E(vib)   ...       0.00 
freq.    1468.84  E(vib)   ...       0.00 
freq.    1468.84  E(vib)   ...       0.00 
freq.    1470.85  E(vib)   ...       0.00 
freq.    1470.87  E(vib)   ...       0.00 
freq.    1471.12  E(vib)   ...       0.00 
freq.    1471.37  E(vib)   ...       0.00 
freq.    1483.58  E(vib)   ...       0.00 
freq.    1483.68  E(vib)   ...       0.00 
freq.    1484.01  E(vib)   ...       0.00 
freq.    1484.10  E(vib)   ...       0.00 
freq.    1521.39  E(vib)   ...       0.00 
freq.    1531.29  E(vib)   ...       0.00 
freq.    1598.79  E(vib)   ...       0.00 
freq.    1603.35  E(vib)   ...       0.00 
freq.    1651.35  E(vib)   ...       0.00 
freq.    1655.15  E(vib)   ...       0.00 
freq.    2290.94  E(vib)   ...       0.00 
freq.    2997.15  E(vib)   ...       0.00 
freq.    2997.17  E(vib)   ...       0.00 
freq.    3001.10  E(vib)   ...       0.00 
freq.    3001.12  E(vib)   ...       0.00 
freq.    3002.11  E(vib)   ...       0.00 
freq.    3002.12  E(vib)   ...       0.00 
freq.    3002.53  E(vib)   ...       0.00 
freq.    3002.70  E(vib)   ...       0.00 
freq.    3009.64  E(vib)   ...       0.00 
freq.    3009.64  E(vib)   ...       0.00 
freq.    3010.52  E(vib)   ...       0.00 
freq.    3010.57  E(vib)   ...       0.00 
freq.    3018.45  E(vib)   ...       0.00 
freq.    3018.51  E(vib)   ...       0.00 
freq.    3019.03  E(vib)   ...       0.00 
freq.    3019.04  E(vib)   ...       0.00 
freq.    3020.78  E(vib)   ...       0.00 
freq.    3020.78  E(vib)   ...       0.00 
freq.    3022.62  E(vib)   ...       0.00 
freq.    3022.65  E(vib)   ...       0.00 
freq.    3030.24  E(vib)   ...       0.00 
freq.    3030.24  E(vib)   ...       0.00 
freq.    3031.97  E(vib)   ...       0.00 
freq.    3032.01  E(vib)   ...       0.00 
freq.    3055.19  E(vib)   ...       0.00 
freq.    3055.21  E(vib)   ...       0.00 
freq.    3056.00  E(vib)   ...       0.00 
freq.    3056.08  E(vib)   ...       0.00 
freq.    3087.11  E(vib)   ...       0.00 
freq.    3087.12  E(vib)   ...       0.00 
freq.    3087.70  E(vib)   ...       0.00 
freq.    3087.74  E(vib)   ...       0.00 
freq.    3093.90  E(vib)   ...       0.00 
freq.    3093.91  E(vib)   ...       0.00 
freq.    3094.51  E(vib)   ...       0.00 
freq.    3094.54  E(vib)   ...       0.00 
freq.    3156.80  E(vib)   ...       0.00 
freq.    3156.83  E(vib)   ...       0.00 
freq.    3197.26  E(vib)   ...       0.00 
freq.    3197.35  E(vib)   ...       0.00 
freq.    3203.18  E(vib)   ...       0.00 
freq.    3203.20  E(vib)   ...       0.00 

------------
INNER ENERGY
------------

The inner energy is: U= E(el) + E(ZPE) + E(vib) + E(rot) + E(trans)
    E(el)   - is the total energy from the electronic structure calculation
              = E(kin-el) + E(nuc-el) + E(el-el) + E(nuc-nuc)
    E(ZPE)  - the the zero temperature vibrational energy from the frequency calculation
    E(vib)  - the the finite temperature correction to E(ZPE) due to population
              of excited vibrational states
    E(rot)  - is the rotational thermal energy
    E(trans)- is the translational thermal energy

Summary of contributions to the inner energy U:
Electronic energy                ...  -1167.71970129 Eh
Zero point energy                ...      0.63941224 Eh     401.24 kcal/mol
Thermal vibrational correction   ...      0.03143615 Eh      19.73 kcal/mol
Thermal rotational correction    ...      0.00141627 Eh       0.89 kcal/mol
Thermal translational correction ...      0.00141627 Eh       0.89 kcal/mol
-----------------------------------------------------------------------
Total thermal energy                  -1167.04602036 Eh


Summary of corrections to the electronic energy:
(perhaps to be used in another calculation)
Total thermal correction                  0.03426869 Eh      21.50 kcal/mol
Non-thermal (ZPE) correction              0.63941224 Eh     401.24 kcal/mol
-----------------------------------------------------------------------
Total correction                          0.67368092 Eh     422.74 kcal/mol


--------
ENTHALPY
--------

The enthalpy is H = U + kB*T
                kB is Boltzmann's constant
Total free energy                 ...  -1167.04602036 Eh 
Thermal Enthalpy correction       ...      0.00094421 Eh       0.59 kcal/mol
-----------------------------------------------------------------------
Total Enthalpy                    ...  -1167.04507615 Eh


Note: Only C1 symmetry has been detected, increase convergence thresholds 
      if your molecule has a higher symmetry. Symmetry factor of 1.0 is   
      used for the rotational entropy correction. 
 

Note: Rotational entropy computed according to Herzberg 
Infrared and Raman Spectra, Chapter V,1, Van Nostrand Reinhold, 1945 
Point Group:  C1, Symmetry Number:   1  
Rotational constants in cm-1:     0.004045     0.002673     0.001617 

Vibrational entropy computed according to the QRRHO of S. Grimme
Chem.Eur.J. 2012 18 9955


-------
ENTROPY
-------

The entropy contributions are T*S = T*(S(el)+S(vib)+S(rot)+S(trans))
     S(el)   - electronic entropy
     S(vib)  - vibrational entropy
     S(rot)  - rotational entropy
     S(trans)- translational entropy
The entropies will be listed as multiplied by the temperature to get
units of energy

Electronic entropy                ...      0.00000000 Eh      0.00 kcal/mol
Vibrational entropy               ...      0.05931498 Eh     37.22 kcal/mol
Rotational entropy                ...      0.01794321 Eh     11.26 kcal/mol
Translational entropy             ...      0.02084402 Eh     13.08 kcal/mol
-----------------------------------------------------------------------
Final entropy term                ...      0.09810221 Eh     61.56 kcal/mol

In case the symmetry of your molecule has not been determined correctly
or in case you have a reason to use a different symmetry number we print 
out the resulting rotational entropy values for sn=1,12 :
 --------------------------------------------------------
|  sn= 1 | S(rot)=       0.01794321 Eh     11.26 kcal/mol|
|  sn= 2 | S(rot)=       0.01728875 Eh     10.85 kcal/mol|
|  sn= 3 | S(rot)=       0.01690592 Eh     10.61 kcal/mol|
|  sn= 4 | S(rot)=       0.01663430 Eh     10.44 kcal/mol|
|  sn= 5 | S(rot)=       0.01642361 Eh     10.31 kcal/mol|
|  sn= 6 | S(rot)=       0.01625146 Eh     10.20 kcal/mol|
|  sn= 7 | S(rot)=       0.01610592 Eh     10.11 kcal/mol|
|  sn= 8 | S(rot)=       0.01597984 Eh     10.03 kcal/mol|
|  sn= 9 | S(rot)=       0.01586863 Eh      9.96 kcal/mol|
|  sn=10 | S(rot)=       0.01576915 Eh      9.90 kcal/mol|
|  sn=11 | S(rot)=       0.01567916 Eh      9.84 kcal/mol|
|  sn=12 | S(rot)=       0.01559701 Eh      9.79 kcal/mol|
 --------------------------------------------------------


-------------------
GIBBS FREE ENERGY
-------------------

The Gibbs free energy is G = H - T*S

Total enthalpy                    ...  -1167.04507615 Eh 
Total entropy correction          ...     -0.09810221 Eh    -61.56 kcal/mol
-----------------------------------------------------------------------
Final Gibbs free energy         ...  -1167.14317836 Eh

For completeness - the Gibbs free energy minus the electronic energy
G-E(el)                           ...      0.57652293 Eh    361.77 kcal/mol


Timings for individual modules:

Sum of individual times         ...     2873.194 sec (=  47.887 min)
GTO integral calculation        ...       31.814 sec (=   0.530 min)   1.1 %
SCF iterations                  ...      843.791 sec (=  14.063 min)  29.4 %
SCF Gradient evaluation         ...      209.287 sec (=   3.488 min)   7.3 %
Geometry relaxation             ...       13.393 sec (=   0.223 min)   0.5 %
Analytical frequency calculation...     1774.908 sec (=  29.582 min)  61.8 %
                             ****ORCA TERMINATED NORMALLY****
TOTAL RUN TIME: 0 days 0 hours 48 minutes 31 seconds 21 msec
