
                                 *****************
                                 * O   R   C   A *
                                 *****************

           --- An Ab Initio, DFT and Semiempirical electronic structure package ---

                  #######################################################
                  #                        -***-                        #
                  #          Department of theory and spectroscopy      #
                  #               Directorship: Frank Neese             #
                  #        Max Planck Institute fuer Kohlenforschung    #
                  #                Kaiser Wilhelm Platz 1               #
                  #                 D-45470 Muelheim/Ruhr               #
                  #                      Germany                        #
                  #                                                     #
                  #                  All rights reserved                #
                  #                        -***-                        #
                  #######################################################


                         Program Version 4.2.1 -  RELEASE  -


 With contributions from (in alphabetic order):
   Daniel Aravena         : Magnetic Suceptibility
   Michael Atanasov       : Ab Initio Ligand Field Theory (pilot matlab implementation)
   Alexander A. Auer      : GIAO ZORA, VPT2
   Ute Becker             : Parallelization
   Giovanni Bistoni       : ED, misc. LED, open-shell LED, HFLD
   Martin Brehm           : Molecular dynamics
   Dmytro Bykov           : SCF Hessian
   Vijay G. Chilkuri      : MRCI spin determinant printing, contributions to CSF-ICE
   Dipayan Datta          : RHF DLPNO-CCSD density
   Achintya Kumar Dutta   : EOM-CC, STEOM-CC
   Dmitry Ganyushin       : Spin-Orbit,Spin-Spin,Magnetic field MRCI
   Miquel Garcia          : C-PCM Hessian, Gaussian charge scheme
   Yang Guo               : DLPNO-NEVPT2, CIM, IAO-localization
   Andreas Hansen         : Spin unrestricted coupled pair/coupled cluster methods
   Benjamin Helmich-Paris : CASSCF linear response (MC-RPA)
   Lee Huntington         : MR-EOM, pCC
   Robert Izsak           : Overlap fitted RIJCOSX, COSX-SCS-MP3, EOM
   Christian Kollmar      : KDIIS, OOCD, Brueckner-CCSD(T), CCSD density
   Simone Kossmann        : Meta GGA functionals, TD-DFT gradient, OOMP2, MP2 Hessian
   Martin Krupicka        : AUTO-CI
   Lucas Lang             : DCDCAS
   Dagmar Lenk            : GEPOL surface, SMD
   Dimitrios Liakos       : Extrapolation schemes; Compound Job, initial MDCI parallelization
   Dimitrios Manganas     : Further ROCIS development; embedding schemes
   Dimitrios Pantazis     : SARC Basis sets
   Taras Petrenko         : DFT Hessian,TD-DFT gradient, ASA, ECA, R-Raman, ABS, FL, XAS/XES, NRVS
   Peter Pinski           : DLPNO-MP2, DLPNO-MP2 Gradient
   Christoph Reimann      : Effective Core Potentials
   Marius Retegan         : Local ZFS, SOC
   Christoph Riplinger    : Optimizer, TS searches, QM/MM, DLPNO-CCSD(T), (RO)-DLPNO pert. Triples
   Tobias Risthaus        : Range-separated hybrids, TD-DFT gradient, RPA, STAB
   Michael Roemelt        : Original ROCIS implementation
   Masaaki Saitow         : Open-shell DLPNO-CCSD energy and density
   Barbara Sandhoefer     : DKH picture change effects
   Avijit Sen             : IP-ROCIS
   Kantharuban Sivalingam : CASSCF convergence, NEVPT2, FIC-MRCI
   Bernardo de Souza      : ESD, SOC TD-DFT
   Georgi Stoychev        : AutoAux, RI-MP2 NMR
   Willem Van den Heuvel  : Paramagnetic NMR
   Boris Wezisla          : Elementary symmetry handling
   Frank Wennmohs         : Technical directorship


 We gratefully acknowledge several colleagues who have allowed us to
 interface, adapt or use parts of their codes:
   Stefan Grimme, W. Hujo, H. Kruse,             : VdW corrections, initial TS optimization,
                  C. Bannwarth                     DFT functionals, gCP, sTDA/sTD-DF
   Ed Valeev, F. Pavosevic, A. Kumar             : LibInt (2-el integral package), F12 methods
   Garnet Chan, S. Sharma, J. Yang, R. Olivares  : DMRG
   Ulf Ekstrom                                   : XCFun DFT Library
   Mihaly Kallay                                 : mrcc  (arbitrary order and MRCC methods)
   Andreas Klamt, Michael Diedenhofen            : otool_cosmo (COSMO solvation model)
   Jiri Pittner, Ondrej Demel                    : Mk-CCSD
   Frank Weinhold                                : gennbo (NPA and NBO analysis)
   Christopher J. Cramer and Donald G. Truhlar   : smd solvation model
   Lars Goerigk                                  : TD-DFT with DH, B97 family of functionals
   V. Asgeirsson, H. Jonsson                     : NEB implementation
   FAccTs GmbH                                   : IRC, NEB, NEB-TS, Multilevel, MM, QM/MM, CI optimization
   S Lehtola, MJT Oliveira, MAL Marques          : LibXC Library


 Your calculation uses the libint2 library for the computation of 2-el integrals
 For citations please refer to: http://libint.valeyev.net

 Your ORCA version has been built with support for libXC version: 4.2.3
 For citations please refer to: https://tddft.org/programs/libxc/

 This ORCA versions uses:
   CBLAS   interface :  Fast vector & matrix operations
   LAPACKE interface :  Fast linear algebra routines
   SCALAPACK package :  Parallel linear algebra routines




***************************************
The coordinates will be read from file: opt.xyz
***************************************


----- Orbital basis set information -----
Your calculation utilizes the basis: EPR-II
   V. Barone, in Recent Advances in Density Functional Methods, Part 1 (ed. D. P. Chong), World Scientific, Singapore, 1995, p. 287.

----- AuxJ basis set information -----
Your calculation utilizes the AutoAux generation procedure.
  G. L. Stoychev, A. A. Auer, F. Neese, J. Chem. Theory Comput. 13, 554 (2017)

----- AuxC basis set information -----
Your calculation utilizes the AutoAux generation procedure.
  G. L. Stoychev, A. A. Auer, F. Neese, J. Chem. Theory Comput. 13, 554 (2017)

----- AuxJK basis set information -----
Your calculation utilizes the AutoAux generation procedure.
  G. L. Stoychev, A. A. Auer, F. Neese, J. Chem. Theory Comput. 13, 554 (2017)

================================================================================
                                        WARNINGS
                       Please study these warnings very carefully!
================================================================================


WARNING: your system is open-shell and RHF/RKS was chosen
  ===> : WILL SWITCH to UHF/UKS


INFO   : the flag for use of LIBINT has been found!

================================================================================
                                       INPUT FILE
================================================================================
NAME = g-tensor_EPRII.inp
|  1> ! B3LYP EPR-II AUTOAUX
|  2> %pal nprocs 16 end
|  3> *XYZFile 0 2 opt.xyz
|  4> %EPRNMR
|  5>         GTENSOR   TRUE
|  6>         NUCLEI    = ALL H {AISO, ADIP, AORB}
|  7> END
|  8> 
|  9>                          ****END OF INPUT****
================================================================================

                       ****************************
                       * Single Point Calculation *
                       ****************************

---------------------------------
CARTESIAN COORDINATES (ANGSTROEM)
---------------------------------
  C     -4.059408   -0.122213   -0.002174
  C     -2.837336   -0.050494   -0.000179
  C      2.839203    0.027272    0.000510
  C     -1.418074    0.005066    0.000148
  C     -0.716102    1.269265   -0.002866
  C      0.705740    1.207940   -0.002662
  C      1.411057    0.001829    0.000453
  C      0.705866   -1.245361    0.003520
  C     -0.688004   -1.200077    0.003370
  H      1.277031    2.136393   -0.004922
  H     -1.257013   -2.129589    0.005595
  C     -1.405585    2.500624   -0.005602
  H     -2.498389    2.461116   -0.005185
  C     -0.754044    3.851057   -0.008468
  H     -0.083548    3.951220    0.870291
  H     -0.081893    3.946772   -0.886448
  C     -1.755767    5.012656   -0.012321
  H     -2.413289    4.917358   -0.896170
  H     -2.415159    4.921675    0.870597
  C     -1.083525    6.386501   -0.014965
  H     -0.442337    6.517574   -0.903998
  H     -0.444160    6.521890    0.874729
  C      1.486166   -2.543568    0.006452
  H      2.164723   -2.540582   -0.867702
  H      2.164063   -2.537147    0.881106
  C      0.674082   -3.841117    0.008575
  H      0.010558   -3.867439    0.893056
  H      0.011127   -3.870579   -0.876232
  C      1.560547   -5.091929    0.011000
  H      2.227183   -5.067476   -0.871585
  H      2.226256   -5.064736    0.894207
  C      0.760876   -6.396654    0.012590
  H      0.111515   -6.470081   -0.877169
  H      0.110397   -6.467238    0.901767
  C      4.061115    0.054591    0.001636
  H     -1.827769    7.198951   -0.017720
  H      1.423925   -7.276837    0.014424
  C      5.488861    0.089015    0.001505
  C      6.178651    1.321015   -0.011309
  C      7.572806    1.349364   -0.011531
  C      8.304688    0.156569    0.000994
  C      7.631098   -1.070145    0.013804
  C      6.237240   -1.108406    0.014112
  H      9.397194    0.183123    0.000796
  H      8.196790   -2.004959    0.023768
  H      5.605954    2.250294   -0.021264
  H      5.709962   -2.064326    0.024292
  H      8.093261    2.310162   -0.021708
  C     -5.482915   -0.211234   -0.002975
  C     -6.279610    0.955478   -0.019872
  C     -7.670625    0.861632   -0.020449
  C     -8.295228   -0.390821   -0.004263
  C     -7.516015   -1.553428    0.012521
  C     -6.124425   -1.470007    0.013201
  H     -9.385790   -0.461156   -0.004809
  H     -7.997918   -2.534163    0.025380
  H     -5.791674    1.932007   -0.032786
  H     -5.515560   -2.375894    0.026514
  H     -8.272734    1.773348   -0.033778

----------------------------
CARTESIAN COORDINATES (A.U.)
----------------------------
  NO LB      ZA    FRAG     MASS         X           Y           Z
   0 C     6.0000    0    12.011   -7.671170   -0.230949   -0.004109
   1 C     6.0000    0    12.011   -5.361787   -0.095419   -0.000338
   2 C     6.0000    0    12.011    5.365316    0.051536    0.000964
   3 C     6.0000    0    12.011   -2.679772    0.009573    0.000279
   4 C     6.0000    0    12.011   -1.353236    2.398563   -0.005417
   5 C     6.0000    0    12.011    1.333655    2.282677   -0.005030
   6 C     6.0000    0    12.011    2.666512    0.003456    0.000857
   7 C     6.0000    0    12.011    1.333893   -2.353391    0.006651
   8 C     6.0000    0    12.011   -1.300140   -2.267817    0.006367
   9 H     1.0000    0     1.008    2.413238    4.037197   -0.009301
  10 H     1.0000    0     1.008   -2.375410   -4.024339    0.010573
  11 C     6.0000    0    12.011   -2.656170    4.725495   -0.010586
  12 H     1.0000    0     1.008   -4.721271    4.650835   -0.009798
  13 C     6.0000    0    12.011   -1.424937    7.277443   -0.016001
  14 H     1.0000    0     1.008   -0.157883    7.466724    1.644611
  15 H     1.0000    0     1.008   -0.154755    7.458318   -1.675143
  16 C     6.0000    0    12.011   -3.317918    9.472546   -0.023284
  17 H     1.0000    0     1.008   -4.560456    9.292460   -1.693515
  18 H     1.0000    0     1.008   -4.563989    9.300618    1.645189
  19 C     6.0000    0    12.011   -2.047566   12.068738   -0.028280
  20 H     1.0000    0     1.008   -0.835896   12.316431   -1.708309
  21 H     1.0000    0     1.008   -0.839341   12.324586    1.652998
  22 C     6.0000    0    12.011    2.808446   -4.806647    0.012192
  23 H     1.0000    0     1.008    4.090733   -4.801005   -1.639719
  24 H     1.0000    0     1.008    4.089487   -4.794513    1.665050
  25 C     6.0000    0    12.011    1.273831   -7.258660    0.016205
  26 H     1.0000    0     1.008    0.019952   -7.308401    1.687632
  27 H     1.0000    0     1.008    0.021026   -7.314335   -1.655839
  28 C     6.0000    0    12.011    2.949007   -9.622351    0.020788
  29 H     1.0000    0     1.008    4.208767   -9.576141   -1.647057
  30 H     1.0000    0     1.008    4.207014   -9.570964    1.689806
  31 C     6.0000    0    12.011    1.437847  -12.087924    0.023792
  32 H     1.0000    0     1.008    0.210733  -12.226682   -1.657609
  33 H     1.0000    0     1.008    0.208620  -12.221308    1.704093
  34 C     6.0000    0    12.011    7.674394    0.103162    0.003091
  35 H     1.0000    0     1.008   -3.453983   13.604046   -0.033487
  36 H     1.0000    0     1.008    2.690828  -13.751228    0.027257
  37 C     6.0000    0    12.011   10.372444    0.168215    0.002843
  38 C     6.0000    0    12.011   11.675958    2.496357   -0.021370
  39 C     6.0000    0    12.011   14.310530    2.549928   -0.021790
  40 C     6.0000    0    12.011   15.693587    0.295872    0.001879
  41 C     6.0000    0    12.011   14.420686   -2.022280    0.026086
  42 C     6.0000    0    12.011   11.786675   -2.094584    0.026669
  43 H     1.0000    0     1.008   17.758123    0.346052    0.001505
  44 H     1.0000    0     1.008   15.489689   -3.788824    0.044915
  45 H     1.0000    0     1.008   10.593717    4.252440   -0.040184
  46 H     1.0000    0     1.008   10.790264   -3.901011    0.045906
  47 H     1.0000    0     1.008   15.294046    4.365574   -0.041023
  48 C     6.0000    0    12.011  -10.361208   -0.399175   -0.005622
  49 C     6.0000    0    12.011  -11.866744    1.805593   -0.037552
  50 C     6.0000    0    12.011  -14.495380    1.628249   -0.038643
  51 C     6.0000    0    12.011  -15.675710   -0.738545   -0.008055
  52 C     6.0000    0    12.011  -14.203210   -2.935554    0.023661
  53 C     6.0000    0    12.011  -11.573485   -2.777910    0.024947
  54 H     1.0000    0     1.008  -17.736573   -0.871458   -0.009088
  55 H     1.0000    0     1.008  -15.113875   -4.788874    0.047961
  56 H     1.0000    0     1.008  -10.944677    3.650965   -0.061957
  57 H     1.0000    0     1.008  -10.422898   -4.489789    0.050104
  58 H     1.0000    0     1.008  -15.633201    3.351142   -0.063831

--------------------------------
INTERNAL COORDINATES (ANGSTROEM)
--------------------------------
 C      0   0   0     0.000000000000     0.00000000     0.00000000
 C      1   0   0     1.224177129800     0.00000000     0.00000000
 C      2   1   0     5.677070947225   177.42478506     0.00000000
 C      2   1   3     1.420348184851   178.88028577     2.18456320
 C      4   2   1     1.446020013271   121.28381404   175.74467207
 C      5   4   2     1.423163751429   116.57238858   180.01905613
 C      6   5   4     1.397207188516   122.78808755     0.00000000
 C      7   6   5     1.432754504484   120.19676775     0.00000000
 C      8   7   6     1.394605523987   117.62405120     0.00000000
 H      6   5   4     1.090138589729   119.13486737   179.99706087
 H      9   8   7     1.089847419171   119.61239772   179.99644926
 C      5   4   2     1.411254905955   121.71195836     0.03125966
 H     12   5   4     1.093518417307   117.17539963     0.00000000
 C     12   5   4     1.499393743752   124.99825165   179.98414614
 H     14  12   5     1.109870994803   110.01587267   302.56197747
 H     14  12   5     1.109863916218   110.01987203    57.33132334
 C     14  12   5     1.533875385248   113.47101452   179.94951282
 H     17  14  12     1.105715039870   108.97108716   302.33577277
 H     17  14  12     1.105721170211   108.97378173    57.64110808
 C     17  14  12     1.529498843401   113.15365703   179.98927490
 H     20  17  14     1.103939576264   111.30429523    59.85160565
 H     20  17  14     1.103935252226   111.30442352   300.14929645
 C      8   7   6     1.514667739137   119.50687896   179.98162105
 H     23   8   7     1.106613815466   108.18266048   303.76401508
 H     23   8   7     1.106619488523   108.18808133    56.31232131
 C     23   8   7     1.530724957932   116.95094416   180.04535526
 H     26  23   8     1.106012335103   109.84984507   301.73500471
 H     26  23   8     1.106012017420   109.84466317    58.23717894
 C     26  23   8     1.533086534890   112.63365430   179.98102664
 H     29  26  23     1.106326619511   109.21554481   302.33542034
 H     29  26  23     1.106327747116   109.21670915    57.70731293
 C     29  26  23     1.530289170176   113.17012177   180.02235752
 H     32  29  26     1.103962309690   111.29973343    59.86263315
 H     32  29  26     1.103965935167   111.30012344   300.14827235
 C      3   2   1     1.222217654462   179.50196511   183.35548301
 H     20  17  14     1.101808501874   111.43578936   179.99915654
 H     32  29  26     1.101979365955   111.50475953   180.00590481
 C     35   3   7     1.428161597767   179.88403587   318.97794840
 C     38  35   3     1.412018936918   120.62406831    29.43316501
 C     39  38  35     1.394443499305   120.40781375   180.00710298
 C     40  39  38     1.399488254418   120.36637333     0.00000000
 C     41  40  39     1.399540592333   119.69878181     0.00000000
 C     42  41  40     1.394383326731   120.34235250     0.00000000
 H     41  40  39     1.092828173976   120.13892845   180.00129787
 H     42  41  40     1.092696410913   120.05177221   180.00897912
 H     39  38  35     1.091623100406   119.11382209     0.00000000
 H     43  42  41     1.091745697488   120.45182331   180.01203973
 H     40  39  38     1.092753765764   119.60748598   179.98890516
 C      1   2   4     1.426288003056   179.77183891    19.67209066
 C     49   1   2     1.412878990788   120.74697173   165.21235295
 C     50  49   1     1.394176332077   120.46564516   180.00534014
 C     51  50  49     1.399654005723   120.36272996     0.00000000
 C     52  51  50     1.399682519696   119.66783989     0.00000000
 C     53  52  51     1.394088738255   120.39851265     0.00000000
 H     52  51  50     1.092827639962   120.19312748   180.00300388
 H     53  52  51     1.092811054348   120.00542106   179.98939860
 H     50  49   1     1.091722467245   119.12769771     0.02392820
 H     54  53  52     1.091570091699   120.47310401   179.98582600
 H     51  50  49     1.092674874219   119.57953899   180.00918265

---------------------------
INTERNAL COORDINATES (A.U.)
---------------------------
 C      0   0   0     0.000000000000     0.00000000     0.00000000
 C      1   0   0     2.313359514733     0.00000000     0.00000000
 C      2   1   0    10.728109333097   177.42478506     0.00000000
 C      2   1   3     2.684069084181   178.88028577     2.18456320
 C      4   2   1     2.732581809251   121.28381404   175.74467207
 C      5   4   2     2.689389733925   116.57238858   180.01905613
 C      6   5   4     2.640338938642   122.78808755     0.00000000
 C      7   6   5     2.707513630617   120.19676775     0.00000000
 C      8   7   6     2.635422505189   117.62405120     0.00000000
 H      6   5   4     2.060063382606   119.13486737   179.99706087
 H      9   8   7     2.059513149994   119.61239772   179.99644926
 C      5   4   2     2.666885277407   121.71195836     0.03125966
 H     12   5   4     2.066450331109   117.17539963     0.00000000
 C     12   5   4     2.833443542607   124.99825165   179.98414614
 H     14  12   5     2.097352224161   110.01587267   302.56197747
 H     14  12   5     2.097338847573   110.01987203    57.33132334
 C     14  12   5     2.898604401681   113.47101452   179.94951282
 H     17  14  12     2.089498607513   108.97108716   302.33577277
 H     17  14  12     2.089510192178   108.97378173    57.64110808
 C     17  14  12     2.890333936177   113.15365703   179.98927490
 H     20  17  14     2.086143467537   111.30429523    59.85160565
 H     20  17  14     2.086135296288   111.30442352   300.14929645
 C      8   7   6     2.862307210855   119.50687896   179.98162105
 H     23   8   7     2.091197047244   108.18266048   303.76401508
 H     23   8   7     2.091207767768   108.18808133    56.31232131
 C     23   8   7     2.892650956849   116.95094416   180.04535526
 H     26  23   8     2.090060414083   109.84984507   301.73500471
 H     26  23   8     2.090059813750   109.84466317    58.23717894
 C     26  23   8     2.897113690544   112.63365430   179.98102664
 H     29  26  23     2.090654325543   109.21554481   302.33542034
 H     29  26  23     2.090656456408   109.21670915    57.70731293
 C     29  26  23     2.891827437339   113.17012177   180.02235752
 H     32  29  26     2.086186427485   111.29973343    59.86263315
 H     32  29  26     2.086193278644   111.30012344   300.14827235
 C      3   2   1     2.309656642977   179.50196511   183.35548301
 H     20  17  14     2.082116320567   111.43578936   179.99915654
 H     32  29  26     2.082439206887   111.50475953   180.00590481
 C     35   3   7     2.698834294762   179.88403587   318.97794840
 C     38  35   3     2.668329086685   120.62406831    29.43316501
 C     39  38  35     2.635116322913   120.40781375   180.00710298
 C     40  39  38     2.644649528490   120.36637333     0.00000000
 C     41  40  39     2.644748432815   119.69878181     0.00000000
 C     42  41  40     2.635002613229   120.34235250     0.00000000
 H     41  40  39     2.065145960249   120.13892845   180.00129787
 H     42  41  40     2.064896964144   120.05177221   180.00897912
 H     39  38  35     2.062868701230   119.11382209     0.00000000
 H     43  42  41     2.063100376140   120.45182331   180.01203973
 H     40  39  38     2.065005349105   119.60748598   179.98890516
 C      1   2   4     2.695293713874   179.77183891    19.67209066
 C     49   1   2     2.669954352960   120.74697173   165.21235295
 C     50  49   1     2.634611450020   120.46564516   180.00534014
 C     51  50  49     2.644962753063   120.36272996     0.00000000
 C     52  51  50     2.645016636662   119.66783989     0.00000000
 C     53  52  51     2.634445921686   120.39851265     0.00000000
 H     52  51  50     2.065144951107   120.19312748   180.00300388
 H     53  52  51     2.065113608840   120.00542106   179.98939860
 H     50  49   1     2.063056477342   119.12769771     0.02392820
 H     54  53  52     2.062768529291   120.47310401   179.98582600
 H     51  50  49     2.064856265691   119.57953899   180.00918265

---------------------
BASIS SET INFORMATION
---------------------
There are 2 groups of distinct atoms

 Group   1 Type C   : 10s5p1d contracted to 6s2p1d pattern {511111/41/1}
 Group   2 Type H   : 6s1p contracted to 4s1p pattern {3111/1}

Atom   0C    basis set group =>   1
Atom   1C    basis set group =>   1
Atom   2C    basis set group =>   1
Atom   3C    basis set group =>   1
Atom   4C    basis set group =>   1
Atom   5C    basis set group =>   1
Atom   6C    basis set group =>   1
Atom   7C    basis set group =>   1
Atom   8C    basis set group =>   1
Atom   9H    basis set group =>   2
Atom  10H    basis set group =>   2
Atom  11C    basis set group =>   1
Atom  12H    basis set group =>   2
Atom  13C    basis set group =>   1
Atom  14H    basis set group =>   2
Atom  15H    basis set group =>   2
Atom  16C    basis set group =>   1
Atom  17H    basis set group =>   2
Atom  18H    basis set group =>   2
Atom  19C    basis set group =>   1
Atom  20H    basis set group =>   2
Atom  21H    basis set group =>   2
Atom  22C    basis set group =>   1
Atom  23H    basis set group =>   2
Atom  24H    basis set group =>   2
Atom  25C    basis set group =>   1
Atom  26H    basis set group =>   2
Atom  27H    basis set group =>   2
Atom  28C    basis set group =>   1
Atom  29H    basis set group =>   2
Atom  30H    basis set group =>   2
Atom  31C    basis set group =>   1
Atom  32H    basis set group =>   2
Atom  33H    basis set group =>   2
Atom  34C    basis set group =>   1
Atom  35H    basis set group =>   2
Atom  36H    basis set group =>   2
Atom  37C    basis set group =>   1
Atom  38C    basis set group =>   1
Atom  39C    basis set group =>   1
Atom  40C    basis set group =>   1
Atom  41C    basis set group =>   1
Atom  42C    basis set group =>   1
Atom  43H    basis set group =>   2
Atom  44H    basis set group =>   2
Atom  45H    basis set group =>   2
Atom  46H    basis set group =>   2
Atom  47H    basis set group =>   2
Atom  48C    basis set group =>   1
Atom  49C    basis set group =>   1
Atom  50C    basis set group =>   1
Atom  51C    basis set group =>   1
Atom  52C    basis set group =>   1
Atom  53C    basis set group =>   1
Atom  54H    basis set group =>   2
Atom  55H    basis set group =>   2
Atom  56H    basis set group =>   2
Atom  57H    basis set group =>   2
Atom  58H    basis set group =>   2
---------------------------------
AUXILIARY/J BASIS SET INFORMATION
---------------------------------
There are 2 groups of distinct atoms

 Group   1 Type C   : 17s13p12d2f contracted to 17s13p12d2f pattern {11111111111111111/1111111111111/111111111111/11}
 Group   2 Type H   : 15s6p1d contracted to 15s6p1d pattern {111111111111111/111111/1}

Atom   0C    basis set group =>   1
Atom   1C    basis set group =>   1
Atom   2C    basis set group =>   1
Atom   3C    basis set group =>   1
Atom   4C    basis set group =>   1
Atom   5C    basis set group =>   1
Atom   6C    basis set group =>   1
Atom   7C    basis set group =>   1
Atom   8C    basis set group =>   1
Atom   9H    basis set group =>   2
Atom  10H    basis set group =>   2
Atom  11C    basis set group =>   1
Atom  12H    basis set group =>   2
Atom  13C    basis set group =>   1
Atom  14H    basis set group =>   2
Atom  15H    basis set group =>   2
Atom  16C    basis set group =>   1
Atom  17H    basis set group =>   2
Atom  18H    basis set group =>   2
Atom  19C    basis set group =>   1
Atom  20H    basis set group =>   2
Atom  21H    basis set group =>   2
Atom  22C    basis set group =>   1
Atom  23H    basis set group =>   2
Atom  24H    basis set group =>   2
Atom  25C    basis set group =>   1
Atom  26H    basis set group =>   2
Atom  27H    basis set group =>   2
Atom  28C    basis set group =>   1
Atom  29H    basis set group =>   2
Atom  30H    basis set group =>   2
Atom  31C    basis set group =>   1
Atom  32H    basis set group =>   2
Atom  33H    basis set group =>   2
Atom  34C    basis set group =>   1
Atom  35H    basis set group =>   2
Atom  36H    basis set group =>   2
Atom  37C    basis set group =>   1
Atom  38C    basis set group =>   1
Atom  39C    basis set group =>   1
Atom  40C    basis set group =>   1
Atom  41C    basis set group =>   1
Atom  42C    basis set group =>   1
Atom  43H    basis set group =>   2
Atom  44H    basis set group =>   2
Atom  45H    basis set group =>   2
Atom  46H    basis set group =>   2
Atom  47H    basis set group =>   2
Atom  48C    basis set group =>   1
Atom  49C    basis set group =>   1
Atom  50C    basis set group =>   1
Atom  51C    basis set group =>   1
Atom  52C    basis set group =>   1
Atom  53C    basis set group =>   1
Atom  54H    basis set group =>   2
Atom  55H    basis set group =>   2
Atom  56H    basis set group =>   2
Atom  57H    basis set group =>   2
Atom  58H    basis set group =>   2
---------------------------------
AUXILIARY/C BASIS SET INFORMATION
---------------------------------
There are 2 groups of distinct atoms

 Group   1 Type C   : 17s13p12d2f contracted to 17s13p12d2f pattern {11111111111111111/1111111111111/111111111111/11}
 Group   2 Type H   : 15s6p1d contracted to 15s6p1d pattern {111111111111111/111111/1}

Atom   0C    basis set group =>   1
Atom   1C    basis set group =>   1
Atom   2C    basis set group =>   1
Atom   3C    basis set group =>   1
Atom   4C    basis set group =>   1
Atom   5C    basis set group =>   1
Atom   6C    basis set group =>   1
Atom   7C    basis set group =>   1
Atom   8C    basis set group =>   1
Atom   9H    basis set group =>   2
Atom  10H    basis set group =>   2
Atom  11C    basis set group =>   1
Atom  12H    basis set group =>   2
Atom  13C    basis set group =>   1
Atom  14H    basis set group =>   2
Atom  15H    basis set group =>   2
Atom  16C    basis set group =>   1
Atom  17H    basis set group =>   2
Atom  18H    basis set group =>   2
Atom  19C    basis set group =>   1
Atom  20H    basis set group =>   2
Atom  21H    basis set group =>   2
Atom  22C    basis set group =>   1
Atom  23H    basis set group =>   2
Atom  24H    basis set group =>   2
Atom  25C    basis set group =>   1
Atom  26H    basis set group =>   2
Atom  27H    basis set group =>   2
Atom  28C    basis set group =>   1
Atom  29H    basis set group =>   2
Atom  30H    basis set group =>   2
Atom  31C    basis set group =>   1
Atom  32H    basis set group =>   2
Atom  33H    basis set group =>   2
Atom  34C    basis set group =>   1
Atom  35H    basis set group =>   2
Atom  36H    basis set group =>   2
Atom  37C    basis set group =>   1
Atom  38C    basis set group =>   1
Atom  39C    basis set group =>   1
Atom  40C    basis set group =>   1
Atom  41C    basis set group =>   1
Atom  42C    basis set group =>   1
Atom  43H    basis set group =>   2
Atom  44H    basis set group =>   2
Atom  45H    basis set group =>   2
Atom  46H    basis set group =>   2
Atom  47H    basis set group =>   2
Atom  48C    basis set group =>   1
Atom  49C    basis set group =>   1
Atom  50C    basis set group =>   1
Atom  51C    basis set group =>   1
Atom  52C    basis set group =>   1
Atom  53C    basis set group =>   1
Atom  54H    basis set group =>   2
Atom  55H    basis set group =>   2
Atom  56H    basis set group =>   2
Atom  57H    basis set group =>   2
Atom  58H    basis set group =>   2
----------------------------------
AUXILIARY/JK BASIS SET INFORMATION
----------------------------------
There are 2 groups of distinct atoms

 Group   1 Type C   : 17s13p12d2f contracted to 17s13p12d2f pattern {11111111111111111/1111111111111/111111111111/11}
 Group   2 Type H   : 15s6p1d contracted to 15s6p1d pattern {111111111111111/111111/1}

Atom   0C    basis set group =>   1
Atom   1C    basis set group =>   1
Atom   2C    basis set group =>   1
Atom   3C    basis set group =>   1
Atom   4C    basis set group =>   1
Atom   5C    basis set group =>   1
Atom   6C    basis set group =>   1
Atom   7C    basis set group =>   1
Atom   8C    basis set group =>   1
Atom   9H    basis set group =>   2
Atom  10H    basis set group =>   2
Atom  11C    basis set group =>   1
Atom  12H    basis set group =>   2
Atom  13C    basis set group =>   1
Atom  14H    basis set group =>   2
Atom  15H    basis set group =>   2
Atom  16C    basis set group =>   1
Atom  17H    basis set group =>   2
Atom  18H    basis set group =>   2
Atom  19C    basis set group =>   1
Atom  20H    basis set group =>   2
Atom  21H    basis set group =>   2
Atom  22C    basis set group =>   1
Atom  23H    basis set group =>   2
Atom  24H    basis set group =>   2
Atom  25C    basis set group =>   1
Atom  26H    basis set group =>   2
Atom  27H    basis set group =>   2
Atom  28C    basis set group =>   1
Atom  29H    basis set group =>   2
Atom  30H    basis set group =>   2
Atom  31C    basis set group =>   1
Atom  32H    basis set group =>   2
Atom  33H    basis set group =>   2
Atom  34C    basis set group =>   1
Atom  35H    basis set group =>   2
Atom  36H    basis set group =>   2
Atom  37C    basis set group =>   1
Atom  38C    basis set group =>   1
Atom  39C    basis set group =>   1
Atom  40C    basis set group =>   1
Atom  41C    basis set group =>   1
Atom  42C    basis set group =>   1
Atom  43H    basis set group =>   2
Atom  44H    basis set group =>   2
Atom  45H    basis set group =>   2
Atom  46H    basis set group =>   2
Atom  47H    basis set group =>   2
Atom  48C    basis set group =>   1
Atom  49C    basis set group =>   1
Atom  50C    basis set group =>   1
Atom  51C    basis set group =>   1
Atom  52C    basis set group =>   1
Atom  53C    basis set group =>   1
Atom  54H    basis set group =>   2
Atom  55H    basis set group =>   2
Atom  56H    basis set group =>   2
Atom  57H    basis set group =>   2
Atom  58H    basis set group =>   2


           ************************************************************
           *        Program running with 16 parallel MPI-processes    *
           *              working on a common directory               *
           ************************************************************
------------------------------------------------------------------------------
                           ORCA GTO INTEGRAL CALCULATION
------------------------------------------------------------------------------

                         BASIS SET STATISTICS AND STARTUP INFO

 # of primitive gaussian shells          ...  683
 # of primitive gaussian functions       ... 1161
 # of contracted shells                  ...  415
 # of contracted basis functions         ...  713
 Highest angular momentum                ...    2
 Maximum contraction depth               ...    5
 Integral package used                   ... LIBINT
 Integral threshhold            Thresh   ...  1.000e-10
 Primitive cut-off              TCut     ...  1.000e-11


------------------------------ INTEGRAL EVALUATION ----------------------------


 * One electron integrals 
 Pre-screening matrix                    ... done
 Shell pair data                         ... done (   0.014 sec)



           ************************************************************
           *        Program running with 16 parallel MPI-processes    *
           *              working on a common directory               *
           ************************************************************
-------------------------------------------------------------------------------
                                 ORCA SCF
-------------------------------------------------------------------------------

------------
SCF SETTINGS
------------
Hamiltonian:
 Density Functional     Method          .... DFT(GTOs)
 Exchange Functional    Exchange        .... B88
   X-Alpha parameter    XAlpha          ....  0.666667
   Becke's b parameter  XBeta           ....  0.004200
 Correlation Functional Correlation     .... LYP
 LDA part of GGA corr.  LDAOpt          .... VWN-5
 Gradients option       PostSCFGGA      .... off
 Hybrid DFT is turned on
   Fraction HF Exchange ScalHFX         ....  0.200000
   Scaling of DF-GGA-X  ScalDFX         ....  0.720000
   Scaling of DF-GGA-C  ScalDFC         ....  0.810000
   Scaling of DF-LDA-C  ScalLDAC        ....  1.000000
   Perturbative correction              ....  0.000000
   Density functional embedding theory  .... OFF
   NL short-range parameter             ....  4.800000


General Settings:
 Integral files         IntName         .... g-tensor_EPRII
 Hartree-Fock type      HFTyp           .... UHF
 Total Charge           Charge          ....    0
 Multiplicity           Mult            ....    2
 Number of Electrons    NEL             ....  209
 Basis Dimension        Dim             ....  713
 Nuclear Repulsion      ENuc            ....   2364.1505237470 Eh

Convergence Acceleration:
 DIIS                   CNVDIIS         .... on
   Start iteration      DIISMaxIt       ....    12
   Startup error        DIISStart       ....  0.200000
   # of expansion vecs  DIISMaxEq       ....     5
   Bias factor          DIISBfac        ....   1.050
   Max. coefficient     DIISMaxC        ....  10.000
 Newton-Raphson         CNVNR           .... off
 SOSCF                  CNVSOSCF        .... off
 Level Shifting         CNVShift        .... on
   Level shift para.    LevelShift      ....    0.2500
   Turn off err/grad.   ShiftErr        ....    0.0010
 Zerner damping         CNVZerner       .... off
 Static damping         CNVDamp         .... on
   Fraction old density DampFac         ....    0.7000
   Max. Damping (<1)    DampMax         ....    0.9800
   Min. Damping (>=0)   DampMin         ....    0.0000
   Turn off err/grad.   DampErr         ....    0.1000
 Fernandez-Rico         CNVRico         .... off

SCF Procedure:
 Maximum # iterations   MaxIter         ....   125
 SCF integral mode      SCFMode         .... Direct
   Integral package                     .... LIBINT
 Reset frequency        DirectResetFreq ....    20
 Integral Threshold     Thresh          ....  1.000e-10 Eh
 Primitive CutOff       TCut            ....  1.000e-11 Eh

Convergence Tolerance:
 Convergence Check Mode ConvCheckMode   .... Total+1el-Energy
 Convergence forced     ConvForced      .... 0
 Energy Change          TolE            ....  1.000e-06 Eh
 1-El. energy change                    ....  1.000e-03 Eh
 DIIS Error             TolErr          ....  1.000e-06


Diagonalization of the overlap matrix:
Smallest eigenvalue                        ... 4.878e-05
Time for diagonalization                   ...    0.125 sec
Threshold for overlap eigenvalues          ... 1.000e-08
Number of eigenvalues below threshold      ... 0
Time for construction of square roots      ...    0.091 sec
Total time needed                          ...    0.218 sec

-------------------
DFT GRID GENERATION
-------------------

General Integration Accuracy     IntAcc      ...  4.340
Radial Grid Type                 RadialGrid  ... Gauss-Chebyshev
Angular Grid (max. acc.)         AngularGrid ... Lebedev-110
Angular grid pruning method      GridPruning ... 3 (G Style)
Weight generation scheme         WeightScheme... Becke
Basis function cutoff            BFCut       ...    1.0000e-10
Integration weight cutoff        WCut        ...    1.0000e-14
Grids for H and He will be reduced by one unit

# of grid points (after initial pruning)     ...  72706 (   0.0 sec)
# of grid points (after weights+screening)   ...  64744 (   0.2 sec)
nearest neighbour list constructed           ...    0.0 sec
Grid point re-assignment to atoms done       ...    0.0 sec
Grid point division into batches done        ...    0.1 sec
Reduced shell lists constructed in    0.2 sec

Total number of grid points                  ...    64744
Total number of batches                      ...     1036
Average number of points per batch           ...       62
Average number of grid points per atom       ...     1097
Average number of shells per batch           ...   137.02 (33.02%)
Average number of basis functions per batch  ...   263.05 (36.89%)
Average number of large shells per batch     ...    88.20 (64.37%)
Average number of large basis fcns per batch ...   169.89 (64.59%)
Maximum spatial batch extension              ...   3.50,  6.76, 30.16 au
Average spatial batch extension              ...   0.11,  0.15,  0.25 au

Time for grid setup =    0.475 sec

------------------------------
INITIAL GUESS: MODEL POTENTIAL
------------------------------
Loading Hartree-Fock densities                     ... done
Calculating cut-offs                               ... done
Setting up the integral package                    ... done
Initializing the effective Hamiltonian             ... done
Starting the Coulomb interaction                   ... done (   0.3 sec)
Reading the grid                                   ... done
Mapping shells                                     ... done
Starting the XC term evaluation                    ... done (   0.3 sec)
  promolecular density results
     # of electrons  =    209.017282393
     EX              =   -162.719912656
     EC              =     -6.909337058
     EX+EC           =   -169.629249714
Transforming the Hamiltonian                       ... done (   0.1 sec)
Diagonalizing the Hamiltonian                      ... done (   0.1 sec)
Back transforming the eigenvectors                 ... done (   0.0 sec)
Now organizing SCF variables                       ... done
                      ------------------
                      INITIAL GUESS DONE (   1.5 sec)
                      ------------------
--------------
SCF ITERATIONS
--------------
ITER       Energy         Delta-E        Max-DP      RMS-DP      [F,P]     Damp
               ***  Starting incremental Fock matrix formation  ***
  0  -1159.2979011062   0.000000000000 0.10240147  0.00084627  0.1586794 0.7000
  1  -1159.5689091404  -0.271008034203 0.04861052  0.00055900  0.0848764 0.7000
                               ***Turning on DIIS***
  2  -1159.6927900434  -0.123880902988 0.09794437  0.00113181  0.0328706 0.0000
  3  -1159.8689032534  -0.176113210026 0.02810106  0.00030862  0.0465859 0.0000
  4  -1159.9143751366  -0.045471883172 0.02504455  0.00016252  0.0087162 0.0000
  5  -1159.9166229703  -0.002247833723 0.01356857  0.00007468  0.0022902 0.0000
  6  -1159.9169688399  -0.000345869568 0.00521501  0.00003121  0.0014120 0.0000
  7  -1159.9171044717  -0.000135631799 0.00294257  0.00001413  0.0010540 0.0000
  8  -1159.9171817900  -0.000077318376 0.00508146  0.00002123  0.0007958 0.0000
  9  -1159.9172819876  -0.000100197596 0.00148666  0.00000675  0.0005695 0.0000
 10  -1159.9172983214  -0.000016333819 0.00141154  0.00000523  0.0003946 0.0000
 11  -1159.9173064786  -0.000008157148 0.00071209  0.00000271  0.0001120 0.0000
 12  -1159.9173090851  -0.000002606462 0.00031979  0.00000120  0.0000468 0.0000
                 **** Energy Check signals convergence ****

               *****************************************************
               *                     SUCCESS                       *
               *           SCF CONVERGED AFTER  13 CYCLES          *
               *****************************************************

Setting up the final grid:

General Integration Accuracy     IntAcc      ...  4.670
Radial Grid Type                 RadialGrid  ... Gauss-Chebyshev
Angular Grid (max. acc.)         AngularGrid ... Lebedev-302
Angular grid pruning method      GridPruning ... 3 (G Style)
Weight generation scheme         WeightScheme... Becke
Basis function cutoff            BFCut       ...    1.0000e-10
Integration weight cutoff        WCut        ...    1.0000e-14
Grids for H and He will be reduced by one unit

# of grid points (after initial pruning)     ... 284786 (   0.0 sec)
# of grid points (after weights+screening)   ... 248707 (   0.6 sec)
nearest neighbour list constructed           ...    0.0 sec
Grid point re-assignment to atoms done       ...    0.1 sec
Grid point division into batches done        ...    0.9 sec
Reduced shell lists constructed in    1.4 sec

Total number of grid points                  ...   248707
Total number of batches                      ...     3919
Average number of points per batch           ...       63
Average number of grid points per atom       ...     4215
Average number of shells per batch           ...   127.46 (30.71%)
Average number of basis functions per batch  ...   242.76 (34.05%)
Average number of large shells per batch     ...    81.44 (63.89%)
Average number of large basis fcns per batch ...   155.72 (64.15%)
Maximum spatial batch extension              ...   6.15,  8.45, 15.32 au
Average spatial batch extension              ...   0.09,  0.10,  0.12 au

Final grid set up in    2.1 sec
Final integration                            ... done (   1.0 sec)
Change in XC energy                          ...     0.002051985
Integrated number of electrons               ...   209.000024253
Previous integrated no of electrons          ...   209.023688211

----------------
TOTAL SCF ENERGY
----------------

Total Energy       :        -1159.91525796 Eh          -31562.89880 eV

Components:
Nuclear Repulsion  :         2364.15052375 Eh           64331.80632 eV
Electronic Energy  :        -3524.06578170 Eh          -95894.70511 eV
One Electron Energy:        -6262.99794006 Eh         -170424.83818 eV
Two Electron Energy:         2738.93215836 Eh           74530.13307 eV

Virial components:
Potential Energy   :        -2310.56590340 Eh          -62873.69467 eV
Kinetic Energy     :         1150.65064545 Eh           31310.79587 eV
Virial Ratio       :            2.00805163


DFT components:
N(Alpha)           :      105.000020881032 electrons
N(Beta)            :      104.000003371524 electrons
N(Total)           :      209.000024252556 electrons
E(X)               :     -131.347186853267 Eh       
E(C)               :       -8.162686816851 Eh       
E(XC)              :     -139.509873670119 Eh       
DFET-embed. en.    :        0.000000000000 Eh       

---------------
SCF CONVERGENCE
---------------

  Last Energy change         ...   -8.5475e-07  Tolerance :   1.0000e-06
  Last MAX-Density change    ...    2.8346e-04  Tolerance :   1.0000e-05
  Last RMS-Density change    ...    1.1042e-06  Tolerance :   1.0000e-06
  Last DIIS Error            ...    4.2507e-05  Tolerance :   1.0000e-06

             **** THE GBW FILE WAS UPDATED (g-tensor_EPRII.gbw) ****
             **** DENSITY FILE WAS UPDATED (g-tensor_EPRII.scfp) ****
             **** ENERGY FILE WAS UPDATED (g-tensor_EPRII.en.tmp) ****
----------------------
UHF SPIN CONTAMINATION
----------------------

Warning: in a DFT calculation there is little theoretical justification to 
         calculate <S**2> as in Hartree-Fock theory. We will do it anyways
         but you should keep in mind that the values have only limited relevance

Expectation value of <S**2>     :     0.786922
Ideal value S*(S+1) for S=0.5   :     0.750000
Deviation                       :     0.036922

             **** THE GBW FILE WAS UPDATED (g-tensor_EPRII.gbw) ****
             **** DENSITY FILE WAS UPDATED (g-tensor_EPRII.scfp) ****
----------------
ORBITAL ENERGIES
----------------
                 SPIN UP ORBITALS
  NO   OCC          E(Eh)            E(eV) 
   0   1.0000     -10.226952      -278.2895 
   1   1.0000     -10.225496      -278.2499 
   2   1.0000     -10.221916      -278.1525 
   3   1.0000     -10.219941      -278.0987 
   4   1.0000     -10.209659      -277.8190 
   5   1.0000     -10.206534      -277.7339 
   6   1.0000     -10.205000      -277.6922 
   7   1.0000     -10.204865      -277.6885 
   8   1.0000     -10.204709      -277.6843 
   9   1.0000     -10.203982      -277.6645 
  10   1.0000     -10.203829      -277.6603 
  11   1.0000     -10.203806      -277.6597 
  12   1.0000     -10.203619      -277.6546 
  13   1.0000     -10.203453      -277.6501 
  14   1.0000     -10.202562      -277.6258 
  15   1.0000     -10.202378      -277.6208 
  16   1.0000     -10.201223      -277.5894 
  17   1.0000     -10.200517      -277.5702 
  18   1.0000     -10.199632      -277.5461 
  19   1.0000     -10.199091      -277.5314 
  20   1.0000     -10.197976      -277.5010 
  21   1.0000     -10.197330      -277.4835 
  22   1.0000     -10.194908      -277.4175 
  23   1.0000     -10.189435      -277.2686 
  24   1.0000     -10.187505      -277.2161 
  25   1.0000     -10.185241      -277.1545 
  26   1.0000     -10.182737      -277.0864 
  27   1.0000     -10.182288      -277.0741 
  28   1.0000     -10.175214      -276.8816 
  29   1.0000     -10.173536      -276.8360 
  30   1.0000      -0.871827       -23.7236 
  31   1.0000      -0.862985       -23.4830 
  32   1.0000      -0.861731       -23.4489 
  33   1.0000      -0.818258       -22.2659 
  34   1.0000      -0.798356       -21.7244 
  35   1.0000      -0.794626       -21.6229 
  36   1.0000      -0.782346       -21.2887 
  37   1.0000      -0.772687       -21.0259 
  38   1.0000      -0.764971       -20.8159 
  39   1.0000      -0.750977       -20.4351 
  40   1.0000      -0.749849       -20.4044 
  41   1.0000      -0.737558       -20.0700 
  42   1.0000      -0.725879       -19.7522 
  43   1.0000      -0.709880       -19.3168 
  44   1.0000      -0.695772       -18.9329 
  45   1.0000      -0.655141       -17.8273 
  46   1.0000      -0.646333       -17.5876 
  47   1.0000      -0.623478       -16.9657 
  48   1.0000      -0.612795       -16.6750 
  49   1.0000      -0.609466       -16.5844 
  50   1.0000      -0.609039       -16.5728 
  51   1.0000      -0.608031       -16.5454 
  52   1.0000      -0.589957       -16.0535 
  53   1.0000      -0.579084       -15.7577 
  54   1.0000      -0.560451       -15.2507 
  55   1.0000      -0.541507       -14.7352 
  56   1.0000      -0.535867       -14.5817 
  57   1.0000      -0.506722       -13.7886 
  58   1.0000      -0.504113       -13.7176 
  59   1.0000      -0.480966       -13.0877 
  60   1.0000      -0.479013       -13.0346 
  61   1.0000      -0.474946       -12.9239 
  62   1.0000      -0.470101       -12.7921 
  63   1.0000      -0.462043       -12.5728 
  64   1.0000      -0.456954       -12.4344 
  65   1.0000      -0.455588       -12.3972 
  66   1.0000      -0.437570       -11.9069 
  67   1.0000      -0.435973       -11.8634 
  68   1.0000      -0.430350       -11.7104 
  69   1.0000      -0.428141       -11.6503 
  70   1.0000      -0.425381       -11.5752 
  71   1.0000      -0.425040       -11.5659 
  72   1.0000      -0.423836       -11.5332 
  73   1.0000      -0.421293       -11.4640 
  74   1.0000      -0.411010       -11.1842 
  75   1.0000      -0.397915       -10.8278 
  76   1.0000      -0.397055       -10.8044 
  77   1.0000      -0.383768       -10.4428 
  78   1.0000      -0.380942       -10.3660 
  79   1.0000      -0.377555       -10.2738 
  80   1.0000      -0.374299       -10.1852 
  81   1.0000      -0.364212        -9.9107 
  82   1.0000      -0.362482        -9.8636 
  83   1.0000      -0.360842        -9.8190 
  84   1.0000      -0.355487        -9.6733 
  85   1.0000      -0.353221        -9.6116 
  86   1.0000      -0.351504        -9.5649 
  87   1.0000      -0.350250        -9.5308 
  88   1.0000      -0.339095        -9.2272 
  89   1.0000      -0.332147        -9.0382 
  90   1.0000      -0.332079        -9.0363 
  91   1.0000      -0.330652        -8.9975 
  92   1.0000      -0.326991        -8.8979 
  93   1.0000      -0.322433        -8.7738 
  94   1.0000      -0.321301        -8.7430 
  95   1.0000      -0.305930        -8.3248 
  96   1.0000      -0.278378        -7.5751 
  97   1.0000      -0.271953        -7.4002 
  98   1.0000      -0.268507        -7.3064 
  99   1.0000      -0.267087        -7.2678 
 100   1.0000      -0.258735        -7.0405 
 101   1.0000      -0.258105        -7.0234 
 102   1.0000      -0.236582        -6.4377 
 103   1.0000      -0.208780        -5.6812 
 104   1.0000      -0.169866        -4.6223 
 105   0.0000      -0.065721        -1.7884 
 106   0.0000      -0.029916        -0.8141 
 107   0.0000      -0.013940        -0.3793 
 108   0.0000      -0.013065        -0.3555 
 109   0.0000       0.001922         0.0523 
 110   0.0000       0.015295         0.4162 
 111   0.0000       0.016264         0.4426 
 112   0.0000       0.017115         0.4657 
 113   0.0000       0.021497         0.5850 
 114   0.0000       0.025665         0.6984 
 115   0.0000       0.032308         0.8792 
 116   0.0000       0.035669         0.9706 
 117   0.0000       0.037837         1.0296 
 118   0.0000       0.042527         1.1572 
 119   0.0000       0.044125         1.2007 
 120   0.0000       0.048533         1.3206 
 121   0.0000       0.055046         1.4979 
 122   0.0000       0.056298         1.5320 
 123   0.0000       0.059723         1.6251 
 124   0.0000       0.065304         1.7770 
 125   0.0000       0.067825         1.8456 
 126   0.0000       0.073168         1.9910 
 127   0.0000       0.077262         2.1024 
 128   0.0000       0.078965         2.1487 
 129   0.0000       0.079687         2.1684 
 130   0.0000       0.090908         2.4737 
 131   0.0000       0.092141         2.5073 
 132   0.0000       0.092701         2.5225 
 133   0.0000       0.100359         2.7309 
 134   0.0000       0.111689         3.0392 
 135   0.0000       0.115341         3.1386 
 136   0.0000       0.122007         3.3200 
 137   0.0000       0.124688         3.3929 
 138   0.0000       0.131425         3.5763 
 139   0.0000       0.137841         3.7509 
 140   0.0000       0.143882         3.9152 
 141   0.0000       0.154816         4.2128 
 142   0.0000       0.160522         4.3680 
 143   0.0000       0.162212         4.4140 
 144   0.0000       0.171030         4.6540 
 145   0.0000       0.174169         4.7394 
 146   0.0000       0.176315         4.7978 
 147   0.0000       0.182787         4.9739 
 148   0.0000       0.184210         5.0126 
 149   0.0000       0.192375         5.2348 
 150   0.0000       0.195709         5.3255 
 151   0.0000       0.197643         5.3781 
 152   0.0000       0.199893         5.4394 
 153   0.0000       0.202354         5.5063 
 154   0.0000       0.202987         5.5235 
 155   0.0000       0.206644         5.6231 
 156   0.0000       0.215892         5.8747 
 157   0.0000       0.216182         5.8826 
 158   0.0000       0.219134         5.9629 
 159   0.0000       0.220938         6.0120 
 160   0.0000       0.224199         6.1008 
 161   0.0000       0.227057         6.1785 
 162   0.0000       0.227433         6.1888 
 163   0.0000       0.237901         6.4736 
 164   0.0000       0.240243         6.5373 
 165   0.0000       0.244400         6.6505 
 166   0.0000       0.244709         6.6589 
 167   0.0000       0.249272         6.7830 
 168   0.0000       0.252307         6.8656 
 169   0.0000       0.252600         6.8736 
 170   0.0000       0.255050         6.9403 
 171   0.0000       0.257872         7.0171 
 172   0.0000       0.263514         7.1706 
 173   0.0000       0.268117         7.2958 
 174   0.0000       0.268651         7.3104 
 175   0.0000       0.275105         7.4860 
 176   0.0000       0.276553         7.5254 
 177   0.0000       0.277523         7.5518 
 178   0.0000       0.280500         7.6328 
 179   0.0000       0.282172         7.6783 
 180   0.0000       0.282334         7.6827 
 181   0.0000       0.287677         7.8281 
 182   0.0000       0.291966         7.9448 
 183   0.0000       0.292466         7.9584 
 184   0.0000       0.293111         7.9760 
 185   0.0000       0.296968         8.0809 
 186   0.0000       0.299703         8.1553 
 187   0.0000       0.303281         8.2527 
 188   0.0000       0.307398         8.3647 
 189   0.0000       0.307824         8.3763 
 190   0.0000       0.309650         8.4260 
 191   0.0000       0.312335         8.4991 
 192   0.0000       0.314010         8.5446 
 193   0.0000       0.314293         8.5524 
 194   0.0000       0.316152         8.6029 
 195   0.0000       0.319307         8.6888 
 196   0.0000       0.320339         8.7169 
 197   0.0000       0.323425         8.8008 
 198   0.0000       0.324558         8.8317 
 199   0.0000       0.329552         8.9676 
 200   0.0000       0.334415         9.0999 
 201   0.0000       0.334894         9.1129 
 202   0.0000       0.338776         9.2186 
 203   0.0000       0.343940         9.3591 
 204   0.0000       0.344507         9.3745 
 205   0.0000       0.345953         9.4139 
 206   0.0000       0.346980         9.4418 
 207   0.0000       0.352949         9.6042 
 208   0.0000       0.357393         9.7252 
 209   0.0000       0.364227         9.9111 
 210   0.0000       0.368533        10.0283 
 211   0.0000       0.373216        10.1557 
 212   0.0000       0.376862        10.2549 
 213   0.0000       0.377607        10.2752 
 214   0.0000       0.382185        10.3998 
 215   0.0000       0.391395        10.6504 
 216   0.0000       0.396779        10.7969 
 217   0.0000       0.399919        10.8824 
 218   0.0000       0.405967        11.0469 
 219   0.0000       0.406284        11.0555 
 220   0.0000       0.413746        11.2586 
 221   0.0000       0.415788        11.3142 
 222   0.0000       0.416650        11.3376 
 223   0.0000       0.421261        11.4631 
 224   0.0000       0.423662        11.5284 
 225   0.0000       0.424338        11.5468 
 226   0.0000       0.429232        11.6800 
 227   0.0000       0.430992        11.7279 
 228   0.0000       0.431313        11.7366 
 229   0.0000       0.436900        11.8887 
 230   0.0000       0.442497        12.0409 
 231   0.0000       0.447340        12.1727 
 232   0.0000       0.450265        12.2523 
 233   0.0000       0.451418        12.2837 
 234   0.0000       0.455651        12.3989 
 235   0.0000       0.457954        12.4616 
 236   0.0000       0.460389        12.5278 
 237   0.0000       0.462271        12.5790 
 238   0.0000       0.466405        12.6915 
 239   0.0000       0.470936        12.8148 
 240   0.0000       0.472756        12.8643 
 241   0.0000       0.474473        12.9111 
 242   0.0000       0.480110        13.0644 
 243   0.0000       0.482372        13.1260 
 244   0.0000       0.483916        13.1680 
 245   0.0000       0.487615        13.2687 
 246   0.0000       0.493416        13.4265 
 247   0.0000       0.501119        13.6361 
 248   0.0000       0.504290        13.7224 
 249   0.0000       0.508958        13.8494 
 250   0.0000       0.512115        13.9354 
 251   0.0000       0.516770        14.0620 
 252   0.0000       0.524097        14.2614 
 253   0.0000       0.529022        14.3954 
 254   0.0000       0.530375        14.4322 
 255   0.0000       0.533573        14.5193 
 256   0.0000       0.536328        14.5942 
 257   0.0000       0.538507        14.6535 
 258   0.0000       0.549958        14.9651 
 259   0.0000       0.553908        15.0726 
 260   0.0000       0.560640        15.2558 
 261   0.0000       0.561119        15.2688 
 262   0.0000       0.564044        15.3484 
 263   0.0000       0.577994        15.7280 
 264   0.0000       0.579991        15.7824 
 265   0.0000       0.587193        15.9783 
 266   0.0000       0.590510        16.0686 
 267   0.0000       0.596550        16.2330 
 268   0.0000       0.597586        16.2611 
 269   0.0000       0.605377        16.4731 
 270   0.0000       0.620082        16.8733 
 271   0.0000       0.624852        17.0031 
 272   0.0000       0.633862        17.2483 
 273   0.0000       0.641896        17.4669 
 274   0.0000       0.642960        17.4958 
 275   0.0000       0.652003        17.7419 
 276   0.0000       0.658675        17.9234 
 277   0.0000       0.659665        17.9504 
 278   0.0000       0.666286        18.1306 
 279   0.0000       0.669308        18.2128 
 280   0.0000       0.670594        18.2478 
 281   0.0000       0.674215        18.3463 
 282   0.0000       0.678226        18.4555 
 283   0.0000       0.685579        18.6555 
 284   0.0000       0.699324        19.0296 
 285   0.0000       0.707233        19.2448 
 286   0.0000       0.724213        19.7068 
 287   0.0000       0.727772        19.8037 
 288   0.0000       0.736174        20.0323 
 289   0.0000       0.762026        20.7358 
 290   0.0000       0.765730        20.8366 
 291   0.0000       0.768215        20.9042 
 292   0.0000       0.774158        21.0659 
 293   0.0000       0.789838        21.4926 
 294   0.0000       0.795803        21.6549 
 295   0.0000       0.809124        22.0174 
 296   0.0000       0.820148        22.3174 
 297   0.0000       0.833948        22.6929 
 298   0.0000       0.836769        22.7697 
 299   0.0000       0.839465        22.8430 
 300   0.0000       0.843100        22.9419 
 301   0.0000       0.850698        23.1487 
 302   0.0000       0.853209        23.2170 
 303   0.0000       0.855514        23.2797 
 304   0.0000       0.861282        23.4367 
 305   0.0000       0.864658        23.5285 
 306   0.0000       0.866110        23.5681 
 307   0.0000       0.869988        23.6736 
 308   0.0000       0.871323        23.7099 
 309   0.0000       0.883885        24.0517 
 310   0.0000       0.891200        24.2508 
 311   0.0000       0.896197        24.3868 
 312   0.0000       0.899664        24.4811 
 313   0.0000       0.902900        24.5692 
 314   0.0000       0.904023        24.5997 
 315   0.0000       0.911560        24.8048 
 316   0.0000       0.913117        24.8472 
 317   0.0000       0.915504        24.9121 
 318   0.0000       0.919212        25.0130 
 319   0.0000       0.927864        25.2485 
 320   0.0000       0.929235        25.2858 
 321   0.0000       0.931419        25.3452 
 322   0.0000       0.938251        25.5311 
 323   0.0000       0.940067        25.5805 
 324   0.0000       0.945668        25.7329 
 325   0.0000       0.949948        25.8494 
 326   0.0000       0.950090        25.8533 
 327   0.0000       0.961421        26.1616 
 328   0.0000       0.961950        26.1760 
 329   0.0000       0.967003        26.3135 
 330   0.0000       0.974579        26.5196 
 331   0.0000       0.977329        26.5945 
 332   0.0000       0.979233        26.6463 
 333   0.0000       0.983061        26.7504 
 334   0.0000       0.985148        26.8072 
 335   0.0000       0.991223        26.9726 
 336   0.0000       0.993679        27.0394 
 337   0.0000       0.997542        27.1445 
 338   0.0000       0.997579        27.1455 
 339   0.0000       0.999227        27.1903 
 340   0.0000       1.000744        27.2316 
 341   0.0000       1.003484        27.3062 
 342   0.0000       1.005834        27.3701 
 343   0.0000       1.008646        27.4467 
 344   0.0000       1.018043        27.7024 
 345   0.0000       1.024209        27.8701 
 346   0.0000       1.025031        27.8925 
 347   0.0000       1.026065        27.9207 
 348   0.0000       1.028306        27.9816 
 349   0.0000       1.029627        28.0176 
 350   0.0000       1.034144        28.1405 
 351   0.0000       1.043213        28.3873 
 352   0.0000       1.050223        28.5780 
 353   0.0000       1.059306        28.8252 
 354   0.0000       1.060327        28.8530 
 355   0.0000       1.060624        28.8610 
 356   0.0000       1.067778        29.0557 
 357   0.0000       1.071651        29.1611 
 358   0.0000       1.092036        29.7158 
 359   0.0000       1.094193        29.7745 
 360   0.0000       1.104620        30.0582 
 361   0.0000       1.105767        30.0894 
 362   0.0000       1.115633        30.3579 
 363   0.0000       1.117398        30.4059 
 364   0.0000       1.118668        30.4405 
 365   0.0000       1.130905        30.7735 
 366   0.0000       1.137640        30.9568 
 367   0.0000       1.140920        31.0460 
 368   0.0000       1.152507        31.3613 
 369   0.0000       1.153417        31.3861 
 370   0.0000       1.170333        31.8464 
 371   0.0000       1.173145        31.9229 
 372   0.0000       1.175389        31.9840 
 373   0.0000       1.179572        32.0978 
 374   0.0000       1.189818        32.3766 
 375   0.0000       1.192565        32.4513 
 376   0.0000       1.205993        32.8167 
 377   0.0000       1.207217        32.8500 
 378   0.0000       1.219926        33.1959 
 379   0.0000       1.228044        33.4168 
 380   0.0000       1.238185        33.6927 
 381   0.0000       1.243706        33.8430 
 382   0.0000       1.254187        34.1282 
 383   0.0000       1.273444        34.6522 
 384   0.0000       1.275724        34.7142 
 385   0.0000       1.277540        34.7636 
 386   0.0000       1.300698        35.3938 
 387   0.0000       1.304004        35.4838 
 388   0.0000       1.307669        35.5835 
 389   0.0000       1.314478        35.7688 
 390   0.0000       1.316961        35.8363 
 391   0.0000       1.320255        35.9260 
 392   0.0000       1.322935        35.9989 
 393   0.0000       1.328204        36.1423 
 394   0.0000       1.346597        36.6428 
 395   0.0000       1.351708        36.7818 
 396   0.0000       1.356050        36.9000 
 397   0.0000       1.359479        36.9933 
 398   0.0000       1.367659        37.2159 
 399   0.0000       1.376471        37.4557 
 400   0.0000       1.386135        37.7186 
 401   0.0000       1.390920        37.8488 
 402   0.0000       1.401295        38.1312 
 403   0.0000       1.408337        38.3228 
 404   0.0000       1.422732        38.7145 
 405   0.0000       1.426336        38.8126 
 406   0.0000       1.426816        38.8256 
 407   0.0000       1.431509        38.9533 
 408   0.0000       1.431976        38.9661 
 409   0.0000       1.440568        39.1999 
 410   0.0000       1.441731        39.2315 
 411   0.0000       1.446577        39.3634 
 412   0.0000       1.450239        39.4630 
 413   0.0000       1.452306        39.5193 
 414   0.0000       1.454236        39.5718 
 415   0.0000       1.455480        39.6056 
 416   0.0000       1.471983        40.0547 
 417   0.0000       1.476249        40.1708 
 418   0.0000       1.485743        40.4291 
 419   0.0000       1.493614        40.6433 
 420   0.0000       1.498562        40.7779 
 421   0.0000       1.501768        40.8652 
 422   0.0000       1.507150        41.0116 
 423   0.0000       1.509653        41.0797 
 424   0.0000       1.512699        41.1626 
 425   0.0000       1.515865        41.2488 
 426   0.0000       1.520052        41.3627 
 427   0.0000       1.538177        41.8559 
 428   0.0000       1.547452        42.1083 
 429   0.0000       1.561835        42.4997 
 430   0.0000       1.561843        42.4999 
 431   0.0000       1.563031        42.5322 
 432   0.0000       1.563312        42.5399 
 433   0.0000       1.565939        42.6114 
 434   0.0000       1.573366        42.8135 
 435   0.0000       1.584689        43.1216 
 436   0.0000       1.586108        43.1602 
 437   0.0000       1.589095        43.2415 
 438   0.0000       1.591048        43.2946 
 439   0.0000       1.597485        43.4698 
 440   0.0000       1.598911        43.5086 
 441   0.0000       1.602970        43.6190 
 442   0.0000       1.608897        43.7803 
 443   0.0000       1.619977        44.0818 
 444   0.0000       1.623870        44.1878 
 445   0.0000       1.635460        44.5031 
 446   0.0000       1.636397        44.5286 
 447   0.0000       1.640135        44.6304 
 448   0.0000       1.640610        44.6433 
 449   0.0000       1.641578        44.6696 
 450   0.0000       1.644758        44.7561 
 451   0.0000       1.656600        45.0784 
 452   0.0000       1.660601        45.1873 
 453   0.0000       1.663152        45.2567 
 454   0.0000       1.668290        45.3965 
 455   0.0000       1.682354        45.7792 
 456   0.0000       1.682948        45.7953 
 457   0.0000       1.684774        45.8450 
 458   0.0000       1.685392        45.8619 
 459   0.0000       1.687479        45.9186 
 460   0.0000       1.695907        46.1480 
 461   0.0000       1.696707        46.1697 
 462   0.0000       1.702737        46.3338 
 463   0.0000       1.705565        46.4108 
 464   0.0000       1.715825        46.6900 
 465   0.0000       1.720006        46.8037 
 466   0.0000       1.721698        46.8498 
 467   0.0000       1.722260        46.8651 
 468   0.0000       1.732681        47.1486 
 469   0.0000       1.738642        47.3109 
 470   0.0000       1.742469        47.4150 
 471   0.0000       1.764065        48.0026 
 472   0.0000       1.766992        48.0823 
 473   0.0000       1.772619        48.2354 
 474   0.0000       1.774558        48.2882 
 475   0.0000       1.776284        48.3351 
 476   0.0000       1.778313        48.3904 
 477   0.0000       1.787712        48.6461 
 478   0.0000       1.791926        48.7608 
 479   0.0000       1.793449        48.8022 
 480   0.0000       1.796294        48.8797 
 481   0.0000       1.806633        49.1610 
 482   0.0000       1.811355        49.2895 
 483   0.0000       1.817092        49.4456 
 484   0.0000       1.828194        49.7477 
 485   0.0000       1.834164        49.9101 
 486   0.0000       1.836847        49.9832 
 487   0.0000       1.838481        50.0276 
 488   0.0000       1.843386        50.1611 
 489   0.0000       1.854942        50.4755 
 490   0.0000       1.855785        50.4985 
 491   0.0000       1.860654        50.6310 
 492   0.0000       1.864779        50.7432 
 493   0.0000       1.874785        51.0155 
 494   0.0000       1.884112        51.2693 
 495   0.0000       1.917982        52.1909 
 496   0.0000       1.927248        52.4431 
 497   0.0000       1.935683        52.6726 
 498   0.0000       1.937811        52.7305 
 499   0.0000       1.945236        52.9326 
 500   0.0000       1.952970        53.1430 
 501   0.0000       1.972991        53.6878 
 502   0.0000       1.975121        53.7458 
 503   0.0000       1.975287        53.7503 
 504   0.0000       1.976078        53.7718 
 505   0.0000       2.013726        54.7963 
 506   0.0000       2.018746        54.9329 
 507   0.0000       2.025148        55.1071 
 508   0.0000       2.037000        55.4296 
 509   0.0000       2.039857        55.5073 
 510   0.0000       2.042235        55.5720 
 511   0.0000       2.045089        55.6497 
 512   0.0000       2.057639        55.9912 
 513   0.0000       2.078883        56.5693 
 514   0.0000       2.089110        56.8476 
 515   0.0000       2.099759        57.1374 
 516   0.0000       2.111578        57.4590 
 517   0.0000       2.112535        57.4850 
 518   0.0000       2.120907        57.7128 
 519   0.0000       2.135966        58.1226 
 520   0.0000       2.141210        58.2653 
 521   0.0000       2.155105        58.6434 
 522   0.0000       2.186024        59.4847 
 523   0.0000       2.191718        59.6397 
 524   0.0000       2.199764        59.8586 
 525   0.0000       2.201695        59.9112 
 526   0.0000       2.203123        59.9500 
 527   0.0000       2.203395        59.9574 
 528   0.0000       2.227690        60.6185 
 529   0.0000       2.228256        60.6339 
 530   0.0000       2.245453        61.1019 
 531   0.0000       2.252057        61.2816 
 532   0.0000       2.260078        61.4999 
 533   0.0000       2.264870        61.6302 
 534   0.0000       2.281743        62.0894 
 535   0.0000       2.308534        62.8184 
 536   0.0000       2.314006        62.9673 
 537   0.0000       2.319189        63.1083 
 538   0.0000       2.324314        63.2478 
 539   0.0000       2.324829        63.2618 
 540   0.0000       2.354025        64.0563 
 541   0.0000       2.375575        64.6427 
 542   0.0000       2.385983        64.9259 
 543   0.0000       2.391791        65.0839 
 544   0.0000       2.399481        65.2932 
 545   0.0000       2.402262        65.3689 
 546   0.0000       2.409046        65.5535 
 547   0.0000       2.413158        65.6654 
 548   0.0000       2.415389        65.7261 
 549   0.0000       2.416467        65.7554 
 550   0.0000       2.429419        66.1078 
 551   0.0000       2.443349        66.4869 
 552   0.0000       2.455059        66.8055 
 553   0.0000       2.459752        66.9333 
 554   0.0000       2.462710        67.0138 
 555   0.0000       2.468235        67.1641 
 556   0.0000       2.474860        67.3444 
 557   0.0000       2.481853        67.5347 
 558   0.0000       2.499056        68.0028 
 559   0.0000       2.509402        68.2843 
 560   0.0000       2.513161        68.3866 
 561   0.0000       2.513385        68.3927 
 562   0.0000       2.515095        68.4392 
 563   0.0000       2.523907        68.6790 
 564   0.0000       2.535794        69.0025 
 565   0.0000       2.545154        69.2572 
 566   0.0000       2.545386        69.2635 
 567   0.0000       2.559308        69.6423 
 568   0.0000       2.562435        69.7274 
 569   0.0000       2.568563        69.8942 
 570   0.0000       2.570161        69.9376 
 571   0.0000       2.579654        70.1959 
 572   0.0000       2.583148        70.2910 
 573   0.0000       2.585266        70.3487 
 574   0.0000       2.589179        70.4552 
 575   0.0000       2.614946        71.1563 
 576   0.0000       2.621183        71.3260 
 577   0.0000       2.629043        71.5399 
 578   0.0000       2.632127        71.6238 
 579   0.0000       2.685695        73.0815 
 580   0.0000       2.705254        73.6137 
 581   0.0000       2.738373        74.5149 
 582   0.0000       2.761585        75.1465 
 583   0.0000       2.776527        75.5531 
 584   0.0000       2.796068        76.0849 
 585   0.0000       2.797033        76.1111 
 586   0.0000       2.810624        76.4810 
 587   0.0000       2.887827        78.5818 
 588   0.0000       2.937524        79.9341 
 589   0.0000       2.972348        80.8817 
 590   0.0000       3.035434        82.5984 
 591   0.0000       3.109892        84.6245 
 592   0.0000       3.301334        89.8339 
 593   0.0000       3.431716        93.3818 
 594   0.0000       3.432853        93.4127 
 595   0.0000       4.978706       135.4775 
 596   0.0000       4.985343       135.6581 
 597   0.0000       5.007813       136.2695 
 598   0.0000       5.010877       136.3529 
 599   0.0000       5.011005       136.3564 
 600   0.0000       5.021677       136.6468 
 601   0.0000       5.024668       136.7282 
 602   0.0000       5.024773       136.7310 
 603   0.0000       5.034585       136.9980 
 604   0.0000       5.047407       137.3469 
 605   0.0000       5.089891       138.5030 
 606   0.0000       5.095393       138.6527 
 607   0.0000       5.097501       138.7100 
 608   0.0000       5.098517       138.7377 
 609   0.0000       5.148738       140.1043 
 610   0.0000       5.198034       141.4457 
 611   0.0000       5.204036       141.6090 
 612   0.0000       5.205494       141.6487 
 613   0.0000       5.225172       142.1842 
 614   0.0000       5.243861       142.6927 
 615   0.0000       5.249067       142.8344 
 616   0.0000       5.249646       142.8501 
 617   0.0000       5.255150       142.9999 
 618   0.0000       5.267884       143.3464 
 619   0.0000       5.285177       143.8170 
 620   0.0000       5.294577       144.0728 
 621   0.0000       5.306025       144.3843 
 622   0.0000       5.312704       144.5660 
 623   0.0000       5.320693       144.7834 
 624   0.0000       5.365962       146.0152 
 625   0.0000       5.369630       146.1151 
 626   0.0000       5.370472       146.1380 
 627   0.0000       5.380572       146.4128 
 628   0.0000       5.388895       146.6393 
 629   0.0000       5.413087       147.2976 
 630   0.0000       5.455718       148.4576 
 631   0.0000       5.470225       148.8524 
 632   0.0000       5.481518       149.1597 
 633   0.0000       5.483619       149.2169 
 634   0.0000       5.560481       151.3084 
 635   0.0000       5.570523       151.5816 
 636   0.0000       5.590410       152.1228 
 637   0.0000       5.616759       152.8398 
 638   0.0000       5.652351       153.8083 
 639   0.0000       5.658680       153.9805 
 640   0.0000       5.673285       154.3779 
 641   0.0000       5.680233       154.5670 
 642   0.0000       5.687037       154.7521 
 643   0.0000       5.749839       156.4611 
 644   0.0000       5.750910       156.4902 
 645   0.0000       5.813782       158.2010 
 646   0.0000       5.841731       158.9616 
 647   0.0000       5.860829       159.4813 
 648   0.0000       5.881818       160.0524 
 649   0.0000       5.895664       160.4292 
 650   0.0000       5.993642       163.0953 
 651   0.0000       6.179822       168.1615 
 652   0.0000       6.291805       171.2087 
 653   0.0000       6.346393       172.6941 
 654   0.0000      29.608589       805.6907 
 655   0.0000      29.717985       808.6675 
 656   0.0000      29.749180       809.5164 
 657   0.0000      29.809376       811.1544 
 658   0.0000      29.833923       811.8223 
 659   0.0000      29.853622       812.3584 
 660   0.0000      29.859942       812.5303 
 661   0.0000      29.861916       812.5840 
 662   0.0000      29.954250       815.0966 
 663   0.0000      29.963938       815.3602 
 664   0.0000      29.986090       815.9630 
 665   0.0000      30.009676       816.6048 
 666   0.0000      30.035807       817.3159 
 667   0.0000      30.067176       818.1695 
 668   0.0000      30.076591       818.4257 
 669   0.0000      30.081263       818.5528 
 670   0.0000      30.115896       819.4952 
 671   0.0000      30.128559       819.8398 
 672   0.0000      30.142333       820.2146 
 673   0.0000      30.147416       820.3529 
 674   0.0000      30.200525       821.7981 
 675   0.0000      30.241587       822.9154 
 676   0.0000      30.253000       823.2260 
 677   0.0000      30.261778       823.4648 
 678   0.0000      30.281493       824.0013 
 679   0.0000      30.292226       824.2934 
 680   0.0000      30.338379       825.5493 
 681   0.0000      30.479325       829.3846 
 682   0.0000      30.516044       830.3838 
 683   0.0000      30.570652       831.8697 
 684   0.0000      36.604609       996.0621 
 685   0.0000      36.613382       996.3008 
 686   0.0000      36.629030       996.7266 
 687   0.0000      36.636028       996.9170 
 688   0.0000      36.639762       997.0186 
 689   0.0000      36.645977       997.1877 
 690   0.0000      36.651230       997.3307 
 691   0.0000      36.661120       997.5998 
 692   0.0000      36.672240       997.9024 
 693   0.0000      36.703678       998.7578 
 694   0.0000      36.706332       998.8301 
 695   0.0000      36.718542       999.1623 
 696   0.0000      36.718853       999.1708 
 697   0.0000      36.787964      1001.0514 
 698   0.0000      36.789906      1001.1042 
 699   0.0000      36.823920      1002.0298 
 700   0.0000      36.825697      1002.0781 
 701   0.0000      36.827387      1002.1241 
 702   0.0000      36.845885      1002.6275 
 703   0.0000      36.865822      1003.1700 
 704   0.0000      36.877516      1003.4882 
 705   0.0000      36.885552      1003.7069 
 706   0.0000      36.920821      1004.6666 
 707   0.0000      36.934893      1005.0495 
 708   0.0000      36.937932      1005.1322 
 709   0.0000      36.977367      1006.2053 
 710   0.0000      37.019001      1007.3382 
 711   0.0000      37.042173      1007.9688 
 712   0.0000      37.044194      1008.0238 

                 SPIN DOWN ORBITALS
  NO   OCC          E(Eh)            E(eV) 
   0   1.0000     -10.226835      -278.2863 
   1   1.0000     -10.225821      -278.2587 
   2   1.0000     -10.221457      -278.1400 
   3   1.0000     -10.218593      -278.0620 
   4   1.0000     -10.208927      -277.7990 
   5   1.0000     -10.206324      -277.7282 
   6   1.0000     -10.205096      -277.6948 
   7   1.0000     -10.204974      -277.6915 
   8   1.0000     -10.204832      -277.6876 
   9   1.0000     -10.203951      -277.6636 
  10   1.0000     -10.203788      -277.6592 
  11   1.0000     -10.203542      -277.6525 
  12   1.0000     -10.203338      -277.6470 
  13   1.0000     -10.203115      -277.6409 
  14   1.0000     -10.202658      -277.6284 
  15   1.0000     -10.202424      -277.6221 
  16   1.0000     -10.201412      -277.5945 
  17   1.0000     -10.200154      -277.5603 
  18   1.0000     -10.199078      -277.5310 
  19   1.0000     -10.197911      -277.4993 
  20   1.0000     -10.196635      -277.4645 
  21   1.0000     -10.196422      -277.4587 
  22   1.0000     -10.190090      -277.2864 
  23   1.0000     -10.187699      -277.2214 
  24   1.0000     -10.187595      -277.2186 
  25   1.0000     -10.185204      -277.1535 
  26   1.0000     -10.182738      -277.0864 
  27   1.0000     -10.182285      -277.0741 
  28   1.0000     -10.175222      -276.8819 
  29   1.0000     -10.173538      -276.8360 
  30   1.0000      -0.868635       -23.6368 
  31   1.0000      -0.863024       -23.4841 
  32   1.0000      -0.861258       -23.4360 
  33   1.0000      -0.813566       -22.1383 
  34   1.0000      -0.796397       -21.6711 
  35   1.0000      -0.792840       -21.5743 
  36   1.0000      -0.781966       -21.2784 
  37   1.0000      -0.771861       -21.0034 
  38   1.0000      -0.762970       -20.7615 
  39   1.0000      -0.751113       -20.4388 
  40   1.0000      -0.749502       -20.3950 
  41   1.0000      -0.735808       -20.0223 
  42   1.0000      -0.723044       -19.6750 
  43   1.0000      -0.708704       -19.2848 
  44   1.0000      -0.693641       -18.8749 
  45   1.0000      -0.652177       -17.7466 
  46   1.0000      -0.644972       -17.5506 
  47   1.0000      -0.622327       -16.9344 
  48   1.0000      -0.609538       -16.5864 
[...]
     CP-SCF ITERATION   0: 
     CP-SCF ITERATION   1:      0.000002878098
     CP-SCF ITERATION   2:      0.000000997717

Forming final perturbed densities           ... done
Transforming perturbed density to AO basis  ... done

Using FinalGrid as integration grid:         ... finished setting up the grid
Time for grid setup =    0.119 sec

 Raw HFC matrix (all values in MHz): 
 ------------------------------
                -0.1020               0.0816              -0.0012
                 0.0816              -0.2782               0.0008
                -0.0012               0.0008              -0.2139

 A(FC)          -0.1980              -0.1980              -0.1980
 A(SD)           0.1280              -0.0159              -0.1121
 A(ORB+DIA)      0.0000               0.0000               0.0000    A(PC) =   0.0000
 A(ORB)          0.0001               0.0000               0.0000    A(PC) =   0.0000
 A(DIA)         -0.0000              -0.0000              -0.0000    A(PC) =  -0.0000
             ----------           ----------           ----------
 A(Tot)         -0.0700              -0.2139              -0.3102    A(iso)=   -0.1980
 Orientation: 
  X           0.9310382           -0.0012556           -0.3649195
  Y           0.3648703           -0.0135725            0.9309594
  Z          -0.0061218           -0.9999071           -0.0121784

Notes:  (1) The A matrix conforms to the "SAI" spin Hamiltonian convention.
        (2) Tensor is right-handed.

 -----------------------------------------------------------
 Nucleus  54H : A:ISTP=    1 I=  0.5 P=533.5514 MHz/au**3
                Q:ISTP=    2 I=  1.0 Q=  0.0029 barn     
 -----------------------------------------------------------
 Solving for nuclear perturbation:
Forming RHS of the CP-SCF equations         ... 
Using LibInt in CPSCF-CP

Calculating nucleus orbit integrals         ... done

------------------------------------------------------------------------------
                           ORCA CP-SCF CALCULATION
------------------------------------------------------------------------------

Input orbitals are from        ... g-tensor_EPRII.gbw
Input Perturbation             ... g-tensor_EPRII.pin.tmp
Wavefunction output            ... g-tensor_EPRII.pout.tmp
Perturbation mode              ... Imaginary perturbation
Solver                         ... POPLE
Max. number of iterations      ... 64
Convergence tolerance          ... 1.000e-06
Integral handling              ... Direct
Number of perturbations        ... 3
Number of operators            ... 2
Orbital ranges used for CP-SCF:
 Operator 0:  Orbitals   0...104  to 105...712
 Operator 1:  Orbitals   0...103  to 104...712
DFT calculation                         ... on
Variables per vector in CP-SCF ... 127176
Number of vectors sought       ... 3
     CP-SCF ITERATION   0: 
     CP-SCF ITERATION   1:      0.000002599489
     CP-SCF ITERATION   2:      0.000000911603

Forming final perturbed densities           ... done
Transforming perturbed density to AO basis  ... done

Using FinalGrid as integration grid:         ... finished setting up the grid
Time for grid setup =    0.163 sec

 Raw HFC matrix (all values in MHz): 
 ------------------------------
                -0.6142               0.2201              -0.0002
                 0.2200              -3.0541               0.0148
                -0.0002               0.0148              -2.0241

 A(FC)          -1.8977              -1.8977              -1.8977
 A(SD)           1.3034              -0.1263              -1.1770
 A(ORB+DIA)     -0.0001               0.0002               0.0008    A(PC) =   0.0003
 A(ORB)          0.0000               0.0000               0.0007    A(PC) =   0.0003
 A(DIA)         -0.0002               0.0001               0.0001    A(PC) =   0.0000
             ----------           ----------           ----------
 A(Tot)         -0.5945              -2.0239              -3.0740    A(iso)=   -1.8975
 Orientation: 
  X           0.9960190            0.0020135           -0.0891190
  Y           0.0891385           -0.0139203            0.9959220
  Z           0.0007647           -0.9999011           -0.0140443

Notes:  (1) The A matrix conforms to the "SAI" spin Hamiltonian convention.
        (2) Tensor is right-handed.

 -----------------------------------------------------------
 Nucleus  55H : A:ISTP=    1 I=  0.5 P=533.5514 MHz/au**3
                Q:ISTP=    2 I=  1.0 Q=  0.0029 barn     
 -----------------------------------------------------------
 Solving for nuclear perturbation:
Forming RHS of the CP-SCF equations         ... 
Using LibInt in CPSCF-CP

Calculating nucleus orbit integrals         ... done

------------------------------------------------------------------------------
                           ORCA CP-SCF CALCULATION
------------------------------------------------------------------------------

Input orbitals are from        ... g-tensor_EPRII.gbw
Input Perturbation             ... g-tensor_EPRII.pin.tmp
Wavefunction output            ... g-tensor_EPRII.pout.tmp
Perturbation mode              ... Imaginary perturbation
Solver                         ... POPLE
Max. number of iterations      ... 64
Convergence tolerance          ... 1.000e-06
Integral handling              ... Direct
Number of perturbations        ... 3
Number of operators            ... 2
Orbital ranges used for CP-SCF:
 Operator 0:  Orbitals   0...104  to 105...712
 Operator 1:  Orbitals   0...103  to 104...712
DFT calculation                         ... on
Variables per vector in CP-SCF ... 127176
Number of vectors sought       ... 3
     CP-SCF ITERATION   0: 
     CP-SCF ITERATION   1:      0.000002906519
     CP-SCF ITERATION   2:      0.000000986895

Forming final perturbed densities           ... done
Transforming perturbed density to AO basis  ... done

Using FinalGrid as integration grid:         ... finished setting up the grid
Time for grid setup =    0.172 sec

 Raw HFC matrix (all values in MHz): 
 ------------------------------
                 1.1596              -0.0243               0.0022
                -0.0244               0.6210              -0.0030
                 0.0022              -0.0030               0.3720

 A(FC)           0.7176               0.7176               0.7176
 A(SD)          -0.3456              -0.0977               0.4433
 A(ORB+DIA)     -0.0000               0.0001              -0.0002    A(PC) =  -0.0001
 A(ORB)         -0.0000               0.0001              -0.0002    A(PC) =  -0.0000
 A(DIA)         -0.0000               0.0000              -0.0001    A(PC) =  -0.0000
             ----------           ----------           ----------
 A(Tot)          0.3719               0.6199               1.1607    A(iso)=    0.7175
 Orientation: 
  X          -0.0024307            0.0450939           -0.9989798
  Y           0.0118682            0.9989137            0.0450621
  Z           0.9999266           -0.0117466           -0.0029633

Notes:  (1) The A matrix conforms to the "SAI" spin Hamiltonian convention.
        (2) Tensor is right-handed.

 -----------------------------------------------------------
 Nucleus  56H : A:ISTP=    1 I=  0.5 P=533.5514 MHz/au**3
                Q:ISTP=    2 I=  1.0 Q=  0.0029 barn     
 -----------------------------------------------------------
 Solving for nuclear perturbation:
Forming RHS of the CP-SCF equations         ... 
Using LibInt in CPSCF-CP

Calculating nucleus orbit integrals         ... done

------------------------------------------------------------------------------
                           ORCA CP-SCF CALCULATION
------------------------------------------------------------------------------

Input orbitals are from        ... g-tensor_EPRII.gbw
Input Perturbation             ... g-tensor_EPRII.pin.tmp
Wavefunction output            ... g-tensor_EPRII.pout.tmp
Perturbation mode              ... Imaginary perturbation
Solver                         ... POPLE
Max. number of iterations      ... 64
Convergence tolerance          ... 1.000e-06
Integral handling              ... Direct
Number of perturbations        ... 3
Number of operators            ... 2
Orbital ranges used for CP-SCF:
 Operator 0:  Orbitals   0...104  to 105...712
 Operator 1:  Orbitals   0...103  to 104...712
DFT calculation                         ... on
Variables per vector in CP-SCF ... 127176
Number of vectors sought       ... 3
     CP-SCF ITERATION   0: 
     CP-SCF ITERATION   1:      0.000004432978
     CP-SCF ITERATION   2:      0.000000020434

Forming final perturbed densities           ... done
Transforming perturbed density to AO basis  ... done

Using FinalGrid as integration grid:         ... finished setting up the grid
Time for grid setup =    0.153 sec

 Raw HFC matrix (all values in MHz): 
 ------------------------------
                -1.0292               0.5677               0.0038
                 0.5673              -1.5482              -0.0071
                 0.0038              -0.0071              -2.5848

 A(FC)          -1.7212              -1.7212              -1.7212
 A(SD)           1.0560              -0.1921              -0.8639
 A(ORB+DIA)      0.0005               0.0006               0.0002    A(PC) =   0.0004
 A(ORB)          0.0006               0.0007               0.0000    A(PC) =   0.0004
 A(DIA)         -0.0001              -0.0001               0.0002    A(PC) =  -0.0000
             ----------           ----------           ----------
 A(Tot)         -0.6647              -1.9127              -2.5849    A(iso)=   -1.7208
 Orientation: 
  X           0.8413446           -0.5404642           -0.0061373
  Y           0.5404989            0.8412832            0.0101710
  Z          -0.0003339           -0.0118745            0.9999294

Notes:  (1) The A matrix conforms to the "SAI" spin Hamiltonian convention.
        (2) Tensor is right-handed.

 -----------------------------------------------------------
 Nucleus  57H : A:ISTP=    1 I=  0.5 P=533.5514 MHz/au**3
                Q:ISTP=    2 I=  1.0 Q=  0.0029 barn     
 -----------------------------------------------------------
 Solving for nuclear perturbation:
Forming RHS of the CP-SCF equations         ... 
Using LibInt in CPSCF-CP

Calculating nucleus orbit integrals         ... done

------------------------------------------------------------------------------
                           ORCA CP-SCF CALCULATION
------------------------------------------------------------------------------

Input orbitals are from        ... g-tensor_EPRII.gbw
Input Perturbation             ... g-tensor_EPRII.pin.tmp
Wavefunction output            ... g-tensor_EPRII.pout.tmp
Perturbation mode              ... Imaginary perturbation
Solver                         ... POPLE
Max. number of iterations      ... 64
Convergence tolerance          ... 1.000e-06
Integral handling              ... Direct
Number of perturbations        ... 3
Number of operators            ... 2
Orbital ranges used for CP-SCF:
 Operator 0:  Orbitals   0...104  to 105...712
 Operator 1:  Orbitals   0...103  to 104...712
DFT calculation                         ... on
Variables per vector in CP-SCF ... 127176
Number of vectors sought       ... 3
     CP-SCF ITERATION   0: 
     CP-SCF ITERATION   1:      0.000003951444
     CP-SCF ITERATION   2:      0.000000018611

Forming final perturbed densities           ... done
Transforming perturbed density to AO basis  ... done

Using FinalGrid as integration grid:         ... finished setting up the grid
Time for grid setup =    0.123 sec

 Raw HFC matrix (all values in MHz): 
 ------------------------------
                -1.8854              -0.2117               0.0043
                -0.2114              -1.0351              -0.0110
                 0.0043              -0.0110              -2.2719

 A(FC)          -1.7310              -1.7310              -1.7310
 A(SD)           0.7459              -0.2048              -0.5411
 A(ORB+DIA)     -0.0001               0.0007               0.0001    A(PC) =   0.0002
 A(ORB)          0.0000               0.0008               0.0000    A(PC) =   0.0003
 A(DIA)         -0.0001              -0.0001               0.0001    A(PC) =  -0.0001
             ----------           ----------           ----------
 A(Tot)         -0.9853              -1.9352              -2.2720    A(iso)=   -1.7308
 Orientation: 
  X          -0.2289160            0.9734224            0.0068099
  Y           0.9734039            0.2289657           -0.0077154
  Z          -0.0090696            0.0048626           -0.9999470

Notes:  (1) The A matrix conforms to the "SAI" spin Hamiltonian convention.
        (2) Tensor is right-handed.

 -----------------------------------------------------------
 Nucleus  58H : A:ISTP=    1 I=  0.5 P=533.5514 MHz/au**3
                Q:ISTP=    2 I=  1.0 Q=  0.0029 barn     
 -----------------------------------------------------------
 Solving for nuclear perturbation:
Forming RHS of the CP-SCF equations         ... 
Using LibInt in CPSCF-CP

Calculating nucleus orbit integrals         ... done

------------------------------------------------------------------------------
                           ORCA CP-SCF CALCULATION
------------------------------------------------------------------------------

Input orbitals are from        ... g-tensor_EPRII.gbw
Input Perturbation             ... g-tensor_EPRII.pin.tmp
Wavefunction output            ... g-tensor_EPRII.pout.tmp
Perturbation mode              ... Imaginary perturbation
Solver                         ... POPLE
Max. number of iterations      ... 64
Convergence tolerance          ... 1.000e-06
Integral handling              ... Direct
Number of perturbations        ... 3
Number of operators            ... 2
Orbital ranges used for CP-SCF:
 Operator 0:  Orbitals   0...104  to 105...712
 Operator 1:  Orbitals   0...103  to 104...712
DFT calculation                         ... on
Variables per vector in CP-SCF ... 127176
Number of vectors sought       ... 3
     CP-SCF ITERATION   0: 
     CP-SCF ITERATION   1:      0.000002997450
     CP-SCF ITERATION   2:      0.000000929470

Forming final perturbed densities           ... done
Transforming perturbed density to AO basis  ... done

Using FinalGrid as integration grid:         ... finished setting up the grid
Time for grid setup =    0.179 sec

 Raw HFC matrix (all values in MHz): 
 ------------------------------
                 1.3228               0.2443              -0.0005
                 0.2442               0.5148              -0.0024
                -0.0005              -0.0024               0.3128

 A(FC)           0.7169               0.7169               0.7169
 A(SD)          -0.4041              -0.2702               0.6742
 A(ORB+DIA)     -0.0000               0.0001              -0.0002    A(PC) =  -0.0000
 A(ORB)         -0.0000               0.0001              -0.0002    A(PC) =  -0.0000
 A(DIA)          0.0000               0.0000              -0.0000    A(PC) =  -0.0000
             ----------           ----------           ----------
 A(Tot)          0.3128               0.4468               1.3909    A(iso)=    0.7168
 Orientation: 
  X          -0.0033262           -0.2685992           -0.9632463
  Y           0.0157715            0.9631177           -0.2686178
  Z           0.9998701           -0.0160854            0.0010327

Notes:  (1) The A matrix conforms to the "SAI" spin Hamiltonian convention.
        (2) Tensor is right-handed.


------------------------------------------------------------------------------- 
----------------------------------------------------------------------------
                           ORCA EULER ANGLE PROGRAM
----------------------------------------------------------------------------

Only g-tensor available        -->  using g-tensor as reference tensor

Reference tensor               ...  g

g-tensor ordering              ...  |g_min> --> |gx>
                                    |g_mid> --> |gy>
                                    |g_max> --> |gz>

A- and EFG-tensor ordering     ...  the axes |Ax>, |Qx>, |Ay>, etc. are assigned
                                    such that the Euler rotation is minimal. You
                                    can find the respective eigenvalues as Ax,
                                    EFGx, Ay, etc. in the tables below.
                                    The relation of |Ax>, |Ay>,  etc. to Amin, Amid, etc.
                                    (as printed in the ORCA EPR/NMR CALCULATION Output)
                                    is obtained in the detailed printout.

Euler rotation around          ...  z - y - z
   First rotation              -->  by alpha around z
   Second rotation             -->  by beta around y'
   Third rotation              -->  by gamma around z''
   Positive / Negative angle   -->  clockwise / counterclockwise rotation

Plot EFG-tensors                    (-)
Plot HFC-tensors                    (-)
Detailed Printout                   (-)

-------------------------------------------------------------------------
          Euler rotation of hyperfine tensor to g-tensor
-------------------------------------------------------------------------

-------------------------------------------------------------------
 Atom  |   Alpha    Beta    Gamma   |   Ax       Ay       Az 
       |          [degrees]         |           [MHz]         
-------------------------------------------------------------------
  9H       90.0     14.7    -90.0     -16.69    -7.68   -20.11
 10H       90.0     17.6    -90.0       4.22     4.95     9.53
 12H      -90.1     35.1     90.1     -48.35   -20.19   -73.34
 14H       56.7     16.3    -37.3      68.09    77.62    69.58
 15H      123.1     16.3   -142.3      67.92    77.44    69.40
 17H       -9.2     19.7     43.4      -3.32    -3.14     2.95
 18H     -170.9     19.7    136.8      -3.31    -3.14     2.95
 20H      117.9     53.3   -145.7      -0.00     2.32     0.11
 21H       62.1     53.3    -34.1      -0.00     2.32     0.11
 23H      111.6     19.8   -151.9      23.82    24.42    27.48
 24H       68.5     19.8    -28.0      23.84    24.44    27.50
 26H       79.9     41.2    -92.9      -1.02     0.91    -0.89
 27H      100.0     41.2    -86.9      -1.02     0.91    -0.89
 29H      -83.4     19.7    116.7      -0.09    -0.13     0.82
 30H      -96.8     19.7     63.6      -0.09    -0.13     0.82
 32H      -98.2     36.2    102.7      -0.12    -0.10     0.38
 33H      -81.8     36.2     77.5      -0.12    -0.10     0.38
 35H      -91.1     27.8     90.0      -0.83    -0.84     0.71
 36H      -89.7     26.0     90.1      -0.13    -0.13     0.24
 43H      -89.3     33.5     89.2       0.55     0.35     0.95
 44H       89.0     19.4    -89.3      -0.20    -0.34    -0.06
 45H      -89.5     24.0     89.3       0.42     1.27     0.05
 46H       89.4     33.9    -89.6       0.47     0.07     1.21
 47H      -88.3     15.7     88.0      -0.21    -0.07    -0.31
 54H      -88.9     32.0     88.8      -2.02    -0.59    -3.07
 55H      -89.2     39.7     89.2       0.37     1.16     0.62
 56H      -82.9      4.4     83.0      -2.58    -0.66    -1.91
 57H      -88.9     23.9     89.1      -2.27    -1.94    -0.99
 58H      -88.1     21.6     87.9       0.31     1.39     0.45
-------------------------------------------------------------------


Timings for individual modules:

Sum of individual times         ...     8499.931 sec (= 141.666 min)
GTO integral calculation        ...        1.763 sec (=   0.029 min)   0.0 %
Spin-Orbit-Coupling Matrices    ...       38.947 sec (=   0.649 min)   0.5 %
SCF iterations                  ...      293.276 sec (=   4.888 min)   3.5 %
EPR/NMR calculation             ...     8165.945 sec (= 136.099 min)  96.1 %
                             ****ORCA TERMINATED NORMALLY****
TOTAL RUN TIME: 0 days 2 hours 21 minutes 41 seconds 63 msec
