
                                 *****************
                                 * O   R   C   A *
                                 *****************

                                            #,                                       
                                            ###                                      
                                            ####                                     
                                            #####                                    
                                            ######                                   
                                           ########,                                 
                                     ,,################,,,,,                         
                               ,,#################################,,                 
                          ,,##########################################,,             
                       ,#########################################, ''#####,          
                    ,#############################################,,   '####,        
                  ,##################################################,,,,####,       
                ,###########''''           ''''###############################       
              ,#####''   ,,,,##########,,,,          '''####'''          '####       
            ,##' ,,,,###########################,,,                        '##       
           ' ,,###''''                  '''############,,,                           
         ,,##''                                '''############,,,,        ,,,,,,###''
      ,#''                                            '''#######################'''  
     '                                                          ''''####''''         
             ,#######,   #######,   ,#######,      ##                                
            ,#'     '#,  ##    ##  ,#'     '#,    #''#        ######   ,####,        
            ##       ##  ##   ,#'  ##            #'  '#       #        #'  '#        
            ##       ##  #######   ##           ,######,      #####,   #    #        
            '#,     ,#'  ##    ##  '#,     ,#' ,#      #,         ##   #,  ,#        
             '#######'   ##     ##  '#######'  #'      '#     #####' # '####'        



                  #######################################################
                  #                        -***-                        #
                  #          Department of theory and spectroscopy      #
                  #    Directorship and core code : Frank Neese         #
                  #        Max Planck Institute fuer Kohlenforschung    #
                  #                Kaiser Wilhelm Platz 1               #
                  #                 D-45470 Muelheim/Ruhr               #
                  #                      Germany                        #
                  #                                                     #
                  #                  All rights reserved                #
                  #                        -***-                        #
                  #######################################################


                         Program Version 5.0.4 -  RELEASE  -


 With contributions from (in alphabetic order):
   Daniel Aravena         : Magnetic Suceptibility
   Michael Atanasov       : Ab Initio Ligand Field Theory (pilot matlab implementation)
   Alexander A. Auer      : GIAO ZORA, VPT2 properties, NMR spectrum
   Ute Becker             : Parallelization
   Giovanni Bistoni       : ED, misc. LED, open-shell LED, HFLD
   Martin Brehm           : Molecular dynamics
   Dmytro Bykov           : SCF Hessian
   Vijay G. Chilkuri      : MRCI spin determinant printing, contributions to CSF-ICE
   Dipayan Datta          : RHF DLPNO-CCSD density
   Achintya Kumar Dutta   : EOM-CC, STEOM-CC
   Dmitry Ganyushin       : Spin-Orbit,Spin-Spin,Magnetic field MRCI
   Miquel Garcia          : C-PCM and meta-GGA Hessian, CC/C-PCM, Gaussian charge scheme
   Yang Guo               : DLPNO-NEVPT2, F12-NEVPT2, CIM, IAO-localization
   Andreas Hansen         : Spin unrestricted coupled pair/coupled cluster methods
   Benjamin Helmich-Paris : MC-RPA, TRAH-SCF, COSX integrals
   Lee Huntington         : MR-EOM, pCC
   Robert Izsak           : Overlap fitted RIJCOSX, COSX-SCS-MP3, EOM
   Marcus Kettner         : VPT2
   Christian Kollmar      : KDIIS, OOCD, Brueckner-CCSD(T), CCSD density, CASPT2, CASPT2-K
   Simone Kossmann        : Meta GGA functionals, TD-DFT gradient, OOMP2, MP2 Hessian
   Martin Krupicka        : Initial AUTO-CI
   Lucas Lang             : DCDCAS
   Marvin Lechner         : AUTO-CI (C++ implementation), FIC-MRCC
   Dagmar Lenk            : GEPOL surface, SMD
   Dimitrios Liakos       : Extrapolation schemes; Compound Job, initial MDCI parallelization
   Dimitrios Manganas     : Further ROCIS development; embedding schemes
   Dimitrios Pantazis     : SARC Basis sets
   Anastasios Papadopoulos: AUTO-CI, single reference methods and gradients
   Taras Petrenko         : DFT Hessian,TD-DFT gradient, ASA, ECA, R-Raman, ABS, FL, XAS/XES, NRVS
   Peter Pinski           : DLPNO-MP2, DLPNO-MP2 Gradient
   Christoph Reimann      : Effective Core Potentials
   Marius Retegan         : Local ZFS, SOC
   Christoph Riplinger    : Optimizer, TS searches, QM/MM, DLPNO-CCSD(T), (RO)-DLPNO pert. Triples
   Tobias Risthaus        : Range-separated hybrids, TD-DFT gradient, RPA, STAB
   Michael Roemelt        : Original ROCIS implementation
   Masaaki Saitow         : Open-shell DLPNO-CCSD energy and density
   Barbara Sandhoefer     : DKH picture change effects
   Avijit Sen             : IP-ROCIS
   Kantharuban Sivalingam : CASSCF convergence, NEVPT2, FIC-MRCI
   Bernardo de Souza      : ESD, SOC TD-DFT
   Georgi Stoychev        : AutoAux, RI-MP2 NMR, DLPNO-MP2 response
   Willem Van den Heuvel  : Paramagnetic NMR
   Boris Wezisla          : Elementary symmetry handling
   Frank Wennmohs         : Technical directorship


 We gratefully acknowledge several colleagues who have allowed us to
 interface, adapt or use parts of their codes:
   Stefan Grimme, W. Hujo, H. Kruse, P. Pracht,  : VdW corrections, initial TS optimization,
                  C. Bannwarth, S. Ehlert          DFT functionals, gCP, sTDA/sTD-DF
   Ed Valeev, F. Pavosevic, A. Kumar             : LibInt (2-el integral package), F12 methods
   Garnet Chan, S. Sharma, J. Yang, R. Olivares  : DMRG
   Ulf Ekstrom                                   : XCFun DFT Library
   Mihaly Kallay                                 : mrcc  (arbitrary order and MRCC methods)
   Jiri Pittner, Ondrej Demel                    : Mk-CCSD
   Frank Weinhold                                : gennbo (NPA and NBO analysis)
   Christopher J. Cramer and Donald G. Truhlar   : smd solvation model
   Lars Goerigk                                  : TD-DFT with DH, B97 family of functionals
   V. Asgeirsson, H. Jonsson                     : NEB implementation
   FAccTs GmbH                                   : IRC, NEB, NEB-TS, DLPNO-Multilevel, CI-OPT
                                                   MM, QMMM, 2- and 3-layer-ONIOM, Crystal-QMMM,
                                                   LR-CPCM, SF, NACMEs, symmetry and pop. for TD-DFT,
                                                   nearIR, NL-DFT gradient (VV10), updates on ESD,
                                                   ML-optimized integration grids
   S Lehtola, MJT Oliveira, MAL Marques          : LibXC Library
   Liviu Ungur et al                             : ANISO software


 Your calculation uses the libint2 library for the computation of 2-el integrals
 For citations please refer to: http://libint.valeyev.net

 Your ORCA version has been built with support for libXC version: 5.1.0
 For citations please refer to: https://tddft.org/programs/libxc/

 This ORCA versions uses:
   CBLAS   interface :  Fast vector & matrix operations
   LAPACKE interface :  Fast linear algebra routines
   SCALAPACK package :  Parallel linear algebra routines
   Shared memory     :  Shared parallel matrices
   BLAS/LAPACK       :  OpenBLAS 0.3.15  USE64BITINT DYNAMIC_ARCH NO_AFFINITY SkylakeX SINGLE_THREADED
        Core in use  :  SkylakeX
   Copyright (c) 2011-2014, The OpenBLAS Project




***************************************
The coordinates will be read from file: opt.xyz
***************************************


================================================================================

----- Orbital basis set information -----
Your calculation utilizes the basis: EPR-II
   V. Barone, in Recent Advances in Density Functional Methods, Part 1 (ed. D. P. Chong), World Scientific, Singapore, 1995, p. 287.

----- AuxJ basis set information -----
Your calculation utilizes the auxiliary basis: def2/J
   F. Weigend, Phys. Chem. Chem. Phys. 8, 1057 (2006).

================================================================================
                                        WARNINGS
                       Please study these warnings very carefully!
================================================================================


WARNING: your system is open-shell and RHF/RKS was chosen
  ===> : WILL SWITCH to UHF/UKS


INFO   : the flag for use of the SHARK integral package has been found!

================================================================================
                                       INPUT FILE
================================================================================
NAME = BDE.inp
|  1> ! B3LYP EPR-II FREQ
|  2> %pal nprocs 16 end
|  3> *XYZFile 0 2 opt.xyz
|  4> 
|  5>                          ****END OF INPUT****
================================================================================

                       ****************************
                       * Single Point Calculation *
                       ****************************

---------------------------------
CARTESIAN COORDINATES (ANGSTROEM)
---------------------------------
  C      2.831806   -0.006236   -0.008272
  C     -1.314139   -0.014773   -0.012929
  C     -0.703841   -1.259958   -0.014279
  C      0.699293   -1.203568   -0.012429
  C      1.402358    0.023007   -0.009542
  C      0.708612    1.263431   -0.008102
  C     -0.699666    1.217589   -0.009942
  H      1.283513   -2.125515   -0.013363
  H     -1.285093    2.138713   -0.009038
  C     -1.509688   -2.548043   -0.017242
  H     -2.182378   -2.530206   -0.894243
  H     -2.180594   -2.535322    0.861245
  C     -0.708611   -3.852555   -0.021718
  H     -0.045377   -3.880501   -0.905977
  H     -0.045441   -3.886600    0.862377
  C     -1.603186   -5.097748   -0.025923
  H     -2.269586   -5.070311    0.856270
  H     -2.268554   -5.065066   -0.908715
  C     -0.811642   -6.407882   -0.029365
  H     -0.163127   -6.486668    0.860305
  H     -0.161649   -6.481086   -0.918435
  C      1.483960    2.566701   -0.004836
  H      2.159953    2.562804    0.870276
  H      2.160515    2.566853   -0.879537
  C      0.662999    3.858831   -0.002137
  H      0.000591    3.884733   -0.887173
  H     -0.000881    3.880108    0.881917
  C      1.540854    5.116159    0.001806
  H      2.206133    5.092323    0.884894
  H      2.207958    5.096581   -0.880007
  C      0.732381    6.415841    0.004122
  H      0.081081    6.481192    0.892854
  H      0.083265    6.485731   -0.885860
  C      4.053310   -0.041189   -0.009378
  H     -1.480462   -7.283854   -0.032687
  H      1.389551    7.300598    0.007195
  C      5.481187   -0.085650   -0.008586
  C      6.162322   -1.322563   -0.012255
  C      7.556386   -1.361278   -0.011394
  C      8.297343   -0.174069   -0.006934
  C      7.632552    1.057518   -0.003328
  C      6.238850    1.105969   -0.004137
  H      9.389310   -0.208771   -0.006270
  H      8.204901    1.988374    0.000175
  H      5.582883   -2.247731   -0.015759
  H      5.718665    2.065740   -0.001296
  H      8.069533   -2.326054   -0.014261

----------------------------
CARTESIAN COORDINATES (A.U.)
----------------------------
  NO LB      ZA    FRAG     MASS         X           Y           Z
   0 C     6.0000    0    12.011    5.351338   -0.011785   -0.015631
   1 C     6.0000    0    12.011   -2.483364   -0.027917   -0.024431
   2 C     6.0000    0    12.011   -1.330066   -2.380976   -0.026983
   3 C     6.0000    0    12.011    1.321473   -2.274413   -0.023487
   4 C     6.0000    0    12.011    2.650073    0.043478   -0.018032
   5 C     6.0000    0    12.011    1.339083    2.387539   -0.015311
   6 C     6.0000    0    12.011   -1.322177    2.300909   -0.018788
   7 H     1.0000    0     1.008    2.425488   -4.016642   -0.025253
   8 H     1.0000    0     1.008   -2.428474    4.041583   -0.017079
   9 C     6.0000    0    12.011   -2.852898   -4.815103   -0.032583
  10 H     1.0000    0     1.008   -4.124097   -4.781396   -1.689874
  11 H     1.0000    0     1.008   -4.120726   -4.791064    1.627518
  12 C     6.0000    0    12.011   -1.339080   -7.280273   -0.041042
  13 H     1.0000    0     1.008   -0.085750   -7.333084   -1.712048
  14 H     1.0000    0     1.008   -0.085871   -7.344609    1.629656
  15 C     6.0000    0    12.011   -3.029583   -9.633348   -0.048987
  16 H     1.0000    0     1.008   -4.288897   -9.581498    1.618115
  17 H     1.0000    0     1.008   -4.286946   -9.571588   -1.717223
  18 C     6.0000    0    12.011   -1.533781  -12.109141   -0.055493
  19 H     1.0000    0     1.008   -0.308266  -12.258027    1.625740
  20 H     1.0000    0     1.008   -0.305472  -12.247478   -1.735591
  21 C     6.0000    0    12.011    2.804278    4.850361   -0.009138
  22 H     1.0000    0     1.008    4.081720    4.842998    1.644584
  23 H     1.0000    0     1.008    4.082782    4.850648   -1.662084
  24 C     6.0000    0    12.011    1.252887    7.292135   -0.004038
  25 H     1.0000    0     1.008    0.001116    7.341081   -1.676515
  26 H     1.0000    0     1.008   -0.001665    7.332341    1.666581
  27 C     6.0000    0    12.011    2.911791    9.668140    0.003413
  28 H     1.0000    0     1.008    4.168988    9.623096    1.672208
  29 H     1.0000    0     1.008    4.172435    9.631142   -1.662972
  30 C     6.0000    0    12.011    1.384000   12.124183    0.007789
  31 H     1.0000    0     1.008    0.153221   12.247679    1.687249
  32 H     1.0000    0     1.008    0.157348   12.256256   -1.674034
  33 C     6.0000    0    12.011    7.659646   -0.077837   -0.017722
  34 H     1.0000    0     1.008   -2.797668  -13.764489   -0.061769
  35 H     1.0000    0     1.008    2.625870   13.796131    0.013597
  36 C     6.0000    0    12.011   10.357943   -0.161856   -0.016225
  37 C     6.0000    0    12.011   11.645101   -2.499282   -0.023159
  38 C     6.0000    0    12.011   14.279499   -2.572442   -0.021531
  39 C     6.0000    0    12.011   15.679706   -0.328942   -0.013103
  40 C     6.0000    0    12.011   14.423433    1.998419   -0.006290
  41 C     6.0000    0    12.011   11.789718    2.089978   -0.007818
  42 H     1.0000    0     1.008   17.743224   -0.394519   -0.011848
  43 H     1.0000    0     1.008   15.505016    3.757482    0.000330
  44 H     1.0000    0     1.008   10.550119   -4.247595   -0.029780
  45 H     1.0000    0     1.008   10.806712    3.903684   -0.002449
  46 H     1.0000    0     1.008   15.249208   -4.395604   -0.026950

--------------------------------
INTERNAL COORDINATES (ANGSTROEM)
--------------------------------
 C      0   0   0     0.000000000000     0.00000000     0.00000000
 C      1   0   0     4.145956972330     0.00000000     0.00000000
 C      2   1   0     1.386705572751    64.00736294     0.00000000
 C      3   2   1     1.404267951800   113.80917769     0.00000000
 C      4   3   2     1.413787197441   122.12254984     0.00000000
 C      5   4   3     1.421244947863   120.96152510     0.00000000
 C      2   1   3     1.377062606787    63.38045054   179.98672725
 H      4   3   2     1.091467392313   120.06006875   180.00610204
 H      7   2   1     1.091419179036   121.06025554   179.99031170
 C      3   2   1     1.519395131551   121.85854189   179.99808656
 H     10   3   2     1.105422690072   108.09656554    56.50943260
 H     10   3   2     1.105448549626   108.09435705   303.20586723
 C     10   3   2     1.530848508559   116.41604721   179.86468520
 H     13  10   3     1.105700237225   109.74058441   301.89712942
 H     13  10   3     1.105702136890   109.74013782    58.23028527
 C     13  10   3     1.533228643071   112.75261366   180.05856701
 H     16  13  10     1.105940861893   109.22236151   302.36419181
 H     16  13  10     1.105940819044   109.22117694    57.72338683
 C     16  13  10     1.530687250755   113.16674899   180.04284764
 H     19  16  13     1.103762615619   111.29155407    59.87662583
 H     19  16  13     1.103764246698   111.29080235   300.15912779
 C      6   5   4     1.516471559442   120.03309389   179.99259452
 H     22   6   5     1.105804072622   108.13345201   303.69586697
 H     22   6   5     1.105816078214   108.13311618    56.41713002
 C     22   6   5     1.530877596450   116.82062797   180.05506339
 H     25  22   6     1.105778211995   109.85295917   301.70259723
 H     25  22   6     1.105776140534   109.85320595    58.23059783
 C     25  22   6     1.533465937956   112.64776606   179.96973985
 H     28  25  22     1.105898182379   109.19355319   302.31931063
 H     28  25  22     1.105895613498   109.19346700    57.64583295
 C     28  25  22     1.530622738703   113.19389718   179.98322094
 H     31  28  25     1.103769590186   111.29474515    59.84551868
 H     31  28  25     1.103768522177   111.29528239   300.12698471
 C      1   2   3     1.222004700144   178.23912351     3.69132463
 H     19  16  13     1.102115396255   111.49874449   180.01907338
 H     31  28  25     1.102123287121   111.51248324   179.98555342
 C     34   1   5     1.428569279574   179.83309015   317.50147920
 C     37  34   1     1.412059114205   120.62367126    30.27733087
 C     38  37  34     1.394601310200   120.43094264   180.00345416
 C     39  38  37     1.399465157304   120.37816545     0.00000000
 C     40  39  38     1.399559028655   119.67181994     0.00000000
 C     41  40  39     1.394544231546   120.35030040     0.00000000
 H     40  39  38     1.092518596414   120.14873255   179.99977903
 H     41  40  39     1.092743427941   120.05497762   179.99924884
 H     38  37  34     1.091649007667   119.10064703     0.00000000
 H     42  41  40     1.091678109648   120.44798239   179.99797555
 H     39  38  37     1.092758465741   119.59829225   179.99953192

---------------------------
INTERNAL COORDINATES (A.U.)
---------------------------
 C      0   0   0     0.000000000000     0.00000000     0.00000000
 C      1   0   0     7.834723240724     0.00000000     0.00000000
 C      2   1   0     2.620493760881    64.00736294     0.00000000
 C      3   2   1     2.653681847544   113.80917769     0.00000000
 C      4   3   2     2.671670614808   122.12254984     0.00000000
 C      5   4   3     2.685763720680   120.96152510     0.00000000
 C      2   1   3     2.602271196091    63.38045054   179.98672725
 H      4   3   2     2.062574455578   120.06006875   180.00610204
 H      7   2   1     2.062483345686   121.06025554   179.99031170
 C      3   2   1     2.871240687844   121.85854189   179.99808656
 H     10   3   2     2.088946146458   108.09656554    56.50943260
 H     10   3   2     2.088995013933   108.09435705   303.20586723
 C     10   3   2     2.892884433698   116.41604721   179.86468520
 H     13  10   3     2.089470634567   109.74058441   301.89712942
 H     13  10   3     2.089474224414   109.74013782    58.23028527
 C     13  10   3     2.897382236087   112.75261366   180.05856701
 H     16  13  10     2.089925349290   109.22236151   302.36419181
 H     16  13  10     2.089925268318   109.22117694    57.72338683
 C     16  13  10     2.892579700612   113.16674899   180.04284764
 H     19  16  13     2.085809060381   111.29155407    59.87662583
 H     19  16  13     2.085812142674   111.29080235   300.15912779
 C      6   5   4     2.865715937226   120.03309389   179.99259452
 H     22   6   5     2.089666855030   108.13345201   303.69586697
 H     22   6   5     2.089689542312   108.13311618    56.41713002
 C     22   6   5     2.892939401846   116.82062797   180.05506339
 H     25  22   6     2.089617985527   109.85295917   301.70259723
 H     25  22   6     2.089614071033   109.85320595    58.23059783
 C     25  22   6     2.897830658434   112.64776606   179.96973985
 H     28  25  22     2.089844696697   109.19355319   302.31931063
 H     28  25  22     2.089839842217   109.19346700    57.64583295
 C     28  25  22     2.892457790501   113.19389718   179.98322094
 H     31  28  25     2.085822240402   111.29474515    59.84551868
 H     31  28  25     2.085820222158   111.29528239   300.12698471
 C      1   2   3     2.309254217638   178.23912351     3.69132463
 H     19  16  13     2.082696266900   111.49874449   180.01907338
 H     31  28  25     2.082711178476   111.51248324   179.98555342
 C     34   1   5     2.699604701728   179.83309015   317.50147920
 C     37  34   1     2.668405010756   120.62367126    30.27733087
 C     38  37  34     2.635414542286   120.43094264   180.00345416
 C     39  38  37     2.644605881270   120.37816545     0.00000000
 C     40  39  38     2.644783272414   119.67181994     0.00000000
 C     41  40  39     2.635306679262   120.35030040     0.00000000
 H     40  39  38     2.064560943438   120.14873255   179.99977903
 H     41  40  39     2.064985813450   120.05497762   179.99924884
 H     38  37  34     2.062917658858   119.10064703     0.00000000
 H     42  41  40     2.062972653632   120.44798239   179.99797555
 H     39  38  37     2.065014230774   119.59829225   179.99953192

---------------------
BASIS SET INFORMATION
---------------------
There are 2 groups of distinct atoms

 Group   1 Type C   : 10s5p1d contracted to 6s2p1d pattern {511111/41/1}
 Group   2 Type H   : 6s1p contracted to 4s1p pattern {3111/1}

Atom   0C    basis set group =>   1
Atom   1C    basis set group =>   1
Atom   2C    basis set group =>   1
Atom   3C    basis set group =>   1
Atom   4C    basis set group =>   1
Atom   5C    basis set group =>   1
Atom   6C    basis set group =>   1
Atom   7H    basis set group =>   2
Atom   8H    basis set group =>   2
Atom   9C    basis set group =>   1
Atom  10H    basis set group =>   2
Atom  11H    basis set group =>   2
Atom  12C    basis set group =>   1
Atom  13H    basis set group =>   2
Atom  14H    basis set group =>   2
Atom  15C    basis set group =>   1
Atom  16H    basis set group =>   2
Atom  17H    basis set group =>   2
Atom  18C    basis set group =>   1
Atom  19H    basis set group =>   2
Atom  20H    basis set group =>   2
Atom  21C    basis set group =>   1
Atom  22H    basis set group =>   2
Atom  23H    basis set group =>   2
Atom  24C    basis set group =>   1
Atom  25H    basis set group =>   2
Atom  26H    basis set group =>   2
Atom  27C    basis set group =>   1
Atom  28H    basis set group =>   2
Atom  29H    basis set group =>   2
Atom  30C    basis set group =>   1
Atom  31H    basis set group =>   2
Atom  32H    basis set group =>   2
Atom  33C    basis set group =>   1
Atom  34H    basis set group =>   2
Atom  35H    basis set group =>   2
Atom  36C    basis set group =>   1
Atom  37C    basis set group =>   1
Atom  38C    basis set group =>   1
Atom  39C    basis set group =>   1
Atom  40C    basis set group =>   1
Atom  41C    basis set group =>   1
Atom  42H    basis set group =>   2
Atom  43H    basis set group =>   2
Atom  44H    basis set group =>   2
Atom  45H    basis set group =>   2
Atom  46H    basis set group =>   2
---------------------------------
AUXILIARY/J BASIS SET INFORMATION
---------------------------------
There are 2 groups of distinct atoms

 Group   1 Type C   : 12s5p4d2f1g contracted to 6s4p3d1f1g pattern {711111/2111/211/2/1}
 Group   2 Type H   : 5s2p1d contracted to 3s1p1d pattern {311/2/1}

Atom   0C    basis set group =>   1
Atom   1C    basis set group =>   1
Atom   2C    basis set group =>   1
Atom   3C    basis set group =>   1
Atom   4C    basis set group =>   1
Atom   5C    basis set group =>   1
Atom   6C    basis set group =>   1
Atom   7H    basis set group =>   2
Atom   8H    basis set group =>   2
Atom   9C    basis set group =>   1
Atom  10H    basis set group =>   2
Atom  11H    basis set group =>   2
Atom  12C    basis set group =>   1
Atom  13H    basis set group =>   2
Atom  14H    basis set group =>   2
Atom  15C    basis set group =>   1
Atom  16H    basis set group =>   2
Atom  17H    basis set group =>   2
Atom  18C    basis set group =>   1
Atom  19H    basis set group =>   2
Atom  20H    basis set group =>   2
Atom  21C    basis set group =>   1
Atom  22H    basis set group =>   2
Atom  23H    basis set group =>   2
Atom  24C    basis set group =>   1
Atom  25H    basis set group =>   2
Atom  26H    basis set group =>   2
Atom  27C    basis set group =>   1
Atom  28H    basis set group =>   2
Atom  29H    basis set group =>   2
Atom  30C    basis set group =>   1
Atom  31H    basis set group =>   2
Atom  32H    basis set group =>   2
Atom  33C    basis set group =>   1
Atom  34H    basis set group =>   2
Atom  35H    basis set group =>   2
Atom  36C    basis set group =>   1
Atom  37C    basis set group =>   1
Atom  38C    basis set group =>   1
Atom  39C    basis set group =>   1
Atom  40C    basis set group =>   1
Atom  41C    basis set group =>   1
Atom  42H    basis set group =>   2
Atom  43H    basis set group =>   2
Atom  44H    basis set group =>   2
Atom  45H    basis set group =>   2
Atom  46H    basis set group =>   2


           ************************************************************
           *        Program running with 16 parallel MPI-processes    *
           *              working on a common directory               *
           ************************************************************
------------------------------------------------------------------------------
                           ORCA GTO INTEGRAL CALCULATION
                           -- RI-GTO INTEGRALS CHOSEN --
------------------------------------------------------------------------------
------------------------------------------------------------------------------
                   ___                                                        
                  /   \      - P O W E R E D   B Y -                         
                 /     \                                                     
                 |  |  |   _    _      __       _____    __    __             
                 |  |  |  | |  | |    /  \     |  _  \  |  |  /  |          
                  \  \/   | |  | |   /    \    | | | |  |  | /  /          
                 / \  \   | |__| |  /  /\  \   | |_| |  |  |/  /          
                |  |  |   |  __  | /  /__\  \  |    /   |      \           
                |  |  |   | |  | | |   __   |  |    \   |  |\   \          
                \     /   | |  | | |  |  |  |  | |\  \  |  | \   \       
                 \___/    |_|  |_| |__|  |__|  |_| \__\ |__|  \__/        
                                                                              
                      - O R C A' S   B I G   F R I E N D -                    
                                      &                                       
                       - I N T E G R A L  F E E D E R -                       
                                                                              
 v1 FN, 2020, v2 2021                                                         
------------------------------------------------------------------------------


Reading SHARK input file BDE.SHARKINP.tmp ... ok
----------------------
SHARK INTEGRAL PACKAGE
----------------------

Number of atoms                             ...     47
Number of basis functions                   ...    549
Number of shells                            ...    323
Maximum angular momentum                    ...      2
Integral batch strategy                     ... SHARK/LIBINT Hybrid
RI-J (if used) integral strategy            ... SPLIT-RIJ (Revised 2003 algorithm where possible)
Printlevel                                  ...      1
Contraction scheme used                     ... SEGMENTED contraction
Coulomb Range Separation                    ... NOT USED
Exchange Range Separation                   ... NOT USED
Finite Nucleus Model                        ... NOT USED
Auxiliary Coulomb fitting basis             ... AVAILABLE
   # of basis functions in Aux-J            ...   1353
   # of shells in Aux-J                     ...    455
   Maximum angular momentum in Aux-J        ...      4
Auxiliary J/K fitting basis                 ... NOT available
Auxiliary Correlation fitting basis         ... NOT available
Auxiliary 'external' fitting basis          ... NOT available
Integral threshold                          ...     1.000000e-10
Primitive cut-off                           ...     1.000000e-11
Primitive pair pre-selection threshold      ...     1.000000e-11

Calculating pre-screening integrals         ... done (  0.0 sec) Dimension = 323
Organizing shell pair data                  ... done (  0.2 sec)
Shell pair information
Total number of shell pairs                 ...     52326
Shell pairs after pre-screening             ...     26544
Total number of primitive shell pairs       ...    139555
Primitive shell pairs kept                  ...     49985
          la=0 lb=0:  12261 shell pairs
          la=1 lb=0:   9128 shell pairs
          la=1 lb=1:   1626 shell pairs
          la=2 lb=0:   2463 shell pairs
          la=2 lb=1:    927 shell pairs
          la=2 lb=2:    139 shell pairs

Calculating one electron integrals          ... done (  0.0 sec)
Calculating RI/J V-Matrix + Cholesky decomp.... done (  0.2 sec)
Calculating Nuclear repulsion               ... done (  0.0 sec) ENN=   1524.480174178007 Eh

SHARK setup successfully completed in   0.8 seconds

Maximum memory used throughout the entire GTOINT-calculation: 37.1 MB


           ************************************************************
           *        Program running with 16 parallel MPI-processes    *
           *              working on a common directory               *
           ************************************************************
-------------------------------------------------------------------------------
                                 ORCA SCF
-------------------------------------------------------------------------------

------------
SCF SETTINGS
------------
Hamiltonian:
 Density Functional     Method          .... DFT(GTOs)
 Exchange Functional    Exchange        .... B88
   X-Alpha parameter    XAlpha          ....  0.666667
   Becke's b parameter  XBeta           ....  0.004200
 Correlation Functional Correlation     .... LYP
 LDA part of GGA corr.  LDAOpt          .... VWN-5
 Gradients option       PostSCFGGA      .... off
 Hybrid DFT is turned on
   Fraction HF Exchange ScalHFX         ....  0.200000
   Scaling of DF-GGA-X  ScalDFX         ....  0.720000
   Scaling of DF-GGA-C  ScalDFC         ....  0.810000
   Scaling of DF-LDA-C  ScalLDAC        ....  1.000000
   Perturbative correction              ....  0.000000
   Density functional embedding theory  .... OFF
   NL short-range parameter             ....  4.800000
 RI-approximation to the Coulomb term is turned on
   Number of AuxJ basis functions       .... 1353
   RIJ-COSX (HFX calculated with COS-X)).... on


General Settings:
 Integral files         IntName         .... BDE
 Hartree-Fock type      HFTyp           .... UHF
 Total Charge           Charge          ....    0
 Multiplicity           Mult            ....    2
 Number of Electrons    NEL             ....  157
 Basis Dimension        Dim             ....  549
 Nuclear Repulsion      ENuc            ....   1524.4801741780 Eh

Convergence Acceleration:
 DIIS                   CNVDIIS         .... on
   Start iteration      DIISMaxIt       ....    12
   Startup error        DIISStart       ....  0.200000
   # of expansion vecs  DIISMaxEq       ....     5
   Bias factor          DIISBfac        ....   1.050
   Max. coefficient     DIISMaxC        ....  10.000
 Trust-Rad. Augm. Hess. CNVTRAH         .... auto
   Auto Start mean grad. ratio tolernc. ....  1.125000
   Auto Start start iteration           ....    20
   Auto Start num. interpolation iter.  ....    10
   Max. Number of Micro iterations      ....    16
   Max. Number of Macro iterations      .... Maxiter - #DIIS iter
   Number of Davidson start vectors     ....     2
   Converg. threshold I  (grad. norm)   ....   5.000e-05
   Converg. threshold II (energy diff.) ....   1.000e-06
   Grad. Scal. Fac. for Micro threshold ....   0.100
   Minimum threshold for Micro iter.    ....   0.010
   NR start threshold (gradient norm)   ....   0.001
   Initial trust radius                 ....   0.400
   Minimum AH scaling param. (alpha)    ....   1.000
   Maximum AH scaling param. (alpha)    .... 1000.000
   Orbital update algorithm             .... Taylor
   White noise on init. David. guess    .... on
   Maximum white noise                  ....   0.010
   Quad. conv. algorithm                .... NR
 SOSCF                  CNVSOSCF        .... off
 Level Shifting         CNVShift        .... on
   Level shift para.    LevelShift      ....    0.2500
   Turn off err/grad.   ShiftErr        ....    0.0010
 Zerner damping         CNVZerner       .... off
 Static damping         CNVDamp         .... on
   Fraction old density DampFac         ....    0.7000
   Max. Damping (<1)    DampMax         ....    0.9800
   Min. Damping (>=0)   DampMin         ....    0.0000
   Turn off err/grad.   DampErr         ....    0.1000
 Fernandez-Rico         CNVRico         .... off

SCF Procedure:
 Maximum # iterations   MaxIter         ....   125
 SCF integral mode      SCFMode         .... Direct
   Integral package                     .... SHARK and LIBINT hybrid scheme
 Reset frequency        DirectResetFreq ....    20
 Integral Threshold     Thresh          ....  1.000e-10 Eh
 Primitive CutOff       TCut            ....  1.000e-11 Eh

Convergence Tolerance:
 Convergence Check Mode ConvCheckMode   .... Total+1el-Energy
 Convergence forced     ConvForced      .... 0
 Energy Change          TolE            ....  1.000e-06 Eh
 1-El. energy change                    ....  1.000e-03 Eh
 DIIS Error             TolErr          ....  1.000e-06


Diagonalization of the overlap matrix:
Smallest eigenvalue                        ... 7.944e-05
Time for diagonalization                   ...    0.056 sec
Threshold for overlap eigenvalues          ... 1.000e-08
Number of eigenvalues below threshold      ... 0
Time for construction of square roots      ...    0.057 sec
Total time needed                          ...    0.115 sec

Time for model grid setup =    0.315 sec

------------------------------
INITIAL GUESS: MODEL POTENTIAL
------------------------------
Loading Hartree-Fock densities                     ... done
Calculating cut-offs                               ... done
Initializing the effective Hamiltonian             ... done
Setting up the integral package (SHARK)            ... done
Starting the Coulomb interaction                   ... done (   0.3 sec)
Reading the grid                                   ... done
Mapping shells                                     ... done
Starting the XC term evaluation                    ... done (   0.1 sec)
  promolecular density results
     # of electrons  =    156.996547259
     EX              =   -120.430025106
     EC              =     -5.156812124
     EX+EC           =   -125.586837230
Transforming the Hamiltonian                       ... done (   0.0 sec)
Diagonalizing the Hamiltonian                      ... done (   0.1 sec)
Back transforming the eigenvectors                 ... done (   0.0 sec)
Now organizing SCF variables                       ... done
                      ------------------
                      INITIAL GUESS DONE (   1.1 sec)
                      ------------------
-------------------
DFT GRID GENERATION
-------------------

General Integration Accuracy     IntAcc      ... 4.388
Radial Grid Type                 RadialGrid  ... OptM3 with GC (2021)
Angular Grid (max. ang.)         AngularGrid ... 4 (Lebedev-302)
Angular grid pruning method      GridPruning ... 4 (adaptive)
Weight generation scheme         WeightScheme... Becke
Basis function cutoff            BFCut       ... 1.0000e-10
Integration weight cutoff        WCut        ... 1.0000e-14
Angular grids for H and He will be reduced by one unit
Partially contracted basis set               ... off
Rotationally invariant grid construction     ... off

Total number of grid points                  ...   211214
Total number of batches                      ...     3326
Average number of points per batch           ...       63
Average number of grid points per atom       ...     4494
Time for grid setup =    1.315 sec

--------------------
COSX GRID GENERATION
--------------------

GRIDX 1
-------
General Integration Accuracy     IntAcc      ... 3.816
Radial Grid Type                 RadialGrid  ... OptM3 with GC (2021)
Angular Grid (max. ang.)         AngularGrid ... 1 (Lebedev-50)
Angular grid pruning method      GridPruning ... 4 (adaptive)
Weight generation scheme         WeightScheme... Becke
Basis function cutoff            BFCut       ... 1.0000e-10
Integration weight cutoff        WCut        ... 1.0000e-14
Angular grids for H and He will be reduced by one unit
Partially contracted basis set               ... on
Rotationally invariant grid construction     ... off

Total number of grid points                  ...    26939
Total number of batches                      ...      446
Average number of points per batch           ...       60
Average number of grid points per atom       ...      573
UseSFitting                                  ... on

GRIDX 2
-------
General Integration Accuracy     IntAcc      ... 4.020
Radial Grid Type                 RadialGrid  ... OptM3 with GC (2021)
Angular Grid (max. ang.)         AngularGrid ... 2 (Lebedev-110)
Angular grid pruning method      GridPruning ... 4 (adaptive)
Weight generation scheme         WeightScheme... Becke
Basis function cutoff            BFCut       ... 1.0000e-10
Integration weight cutoff        WCut        ... 1.0000e-14
Angular grids for H and He will be reduced by one unit
Partially contracted basis set               ... on
Rotationally invariant grid construction     ... off

Total number of grid points                  ...    57171
Total number of batches                      ...      916
Average number of points per batch           ...       62
Average number of grid points per atom       ...     1216
UseSFitting                                  ... on

GRIDX 3
-------
General Integration Accuracy     IntAcc      ... 4.338
Radial Grid Type                 RadialGrid  ... OptM3 with GC (2021)
Angular Grid (max. ang.)         AngularGrid ... 3 (Lebedev-194)
Angular grid pruning method      GridPruning ... 4 (adaptive)
Weight generation scheme         WeightScheme... Becke
Basis function cutoff            BFCut       ... 1.0000e-10
Integration weight cutoff        WCut        ... 1.0000e-14
Angular grids for H and He will be reduced by one unit
Partially contracted basis set               ... on
Rotationally invariant grid construction     ... off

Total number of grid points                  ...   125073
Total number of batches                      ...     1980
Average number of points per batch           ...       63
Average number of grid points per atom       ...     2661
UseSFitting                                  ... on

Time for X-Grid setup             =    2.442 sec

--------------
SCF ITERATIONS
--------------
ITER       Energy         Delta-E        Max-DP      RMS-DP      [F,P]     Damp
               ***  Starting incremental Fock matrix formation  ***
  0   -852.3182987967   0.000000000000 0.06364280  0.00073351  0.0796299 0.7000
  1   -852.5433173924  -0.225018595693 0.03081302  0.00050711  0.0426301 0.7000
                               ***Turning on DIIS***
  2   -852.6432105781  -0.099893185651 0.06009270  0.00098663  0.0165423 0.0000
  3   -852.7833029429  -0.140092364864 0.03311131  0.00032361  0.0233675 0.0000
  4   -852.8218831248  -0.038580181885 0.03314571  0.00016658  0.0046263 0.0000
  5   -852.8235360408  -0.001652915952 0.01626127  0.00007370  0.0019665 0.0000
  6   -852.8237079675  -0.000171926733 0.01322118  0.00005939  0.0009623 0.0000
               *** Restarting incremental Fock matrix formation ***
                                   *** Resetting DIIS ***
  7   -852.8240374144  -0.000329446889 0.00232661  0.00001876  0.0006833 0.0000
  8   -852.8240370484   0.000000366051 0.00057944  0.00000466  0.0013610 0.0000
  9   -852.8240533356  -0.000016287230 0.00103827  0.00000533  0.0004174 0.0000
 10   -852.8240588692  -0.000005533663 0.00112448  0.00000573  0.0002367 0.0000
 11   -852.8240625843  -0.000003715053 0.00053807  0.00000299  0.0002421 0.0000
 12   -852.8240637871  -0.000001202764 0.00036057  0.00000229  0.0001053 0.0000
                 **** Energy Check signals convergence ****

               *****************************************************
               *                     SUCCESS                       *
               *           SCF CONVERGED AFTER  13 CYCLES          *
               *****************************************************

Old exchange energy                            =    -24.545290997 Eh
New exchange energy                            =    -24.545283211 Eh
Exchange energy change after final integration =      0.000007785 Eh
Total energy after final integration           =   -852.824056314 Eh
Final COS-X integration done in                =     8.343 sec

----------------
TOTAL SCF ENERGY
----------------

Total Energy       :         -852.82405631 Eh          -23206.52237 eV

Components:
Nuclear Repulsion  :         1524.48017418 Eh           41483.21451 eV
Electronic Energy  :        -2377.30423049 Eh          -64689.73687 eV
One Electron Energy:        -4176.83706805 Eh         -113657.51486 eV
Two Electron Energy:         1799.53283756 Eh           48967.77798 eV
Max COSX asymmetry :            0.00000380 Eh               0.00010 eV

Virial components:
Potential Energy   :        -1698.86218108 Eh          -46228.39015 eV
Kinetic Energy     :          846.03812477 Eh           23021.86778 eV
Virial Ratio       :            2.00802083


DFT components:
N(Alpha)           :       79.000177506766 electrons
N(Beta)            :       78.000178439593 electrons
N(Total)           :      157.000355946359 electrons
E(X)               :      -97.348934422978 Eh       
E(C)               :       -6.090132181713 Eh       
E(XC)              :     -103.439066604690 Eh       
DFET-embed. en.    :        0.000000000000 Eh       

---------------
SCF CONVERGENCE
---------------

  Last Energy change         ...   -3.1185e-07  Tolerance :   1.0000e-06
  Last MAX-Density change    ...    0.0000e+00  Tolerance :   1.0000e-05
  Last RMS-Density change    ...    0.0000e+00  Tolerance :   1.0000e-06
  Last DIIS Error            ...    3.4808e-05  Tolerance :   1.0000e-06

             **** THE GBW FILE WAS UPDATED (BDE.gbw) ****
             **** DENSITY BDE.scfp WAS UPDATED ****
             **** ENERGY FILE WAS UPDATED (BDE.en.tmp) ****
----------------------
UHF SPIN CONTAMINATION
----------------------

Warning: in a DFT calculation there is little theoretical justification to 
         calculate <S**2> as in Hartree-Fock theory. We will do it anyways
         but you should keep in mind that the values have only limited relevance

Expectation value of <S**2>     :     0.759234
Ideal value S*(S+1) for S=0.5   :     0.750000
Deviation                       :     0.009234

             **** THE GBW FILE WAS UPDATED (BDE.gbw) ****
             **** DENSITY BDE.scfp WAS UPDATED ****
----------------
ORBITAL ENERGIES
----------------
                 SPIN UP ORBITALS
  NO   OCC          E(Eh)            E(eV) 
   0   1.0000     -10.225081      -278.2386 
   1   1.0000     -10.216619      -278.0083 
   2   1.0000     -10.213536      -277.9244 
   3   1.0000     -10.212691      -277.9015 
   4   1.0000     -10.209370      -277.8111 
   5   1.0000     -10.202946      -277.6363 
   6   1.0000     -10.202802      -277.6324 
   7   1.0000     -10.202604      -277.6270 
   8   1.0000     -10.202105      -277.6134 
   9   1.0000     -10.201884      -277.6074 
  10   1.0000     -10.201015      -277.5837 
  11   1.0000     -10.198828      -277.5242 
  12   1.0000     -10.198494      -277.5151 
  13   1.0000     -10.196186      -277.4523 
  14   1.0000     -10.190920      -277.3090 
  15   1.0000     -10.187879      -277.2263 
  16   1.0000     -10.183363      -277.1034 
  17   1.0000     -10.183118      -277.0967 
  18   1.0000     -10.183072      -277.0955 
  19   1.0000     -10.182855      -277.0896 
  20   1.0000     -10.173754      -276.8419 
  21   1.0000     -10.173684      -276.8400 
  22   1.0000      -0.870120       -23.6772 
  23   1.0000      -0.860949       -23.4276 
  24   1.0000      -0.812171       -22.1003 
  25   1.0000      -0.793864       -21.6021 
  26   1.0000      -0.786859       -21.4115 
  27   1.0000      -0.768776       -20.9195 
  28   1.0000      -0.759900       -20.6779 
  29   1.0000      -0.749117       -20.3845 
  30   1.0000      -0.730469       -19.8771 
  31   1.0000      -0.712847       -19.3976 
  32   1.0000      -0.697009       -18.9666 
  33   1.0000      -0.651460       -17.7271 
  34   1.0000      -0.630706       -17.1624 
  35   1.0000      -0.616870       -16.7859 
  36   1.0000      -0.607568       -16.5328 
  37   1.0000      -0.605564       -16.4782 
  38   1.0000      -0.581495       -15.8233 
  39   1.0000      -0.576269       -15.6811 
  40   1.0000      -0.562813       -15.3149 
  41   1.0000      -0.535892       -14.5824 
  42   1.0000      -0.506466       -13.7817 
  43   1.0000      -0.479143       -13.0382 
  44   1.0000      -0.470973       -12.8158 
  45   1.0000      -0.470853       -12.8126 
  46   1.0000      -0.469942       -12.7878 
  47   1.0000      -0.454858       -12.3773 
  48   1.0000      -0.441357       -12.0099 
  49   1.0000      -0.435964       -11.8632 
  50   1.0000      -0.426760       -11.6127 
  51   1.0000      -0.423339       -11.5196 
  52   1.0000      -0.422680       -11.5017 
  53   1.0000      -0.422267       -11.4905 
  54   1.0000      -0.416931       -11.3453 
  55   1.0000      -0.412986       -11.2379 
  56   1.0000      -0.411274       -11.1913 
  57   1.0000      -0.381005       -10.3677 
  58   1.0000      -0.377514       -10.2727 
  59   1.0000      -0.372399       -10.1335 
  60   1.0000      -0.365113        -9.9352 
  61   1.0000      -0.363721        -9.8973 
  62   1.0000      -0.359319        -9.7776 
  63   1.0000      -0.356822        -9.7096 
  64   1.0000      -0.349686        -9.5154 
  65   1.0000      -0.341131        -9.2826 
  66   1.0000      -0.332727        -9.0540 
  67   1.0000      -0.330960        -9.0059 
  68   1.0000      -0.326088        -8.8733 
  69   1.0000      -0.324096        -8.8191 
  70   1.0000      -0.322193        -8.7673 
  71   1.0000      -0.321596        -8.7511 
  72   1.0000      -0.312533        -8.5044 
  73   1.0000      -0.268578        -7.3084 
  74   1.0000      -0.266555        -7.2533 
  75   1.0000      -0.257097        -6.9960 
  76   1.0000      -0.242218        -6.5911 
  77   1.0000      -0.237150        -6.4532 
  78   1.0000      -0.209993        -5.7142 
  79   0.0000      -0.051454        -1.4001 
  80   0.0000      -0.012387        -0.3371 
  81   0.0000      -0.005339        -0.1453 
  82   0.0000       0.003479         0.0947 
  83   0.0000       0.016108         0.4383 
  84   0.0000       0.022365         0.6086 
  85   0.0000       0.023214         0.6317 
  86   0.0000       0.032417         0.8821 
  87   0.0000       0.034586         0.9411 
  88   0.0000       0.037178         1.0117 
  89   0.0000       0.046165         1.2562 
  90   0.0000       0.048542         1.3209 
  91   0.0000       0.056625         1.5409 
  92   0.0000       0.061338         1.6691 
  93   0.0000       0.067322         1.8319 
  94   0.0000       0.071145         1.9359 
  95   0.0000       0.077986         2.1221 
  96   0.0000       0.085660         2.3309 
  97   0.0000       0.091798         2.4980 
  98   0.0000       0.094748         2.5782 
  99   0.0000       0.100642         2.7386 
 100   0.0000       0.106739         2.9045 
 101   0.0000       0.118169         3.2156 
 102   0.0000       0.128752         3.5035 
 103   0.0000       0.138613         3.7719 
 104   0.0000       0.139962         3.8086 
 105   0.0000       0.152281         4.1438 
 106   0.0000       0.161927         4.4063 
 107   0.0000       0.168696         4.5905 
 108   0.0000       0.172683         4.6989 
 109   0.0000       0.177142         4.8203 
 110   0.0000       0.180632         4.9153 
 111   0.0000       0.191206         5.2030 
 112   0.0000       0.192387         5.2351 
 113   0.0000       0.192942         5.2502 
 114   0.0000       0.197697         5.3796 
 115   0.0000       0.199942         5.4407 
 116   0.0000       0.200847         5.4653 
 117   0.0000       0.207592         5.6489 
 118   0.0000       0.209552         5.7022 
 119   0.0000       0.215510         5.8643 
 120   0.0000       0.221630         6.0309 
 121   0.0000       0.221735         6.0337 
 122   0.0000       0.225232         6.1289 
 123   0.0000       0.230734         6.2786 
 124   0.0000       0.235367         6.4047 
 125   0.0000       0.240383         6.5411 
 126   0.0000       0.245251         6.6736 
 127   0.0000       0.251697         6.8490 
 128   0.0000       0.254114         6.9148 
 129   0.0000       0.255579         6.9547 
 130   0.0000       0.257183         6.9983 
 131   0.0000       0.259762         7.0685 
 132   0.0000       0.268167         7.2972 
 133   0.0000       0.274071         7.4578 
 134   0.0000       0.275543         7.4979 
 135   0.0000       0.277850         7.5607 
 136   0.0000       0.281336         7.6555 
 137   0.0000       0.283709         7.7201 
 138   0.0000       0.285148         7.7593 
 139   0.0000       0.291255         7.9254 
 140   0.0000       0.294532         8.0146 
 141   0.0000       0.295572         8.0429 
 142   0.0000       0.302608         8.2344 
 143   0.0000       0.303534         8.2596 
 144   0.0000       0.309255         8.4152 
 145   0.0000       0.310452         8.4478 
 146   0.0000       0.313147         8.5212 
 147   0.0000       0.314901         8.5689 
 148   0.0000       0.318568         8.6687 
 149   0.0000       0.321741         8.7550 
 150   0.0000       0.321956         8.7609 
 151   0.0000       0.328714         8.9447 
 152   0.0000       0.331916         9.0319 
 153   0.0000       0.334725         9.1083 
 154   0.0000       0.345405         9.3990 
 155   0.0000       0.346080         9.4173 
 156   0.0000       0.348567         9.4850 
 157   0.0000       0.350706         9.5432 
 158   0.0000       0.355112         9.6631 
 159   0.0000       0.368062        10.0155 
 160   0.0000       0.368495        10.0273 
 161   0.0000       0.373692        10.1687 
 162   0.0000       0.377835        10.2814 
 163   0.0000       0.379603        10.3295 
 164   0.0000       0.387034        10.5317 
 165   0.0000       0.393444        10.7062 
 166   0.0000       0.402712        10.9583 
 167   0.0000       0.405694        11.0395 
 168   0.0000       0.413155        11.2425 
 169   0.0000       0.417236        11.3536 
 170   0.0000       0.418528        11.3887 
 171   0.0000       0.423864        11.5339 
 172   0.0000       0.429667        11.6918 
 173   0.0000       0.433616        11.7993 
 174   0.0000       0.434368        11.8197 
 175   0.0000       0.439626        11.9628 
 176   0.0000       0.448811        12.2128 
 177   0.0000       0.452388        12.3101 
 178   0.0000       0.456837        12.4312 
 179   0.0000       0.457353        12.4452 
 180   0.0000       0.461518        12.5585 
 181   0.0000       0.468436        12.7468 
 182   0.0000       0.472664        12.8618 
 183   0.0000       0.475940        12.9510 
 184   0.0000       0.483112        13.1461 
 185   0.0000       0.483890        13.1673 
 186   0.0000       0.493116        13.4184 
 187   0.0000       0.499422        13.5900 
 188   0.0000       0.505660        13.7597 
 189   0.0000       0.516359        14.0509 
 190   0.0000       0.520622        14.1668 
 191   0.0000       0.521226        14.1833 
 192   0.0000       0.523722        14.2512 
 193   0.0000       0.535226        14.5642 
 194   0.0000       0.540561        14.7094 
 195   0.0000       0.545404        14.8412 
 196   0.0000       0.559868        15.2348 
 197   0.0000       0.561268        15.2729 
 198   0.0000       0.561748        15.2859 
 199   0.0000       0.566076        15.4037 
 200   0.0000       0.582084        15.8393 
 201   0.0000       0.592028        16.1099 
 202   0.0000       0.601110        16.3570 
 203   0.0000       0.601881        16.3780 
 204   0.0000       0.612239        16.6599 
 205   0.0000       0.627987        17.0884 
 206   0.0000       0.639527        17.4024 
 207   0.0000       0.643075        17.4990 
 208   0.0000       0.658061        17.9068 
 209   0.0000       0.660150        17.9636 
 210   0.0000       0.672202        18.2915 
 211   0.0000       0.674235        18.3469 
 212   0.0000       0.686549        18.6820 
 213   0.0000       0.695036        18.9129 
 214   0.0000       0.695350        18.9214 
 215   0.0000       0.715054        19.4576 
 216   0.0000       0.729668        19.8553 
 217   0.0000       0.756130        20.5753 
 218   0.0000       0.760341        20.6899 
 219   0.0000       0.765979        20.8433 
 220   0.0000       0.777243        21.1499 
 221   0.0000       0.783392        21.3172 
 222   0.0000       0.814840        22.1729 
 223   0.0000       0.833262        22.6742 
 224   0.0000       0.834671        22.7125 
 225   0.0000       0.843556        22.9543 
 226   0.0000       0.844688        22.9851 
 227   0.0000       0.848134        23.0789 
 228   0.0000       0.852724        23.2038 
 229   0.0000       0.865773        23.5589 
 230   0.0000       0.867157        23.5965 
 231   0.0000       0.867369        23.6023 
 232   0.0000       0.879703        23.9379 
 233   0.0000       0.893101        24.3025 
 234   0.0000       0.895072        24.3562 
 235   0.0000       0.897414        24.4199 
 236   0.0000       0.902247        24.5514 
 237   0.0000       0.904573        24.6147 
 238   0.0000       0.917124        24.9562 
 239   0.0000       0.920098        25.0371 
 240   0.0000       0.924225        25.1494 
 241   0.0000       0.924604        25.1598 
 242   0.0000       0.927597        25.2412 
 243   0.0000       0.932304        25.3693 
 244   0.0000       0.934729        25.4353 
 245   0.0000       0.936948        25.4956 
 246   0.0000       0.948504        25.8101 
 247   0.0000       0.950267        25.8581 
 248   0.0000       0.956114        26.0172 
 249   0.0000       0.968622        26.3575 
 250   0.0000       0.973515        26.4907 
 251   0.0000       0.978887        26.6369 
 252   0.0000       0.984097        26.7786 
 253   0.0000       0.984581        26.7918 
 254   0.0000       0.994100        27.0508 
 255   0.0000       0.996205        27.1081 
 256   0.0000       1.000314        27.2199 
 257   0.0000       1.004590        27.3363 
 258   0.0000       1.016342        27.6561 
 259   0.0000       1.016777        27.6679 
 260   0.0000       1.023202        27.8428 
 261   0.0000       1.026261        27.9260 
 262   0.0000       1.034951        28.1624 
 263   0.0000       1.043202        28.3870 
 264   0.0000       1.047653        28.5081 
 265   0.0000       1.055208        28.7137 
 266   0.0000       1.061026        28.8720 
 267   0.0000       1.067095        29.0371 
 268   0.0000       1.072355        29.1803 
 269   0.0000       1.091539        29.7023 
 270   0.0000       1.098779        29.8993 
 271   0.0000       1.100492        29.9459 
 272   0.0000       1.102416        29.9983 
 273   0.0000       1.115090        30.3431 
 274   0.0000       1.117783        30.4164 
 275   0.0000       1.124141        30.5894 
 276   0.0000       1.134123        30.8611 
 277   0.0000       1.146291        31.1922 
 278   0.0000       1.161548        31.6073 
 279   0.0000       1.170090        31.8398 
 280   0.0000       1.174926        31.9714 
 281   0.0000       1.177221        32.0338 
 282   0.0000       1.181673        32.1549 
 283   0.0000       1.199721        32.6461 
 284   0.0000       1.204268        32.7698 
 285   0.0000       1.204748        32.7829 
 286   0.0000       1.205340        32.7990 
 287   0.0000       1.232222        33.5305 
 288   0.0000       1.237693        33.6793 
 289   0.0000       1.251698        34.0604 
 290   0.0000       1.259945        34.2848 
 291   0.0000       1.274561        34.6826 
 292   0.0000       1.288154        35.0525 
 293   0.0000       1.296346        35.2754 
 294   0.0000       1.307356        35.5750 
 295   0.0000       1.315001        35.7830 
 296   0.0000       1.322386        35.9840 
 297   0.0000       1.327293        36.1175 
 298   0.0000       1.336703        36.3735 
 299   0.0000       1.357259        36.9329 
 300   0.0000       1.364242        37.1229 
 301   0.0000       1.382575        37.6218 
 302   0.0000       1.385157        37.6920 
 303   0.0000       1.390435        37.8357 
 304   0.0000       1.400484        38.1091 
 305   0.0000       1.410653        38.3858 
 306   0.0000       1.421038        38.6684 
 307   0.0000       1.426167        38.8080 
 308   0.0000       1.427088        38.8331 
 309   0.0000       1.442743        39.2590 
 310   0.0000       1.444771        39.3142 
 311   0.0000       1.451190        39.4889 
 312   0.0000       1.454194        39.5706 
 313   0.0000       1.455134        39.5962 
 314   0.0000       1.475569        40.1523 
 315   0.0000       1.482442        40.3393 
 316   0.0000       1.500525        40.8314 
 317   0.0000       1.505474        40.9660 
 318   0.0000       1.513778        41.1920 
 319   0.0000       1.516626        41.2695 
 320   0.0000       1.518543        41.3217 
 321   0.0000       1.524216        41.4760 
 322   0.0000       1.534200        41.7477 
 323   0.0000       1.550522        42.1919 
 324   0.0000       1.556604        42.3573 
 325   0.0000       1.560841        42.4726 
 326   0.0000       1.562844        42.5271 
 327   0.0000       1.569158        42.6990 
 328   0.0000       1.573958        42.8296 
 329   0.0000       1.582257        43.0554 
 330   0.0000       1.583029        43.0764 
 331   0.0000       1.590497        43.2796 
 332   0.0000       1.597060        43.4582 
 333   0.0000       1.601144        43.5693 
 334   0.0000       1.609449        43.7953 
 335   0.0000       1.619778        44.0764 
 336   0.0000       1.621916        44.1346 
 337   0.0000       1.624914        44.2162 
 338   0.0000       1.632701        44.4281 
 339   0.0000       1.637948        44.5708 
 340   0.0000       1.638818        44.5945 
 341   0.0000       1.643688        44.7270 
 342   0.0000       1.648549        44.8593 
 343   0.0000       1.659969        45.1701 
 344   0.0000       1.668153        45.3927 
 345   0.0000       1.679189        45.6931 
 346   0.0000       1.680572        45.7307 
 347   0.0000       1.685679        45.8696 
 348   0.0000       1.695201        46.1288 
 349   0.0000       1.700352        46.2689 
 350   0.0000       1.707914        46.4747 
 351   0.0000       1.708353        46.4867 
 352   0.0000       1.717471        46.7348 
 353   0.0000       1.724280        46.9200 
 354   0.0000       1.729621        47.0654 
 355   0.0000       1.734364        47.1944 
 356   0.0000       1.749829        47.6153 
 357   0.0000       1.758132        47.8412 
 358   0.0000       1.758911        47.8624 
 359   0.0000       1.772811        48.2407 
 360   0.0000       1.774330        48.2820 
 361   0.0000       1.777651        48.3723 
 362   0.0000       1.778679        48.4003 
 363   0.0000       1.787228        48.6329 
 364   0.0000       1.796940        48.8972 
 365   0.0000       1.806136        49.1475 
 366   0.0000       1.815925        49.4138 
 367   0.0000       1.816722        49.4355 
 368   0.0000       1.835547        49.9478 
 369   0.0000       1.843539        50.1652 
 370   0.0000       1.843598        50.1669 
 371   0.0000       1.855938        50.5026 
 372   0.0000       1.856983        50.5311 
 373   0.0000       1.864971        50.7484 
 374   0.0000       1.893155        51.5154 
 375   0.0000       1.904770        51.8314 
 376   0.0000       1.916326        52.1459 
 377   0.0000       1.928593        52.4797 
 378   0.0000       1.935037        52.6550 
 379   0.0000       1.942853        52.8677 
 380   0.0000       1.947537        52.9952 
 381   0.0000       1.954512        53.1850 
 382   0.0000       1.962036        53.3897 
 383   0.0000       1.976719        53.7893 
 384   0.0000       1.997649        54.3588 
 385   0.0000       2.025343        55.1124 
 386   0.0000       2.029303        55.2201 
 387   0.0000       2.031157        55.2706 
 388   0.0000       2.041368        55.5484 
 389   0.0000       2.044161        55.6245 
 390   0.0000       2.069157        56.3046 
 391   0.0000       2.072456        56.3944 
 392   0.0000       2.105034        57.2809 
 393   0.0000       2.116121        57.5826 
 394   0.0000       2.138299        58.1861 
 395   0.0000       2.140307        58.2407 
 396   0.0000       2.151868        58.5553 
 397   0.0000       2.157130        58.6985 
 398   0.0000       2.199170        59.8425 
 399   0.0000       2.204376        59.9841 
 400   0.0000       2.215940        60.2988 
 401   0.0000       2.223901        60.5154 
 402   0.0000       2.232899        60.7603 
 403   0.0000       2.250741        61.2458 
 404   0.0000       2.251587        61.2688 
 405   0.0000       2.254886        61.3586 
 406   0.0000       2.264303        61.6148 
 407   0.0000       2.288033        62.2605 
 408   0.0000       2.306181        62.7544 
 409   0.0000       2.314466        62.9798 
 410   0.0000       2.316192        63.0268 
 411   0.0000       2.319011        63.1035 
 412   0.0000       2.320375        63.1406 
 413   0.0000       2.345451        63.8230 
 414   0.0000       2.351246        63.9806 
 415   0.0000       2.376120        64.6575 
 416   0.0000       2.398023        65.2535 
 417   0.0000       2.404211        65.4219 
 418   0.0000       2.413031        65.6619 
 419   0.0000       2.416581        65.7585 
 420   0.0000       2.418038        65.7982 
 421   0.0000       2.426967        66.0411 
 422   0.0000       2.445074        66.5338 
 423   0.0000       2.454263        66.7839 
 424   0.0000       2.458275        66.8931 
 425   0.0000       2.463055        67.0231 
 426   0.0000       2.468629        67.1748 
 427   0.0000       2.473036        67.2947 
 428   0.0000       2.477850        67.4257 
 429   0.0000       2.493441        67.8500 
 430   0.0000       2.512340        68.3643 
 431   0.0000       2.515950        68.4625 
 432   0.0000       2.520786        68.5941 
 433   0.0000       2.532579        68.9150 
 434   0.0000       2.534285        68.9614 
 435   0.0000       2.548942        69.3602 
 436   0.0000       2.556433        69.5641 
 437   0.0000       2.568742        69.8990 
 438   0.0000       2.572030        69.9885 
 439   0.0000       2.586284        70.3764 
 440   0.0000       2.610835        71.0444 
 441   0.0000       2.611837        71.0717 
 442   0.0000       2.614101        71.1333 
 443   0.0000       2.618753        71.2599 
 444   0.0000       2.631183        71.5981 
 445   0.0000       2.649889        72.1072 
 446   0.0000       2.722017        74.0698 
 447   0.0000       2.733015        74.3691 
 448   0.0000       2.780235        75.6540 
 449   0.0000       2.797143        76.1141 
 450   0.0000       2.805760        76.3486 
 451   0.0000       2.937637        79.9372 
 452   0.0000       3.059493        83.2530 
 453   0.0000       3.184875        86.6649 
 454   0.0000       3.433560        93.4319 
 455   0.0000       4.983012       135.5946 
 456   0.0000       4.983887       135.6185 
 457   0.0000       5.006112       136.2232 
 458   0.0000       5.008057       136.2762 
 459   0.0000       5.009394       136.3125 
 460   0.0000       5.011025       136.3569 
 461   0.0000       5.021251       136.6352 
 462   0.0000       5.031596       136.9167 
 463   0.0000       5.034121       136.9854 
 464   0.0000       5.043584       137.2429 
 465   0.0000       5.047335       137.3450 
 466   0.0000       5.091676       138.5515 
 467   0.0000       5.098190       138.7288 
 468   0.0000       5.180823       140.9774 
 469   0.0000       5.198563       141.4601 
 470   0.0000       5.217855       141.9851 
 471   0.0000       5.232152       142.3741 
 472   0.0000       5.249007       142.8327 
 473   0.0000       5.254863       142.9921 
 474   0.0000       5.268983       143.3763 
 475   0.0000       5.285088       143.8146 
 476   0.0000       5.292952       144.0285 
 477   0.0000       5.298581       144.1817 
 478   0.0000       5.307792       144.4324 
 479   0.0000       5.311695       144.5386 
 480   0.0000       5.349278       145.5613 
 481   0.0000       5.371939       146.1779 
 482   0.0000       5.372787       146.2010 
 483   0.0000       5.414009       147.3227 
 484   0.0000       5.440969       148.0563 
 485   0.0000       5.445517       148.1800 
 486   0.0000       5.481164       149.1501 
 487   0.0000       5.496039       149.5548 
 488   0.0000       5.545220       150.8931 
 489   0.0000       5.586449       152.0150 
 490   0.0000       5.597559       152.3173 
 491   0.0000       5.627113       153.1215 
 492   0.0000       5.660788       154.0379 
 493   0.0000       5.679653       154.5512 
 494   0.0000       5.731997       155.9756 
 495   0.0000       5.747778       156.4050 
 496   0.0000       5.813522       158.1940 
 497   0.0000       5.854058       159.2970 
 498   0.0000       5.875626       159.8839 
 499   0.0000       5.909748       160.8124 
 500   0.0000       6.133864       166.9109 
 501   0.0000       6.310115       171.7069 
 502   0.0000      29.606344       805.6296 
 503   0.0000      29.735483       809.1436 
 504   0.0000      29.792866       810.7051 
 505   0.0000      29.828493       811.6746 
 506   0.0000      29.841615       812.0316 
 507   0.0000      29.860657       812.5498 
 508   0.0000      29.931599       814.4802 
 509   0.0000      29.958007       815.1988 
 510   0.0000      29.986026       815.9613 
 511   0.0000      29.999239       816.3208 
 512   0.0000      30.044326       817.5477 
 513   0.0000      30.078270       818.4713 
 514   0.0000      30.088059       818.7377 
 515   0.0000      30.114854       819.4668 
 516   0.0000      30.134253       819.9947 
 517   0.0000      30.170475       820.9804 
 518   0.0000      30.234533       822.7235 
 519   0.0000      30.254897       823.2776 
 520   0.0000      30.276295       823.8599 
 521   0.0000      30.295405       824.3799 
 522   0.0000      30.449954       828.5854 
 523   0.0000      30.533056       830.8467 
 524   0.0000      36.609694       996.2004 
 525   0.0000      36.610339       996.2180 
 526   0.0000      36.624601       996.6061 
 527   0.0000      36.627388       996.6819 
 528   0.0000      36.632100       996.8101 
 529   0.0000      36.635387       996.8996 
 530   0.0000      36.655588       997.4493 
 531   0.0000      36.659483       997.5552 
 532   0.0000      36.667634       997.7771 
 533   0.0000      36.670619       997.8583 
 534   0.0000      36.702862       998.7357 
 535   0.0000      36.717334       999.1294 
 536   0.0000      36.787483      1001.0383 
 537   0.0000      36.810059      1001.6526 
 538   0.0000      36.825354      1002.0688 
 539   0.0000      36.846432      1002.6424 
 540   0.0000      36.861885      1003.0629 
 541   0.0000      36.871570      1003.3264 
 542   0.0000      36.878159      1003.5057 
 543   0.0000      36.899360      1004.0826 
 544   0.0000      36.926718      1004.8271 
 545   0.0000      36.931674      1004.9619 
 546   0.0000      36.984461      1006.3983 
 547   0.0000      37.009832      1007.0887 
 548   0.0000      37.041357      1007.9466 

                 SPIN DOWN ORBITALS
  NO   OCC          E(Eh)            E(eV) 
   0   1.0000     -10.225024      -278.2370 
   1   1.0000     -10.217203      -278.0242 
   2   1.0000     -10.211344      -277.8648 
   3   1.0000     -10.209448      -277.8132 
   4   1.0000     -10.202984      -277.6373 
   5   1.0000     -10.202846      -277.6336 
   6   1.0000     -10.202662      -277.6286 
   7   1.0000     -10.202095      -277.6131 
   8   1.0000     -10.201885      -277.6074 
   9   1.0000     -10.199820      -277.5512 
  10   1.0000     -10.199175      -277.5337 
  11   1.0000     -10.198460      -277.5142 
  12   1.0000     -10.198332      -277.5107 
  13   1.0000     -10.196283      -277.4550 
  14   1.0000     -10.190462      -277.2966 
  15   1.0000     -10.187748      -277.2227 
  16   1.0000     -10.183359      -277.1033 
  17   1.0000     -10.183112      -277.0966 
  18   1.0000     -10.183064      -277.0953 
  19   1.0000     -10.182847      -277.0893 
  20   1.0000     -10.173750      -276.8418 
  21   1.0000     -10.173685      -276.8400 
  22   1.0000      -0.864523       -23.5249 
  23   1.0000      -0.860596       -23.4180 
  24   1.0000      -0.810346       -22.0506 
  25   1.0000      -0.793730       -21.5985 
  26   1.0000      -0.784679       -21.3522 
  27   1.0000      -0.766723       -20.8636 
  28   1.0000      -0.756165       -20.5763 
  29   1.0000      -0.749179       -20.3862 
  30   1.0000      -0.728650       -19.8276 
  31   1.0000      -0.710299       -19.3282 
  32   1.0000      -0.695113       -18.9150 
  33   1.0000      -0.650289       -17.6953 
  34   1.0000      -0.628733       -17.1087 
  35   1.0000      -0.614870       -16.7315 
  36   1.0000      -0.607580       -16.5331 
  37   1.0000      -0.600531       -16.3413 
  38   1.0000      -0.579714       -15.7748 
  39   1.0000      -0.571531       -15.5521 
  40   1.0000      -0.560727       -15.2582 
  41   1.0000      -0.535140       -14.5619 
  42   1.0000      -0.504993       -13.7416 
  43   1.0000      -0.478735       -13.0270 
  44   1.0000      -0.470876       -12.8132 
  45   1.0000      -0.469866       -12.7857 
  46   1.0000      -0.465824       -12.6757 
  47   1.0000      -0.454789       -12.3754 
  48   1.0000      -0.435776       -11.8581 
  49   1.0000      -0.433934       -11.8079 
  50   1.0000      -0.424384       -11.5481 
  51   1.0000      -0.423318       -11.5191 
  52   1.0000      -0.421809       -11.4780 
  53   1.0000      -0.421151       -11.4601 
  54   1.0000      -0.416822       -11.3423 
  55   1.0000      -0.411086       -11.1862 
  56   1.0000      -0.406461       -11.0604 
  57   1.0000      -0.381076       -10.3696 
  58   1.0000      -0.373653       -10.1676 
  59   1.0000      -0.371428       -10.1071 
  60   1.0000      -0.364091        -9.9074 
  61   1.0000      -0.361278        -9.8309 
  62   1.0000      -0.358496        -9.7552 
  63   1.0000      -0.356633        -9.7045 
  64   1.0000      -0.349688        -9.5155 
  65   1.0000      -0.340675        -9.2702 
  66   1.0000      -0.332099        -9.0369 
  67   1.0000      -0.329710        -8.9719 
  68   1.0000      -0.325519        -8.8578 
  69   1.0000      -0.323835        -8.8120 
  70   1.0000      -0.322116        -8.7652 
  71   1.0000      -0.319940        -8.7060 
  72   1.0000      -0.310936        -8.4610 
  73   1.0000      -0.266226        -7.2444 
  74   1.0000      -0.265625        -7.2280 
  75   1.0000      -0.257271        -7.0007 
  76   1.0000      -0.242308        -6.5935 
  77   1.0000      -0.206311        -5.6140 
  78   0.0000      -0.083795        -2.2802 
  79   0.0000      -0.047389        -1.2895 
  80   0.0000      -0.012532        -0.3410 
  81   0.0000      -0.005665        -0.1541 
  82   0.0000       0.008168         0.2223 
  83   0.0000       0.016167         0.4399 
  84   0.0000       0.022442         0.6107 
  85   0.0000       0.023541         0.6406 
  86   0.0000       0.033570         0.9135 
  87   0.0000       0.035415         0.9637 
  88   0.0000       0.037323         1.0156 
  89   0.0000       0.046188         1.2568 
  90   0.0000       0.048726         1.3259 
  91   0.0000       0.056648         1.5415 
  92   0.0000       0.061447         1.6721 
  93   0.0000       0.069207         1.8832 
  94   0.0000       0.073525         2.0007 
  95   0.0000       0.078192         2.1277 
  96   0.0000       0.085674         2.3313 
  97   0.0000       0.091803         2.4981 
  98   0.0000       0.097962         2.6657 
  99   0.0000       0.100513         2.7351 
 100   0.0000       0.107566         2.9270 
 101   0.0000       0.119271         3.2455 
 102   0.0000       0.129208         3.5159 
 103   0.0000       0.141783         3.8581 
 104   0.0000       0.142162         3.8684 
 105   0.0000       0.152784         4.1575 
 106   0.0000       0.163415         4.4467 
 107   0.0000       0.169311         4.6072 
 108   0.0000       0.172603         4.6968 
 109   0.0000       0.177163         4.8209 
 110   0.0000       0.180814         4.9202 
 111   0.0000       0.192261         5.2317 
 112   0.0000       0.193094         5.2544 
 113   0.0000       0.193643         5.2693 
 114   0.0000       0.197913         5.3855 
 115   0.0000       0.200554         5.4574 
 116   0.0000       0.200899         5.4667 
 117   0.0000       0.208940         5.6855 
 118   0.0000       0.209907         5.7119 
 119   0.0000       0.215454         5.8628 
 120   0.0000       0.221945         6.0394 
 121   0.0000       0.223039         6.0692 
 122   0.0000       0.225436         6.1344 
 123   0.0000       0.231825         6.3083 
 124   0.0000       0.235679         6.4131 
 125   0.0000       0.241890         6.5822 
 126   0.0000       0.245390         6.6774 
 127   0.0000       0.251928         6.8553 
 128   0.0000       0.254246         6.9184 
 129   0.0000       0.256083         6.9684 
 130   0.0000       0.258512         7.0345 
 131   0.0000       0.260834         7.0977 
 132   0.0000       0.268424         7.3042 
 133   0.0000       0.274514         7.4699 
 134   0.0000       0.275980         7.5098 
 135   0.0000       0.278608         7.5813 
 136   0.0000       0.282614         7.6903 
 137   0.0000       0.283820         7.7231 
 138   0.0000       0.286009         7.7827 
 139   0.0000       0.291596         7.9347 
 140   0.0000       0.295386         8.0379 
 141   0.0000       0.295686         8.0460 
 142   0.0000       0.304237         8.2787 
 143   0.0000       0.304354         8.2819 
 144   0.0000       0.310244         8.4422 
 145   0.0000       0.310933         8.4609 
 146   0.0000       0.313181         8.5221 
 147   0.0000       0.315396         8.5824 
 148   0.0000       0.319663         8.6985 
 149   0.0000       0.321844         8.7578 
 150   0.0000       0.322137         8.7658 
 151   0.0000       0.330083         8.9820 
 152   0.0000       0.333881         9.0854 
 153   0.0000       0.335163         9.1203 
 154   0.0000       0.346002         9.4152 
 155   0.0000       0.347464         9.4550 
 156   0.0000       0.348471         9.4824 
 157   0.0000       0.353622         9.6226 
 158   0.0000       0.356545         9.7021 
 159   0.0000       0.368871        10.0375 
 160   0.0000       0.371907        10.1201 
 161   0.0000       0.374021        10.1776 
 162   0.0000       0.378522        10.3001 
 163   0.0000       0.380408        10.3514 
 164   0.0000       0.389175        10.5900 
 165   0.0000       0.395585        10.7644 
 166   0.0000       0.403563        10.9815 
 167   0.0000       0.407537        11.0896 
 168   0.0000       0.415536        11.3073 
 169   0.0000       0.417359        11.3569 
 170   0.0000       0.419712        11.4209 
 171   0.0000       0.423915        11.5353 
 172   0.0000       0.430958        11.7270 
 173   0.0000       0.434317        11.8184 
 174   0.0000       0.436399        11.8750 
 175   0.0000       0.446238        12.1427 
 176   0.0000       0.451158        12.2766 
 177   0.0000       0.455483        12.3943 
 178   0.0000       0.457023        12.4362 
 179   0.0000       0.460632        12.5344 
 180   0.0000       0.466345        12.6899 
 181   0.0000       0.471164        12.8210 
 182   0.0000       0.474780        12.9194 
 183   0.0000       0.476904        12.9772 
 184   0.0000       0.484718        13.1898 
 185   0.0000       0.485610        13.2141 
 186   0.0000       0.494179        13.4473 
 187   0.0000       0.500663        13.6237 
 188   0.0000       0.505732        13.7617 
 189   0.0000       0.518200        14.1009 
 190   0.0000       0.522591        14.2204 
 191   0.0000       0.524322        14.2675 
 192   0.0000       0.525213        14.2918 
 193   0.0000       0.536324        14.5941 
 194   0.0000       0.541665        14.7395 
 195   0.0000       0.546159        14.8617 
 196   0.0000       0.561508        15.2794 
 197   0.0000       0.562224        15.2989 
 198   0.0000       0.563579        15.3358 
 199   0.0000       0.567311        15.4373 
 200   0.0000       0.582675        15.8554 
 201   0.0000       0.594389        16.1741 
 202   0.0000       0.601368        16.3640 
 203   0.0000       0.603300        16.4166 
 204   0.0000       0.614066        16.7096 
 205   0.0000       0.632596        17.2138 
 206   0.0000       0.641442        17.4545 
 207   0.0000       0.646349        17.5881 
 208   0.0000       0.657698        17.8969 
 209   0.0000       0.662207        18.0196 
 210   0.0000       0.673038        18.3143 
 211   0.0000       0.675032        18.3686 
 212   0.0000       0.689782        18.7699 
 213   0.0000       0.697939        18.9919 
 214   0.0000       0.702224        19.1085 
 215   0.0000       0.718161        19.5421 
 216   0.0000       0.729843        19.8600 
 217   0.0000       0.756878        20.5957 
 218   0.0000       0.761327        20.7168 
 219   0.0000       0.765965        20.8430 
 220   0.0000       0.777339        21.1525 
 221   0.0000       0.786812        21.4102 
 222   0.0000       0.815028        22.1780 
 223   0.0000       0.833767        22.6880 
 224   0.0000       0.835594        22.7377 
 225   0.0000       0.843819        22.9615 
 226   0.0000       0.844820        22.9887 
 227   0.0000       0.848578        23.0910 
 228   0.0000       0.853043        23.2125 
 229   0.0000       0.865933        23.5632 
 230   0.0000       0.867354        23.6019 
 231   0.0000       0.868312        23.6280 
 232   0.0000       0.879821        23.9411 
 233   0.0000       0.893315        24.3083 
 234   0.0000       0.897689        24.4274 
 235   0.0000       0.898021        24.4364 
 236   0.0000       0.904487        24.6124 
 237   0.0000       0.904602        24.6155 
 238   0.0000       0.917538        24.9675 
[...]
 36:    549.92   0.000455    2.30  0.000258  (-0.000064 -0.000263  0.016065)
 37:    558.13   0.000498    2.52  0.000278  ( 0.015093 -0.007105 -0.000029)
 38:    577.64   0.000113    0.57  0.000061  ( 0.000143  0.000133 -0.007800)
 39:    602.58   0.000310    1.57  0.000161  ( 0.012557 -0.001723 -0.000002)
 40:    630.25   0.000000    0.00  0.000000  ( 0.000361 -0.000093  0.000003)
 41:    693.73   0.000070    0.35  0.000032  ( 0.005199  0.002135  0.000016)
 42:    705.48   0.000093    0.47  0.000041  ( 0.000087  0.000043 -0.006430)
 43:    710.58   0.003259   16.47  0.001431  ( 0.000026  0.000295 -0.037829)
 44:    768.41   0.001135    5.74  0.000461  (-0.000001  0.000092 -0.021473)
 45:    771.87   0.000007    0.04  0.000003  ( 0.000997 -0.001360 -0.000129)
 46:    772.40   0.000640    3.23  0.000259  ( 0.000008 -0.000032  0.016079)
 47:    801.04   0.012103   61.16  0.004715  ( 0.000125  0.000516 -0.068664)
 48:    814.65   0.000232    1.17  0.000089  (-0.000031 -0.000011  0.009419)
 49:    815.15   0.000005    0.03  0.000002  (-0.001094  0.000921 -0.000095)
 50:    816.51   0.000328    1.66  0.000125  (-0.000040 -0.000040  0.011195)
 51:    886.08   0.000004    0.02  0.000001  (-0.000040  0.000001 -0.001220)
 52:    893.00   0.001185    5.99  0.000414  ( 0.000003 -0.000048  0.020352)
 53:    921.64   0.001581    7.99  0.000535  ( 0.000002 -0.000171 -0.023137)
 54:    922.32   0.000256    1.29  0.000087  ( 0.000901  0.009219 -0.000854)
 55:    927.25   0.000494    2.50  0.000166  (-0.005441 -0.011692 -0.000053)
 56:    947.41   0.002662   13.45  0.000877  ( 0.021548  0.020307  0.000056)
 57:    959.23   0.000696    3.52  0.000227  (-0.000025 -0.000200  0.015050)
 58:    967.30   0.000041    0.21  0.000013  (-0.000010 -0.000025 -0.003635)
 59:    972.20   0.001732    8.75  0.000556  ( 0.000032  0.000152 -0.023580)
 60:   1008.08   0.000001    0.01  0.000000  ( 0.000603  0.000057 -0.000000)
 61:   1015.07   0.000001    0.01  0.000000  ( 0.000018  0.000009  0.000604)
 62:   1029.42   0.000006    0.03  0.000002  ( 0.000032 -0.000045 -0.001397)
 63:   1039.59   0.000217    1.10  0.000065  ( 0.006066 -0.005324 -0.000003)
 64:   1041.83   0.000212    1.07  0.000063  (-0.007942 -0.000610 -0.000007)
 65:   1056.07   0.001267    6.40  0.000374  (-0.019240 -0.002029 -0.000015)
 66:   1081.55   0.000016    0.08  0.000005  ( 0.001128 -0.001860  0.000005)
 67:   1083.81   0.000032    0.16  0.000009  (-0.000283 -0.003021 -0.000010)
 68:   1111.23   0.001183    5.98  0.000332  (-0.001175 -0.018189 -0.000046)
 69:   1114.58   0.000064    0.32  0.000018  (-0.002857  0.003126 -0.000004)
 70:   1128.08   0.001016    5.13  0.000281  (-0.010257 -0.013258 -0.000041)
 71:   1134.70   0.000381    1.93  0.000105  (-0.002486 -0.009930 -0.000028)
 72:   1135.70   0.000000    0.00  0.000000  ( 0.000044  0.000097  0.000228)
 73:   1138.94   0.000021    0.11  0.000006  (-0.000020 -0.000092  0.002388)
 74:   1186.16   0.000120    0.61  0.000032  ( 0.001118 -0.005508  0.000015)
 75:   1191.54   0.000000    0.00  0.000000  ( 0.000025 -0.000210 -0.000000)
 76:   1206.49   0.000002    0.01  0.000000  ( 0.000553  0.000382 -0.000001)
 77:   1223.41   0.000749    3.79  0.000191  ( 0.013747  0.001452 -0.000002)
 78:   1251.98   0.000011    0.05  0.000003  ( 0.000026  0.000041 -0.001634)
 79:   1252.75   0.000002    0.01  0.000001  ( 0.000005  0.000035 -0.000729)
 80:   1273.38   0.000254    1.28  0.000062  ( 0.005342  0.005801  0.000016)
 81:   1277.73   0.001339    6.77  0.000327  ( 0.014348  0.011009  0.000038)
 82:   1293.35   0.000012    0.06  0.000003  ( 0.001697 -0.000292  0.000002)
 83:   1321.48   0.001225    6.19  0.000289  (-0.007402 -0.015311 -0.000020)
 84:   1325.22   0.000001    0.00  0.000000  (-0.000031 -0.000018  0.000352)
 85:   1325.69   0.000112    0.57  0.000026  (-0.000011 -0.000005 -0.005137)
 86:   1333.49   0.000007    0.04  0.000002  ( 0.000312 -0.001250 -0.000006)
 87:   1343.15   0.000003    0.01  0.000001  ( 0.000012 -0.000000 -0.000781)
 88:   1343.33   0.000117    0.59  0.000027  (-0.000013 -0.000007  0.005217)
 89:   1350.51   0.001314    6.64  0.000304  ( 0.013246 -0.011321 -0.000010)
 90:   1378.62   0.000017    0.08  0.000004  ( 0.000078  0.001949  0.000006)
 91:   1381.02   0.000520    2.63  0.000117  (-0.010720 -0.001572 -0.000009)
 92:   1388.29   0.002169   10.96  0.000488  ( 0.013797  0.017239  0.000048)
 93:   1399.67   0.001387    7.01  0.000309  ( 0.002775  0.017366  0.000040)
 94:   1420.17   0.005121   25.88  0.001125  ( 0.012471  0.031142  0.000074)
 95:   1424.25   0.000133    0.67  0.000029  (-0.005312 -0.000921 -0.000006)
 96:   1430.89   0.001969    9.95  0.000429  (-0.017946  0.010364  0.000020)
 97:   1431.09   0.000019    0.09  0.000004  (-0.001016  0.001749 -0.000004)
 98:   1477.66   0.002492   12.59  0.000526  (-0.022041 -0.006357 -0.000030)
 99:   1478.28   0.000790    3.99  0.000167  (-0.001873 -0.012778 -0.000051)
100:   1488.24   0.001194    6.03  0.000250  ( 0.014191  0.006994  0.000017)
101:   1494.02   0.002865   14.48  0.000598  (-0.005438 -0.023849 -0.000057)
102:   1498.64   0.000155    0.78  0.000032  ( 0.001059  0.005577  0.000006)
103:   1499.10   0.000149    0.75  0.000031  (-0.002882  0.004773  0.000002)
104:   1510.37   0.000029    0.14  0.000006  ( 0.002252  0.000914 -0.000005)
105:   1510.92   0.000394    1.99  0.000081  (-0.000683  0.008990  0.000020)
106:   1511.77   0.001788    9.03  0.000369  (-0.000029 -0.000039  0.019211)
107:   1511.92   0.001745    8.82  0.000360  ( 0.000032  0.000054 -0.018981)
108:   1524.36   0.000031    0.16  0.000006  ( 0.000704  0.002412  0.000004)
109:   1524.61   0.004624   23.37  0.000946  ( 0.029651  0.008198  0.000047)
110:   1529.51   0.005779   29.21  0.001179  ( 0.034338  0.000077  0.000020)
111:   1575.49   0.000881    4.45  0.000175  (-0.012160 -0.005163 -0.000018)
112:   1624.02   0.000359    1.82  0.000069  (-0.000008  0.008310  0.000028)
113:   1637.76   0.000311    1.57  0.000059  ( 0.006101 -0.004685 -0.000013)
114:   1660.76   0.004645   23.48  0.000873  (-0.029507  0.001484 -0.000009)
115:   2303.03   0.001966    9.94  0.000266  ( 0.016321 -0.000110  0.000013)
116:   2938.53   0.000095    0.48  0.000010  (-0.001574 -0.002753 -0.000010)
117:   2939.28   0.000316    1.60  0.000034  (-0.004953  0.003000  0.000013)
118:   2942.81   0.001964    9.93  0.000208  (-0.014380  0.001221 -0.000039)
119:   2943.96   0.002041   10.31  0.000216  (-0.014707  0.000105 -0.000053)
120:   2950.68   0.007164   36.21  0.000758  ( 0.027222  0.004085  0.000013)
121:   2953.17   0.010771   54.43  0.001138  ( 0.031601  0.011814 -0.000052)
122:   2955.76   0.008695   43.94  0.000918  (-0.021719  0.021125  0.000041)
123:   2956.10   0.009761   49.33  0.001030  ( 0.025479 -0.019527 -0.000090)
124:   2958.52   0.000178    0.90  0.000019  (-0.000116  0.000033 -0.004333)
125:   2959.67   0.000280    1.41  0.000030  (-0.000360  0.000013 -0.005419)
126:   2967.88   0.000032    0.16  0.000003  (-0.000071  0.000004  0.001828)
127:   2969.89   0.000044    0.22  0.000005  (-0.000226 -0.000025  0.002130)
128:   2991.24   0.006733   34.02  0.000702  ( 0.000017  0.000064 -0.026502)
129:   2993.00   0.007934   40.10  0.000827  ( 0.000053 -0.000083  0.028762)
130:   3016.97   0.010790   54.53  0.001116  ( 0.000048  0.000093 -0.033408)
131:   3017.24   0.016677   84.28  0.001725  (-0.000051 -0.000149  0.041531)
132:   3025.25   0.008826   44.60  0.000910  (-0.021567 -0.021101 -0.000105)
133:   3025.52   0.008852   44.74  0.000913  (-0.023161 -0.019406 -0.000115)
134:   3110.73   0.000747    3.77  0.000075  ( 0.008642 -0.000465  0.000003)
135:   3119.06   0.001575    7.96  0.000158  ( 0.000657  0.012536  0.000042)
136:   3131.21   0.002068   10.45  0.000206  ( 0.008205 -0.011782 -0.000014)
137:   3131.87   0.005624   28.42  0.000560  ( 0.023615 -0.001653  0.000010)
138:   3135.09   0.000519    2.62  0.000052  ( 0.000462  0.007172  0.000008)
139:   3139.44   0.005639   28.50  0.000561  (-0.001489 -0.023629 -0.000078)
140:   3145.26   0.002671   13.50  0.000265  (-0.016239  0.001127 -0.000005)

* The epsilon (eps) is given for a Dirac delta lineshape.
** The dipole moment derivative (T) already includes vibrational overlap.

The first frequency considered to be a vibration is 7
The total number of vibrations considered is 134


--------------------------
THERMOCHEMISTRY AT 298.15K
--------------------------

Temperature         ... 298.15 K
Pressure            ... 1.00 atm
Total Mass          ... 289.44 AMU

Throughout the following assumptions are being made:
  (1) The electronic state is orbitally nondegenerate
      but the spin degeneracy is treated
  (2) There are no thermally accessible electronically excited states
  (3) Hindered rotations indicated by low frequency modes are not
      treated as such but are treated as vibrations and this may
      cause some error
  (4) All equations used are the standard statistical mechanics
      equations for an ideal gas
  (5) All vibrations are strictly harmonic

freq.       9.63  E(vib)   ...       0.58 
freq.      32.76  E(vib)   ...       0.55 
freq.      41.34  E(vib)   ...       0.54 
freq.      57.70  E(vib)   ...       0.51 
freq.      61.21  E(vib)   ...       0.51 
freq.      87.05  E(vib)   ...       0.48 
freq.     119.64  E(vib)   ...       0.44 
freq.     130.20  E(vib)   ...       0.43 
freq.     132.27  E(vib)   ...       0.42 
freq.     145.60  E(vib)   ...       0.41 
freq.     155.30  E(vib)   ...       0.40 
freq.     161.72  E(vib)   ...       0.39 
freq.     176.13  E(vib)   ...       0.38 
freq.     199.09  E(vib)   ...       0.35 
freq.     229.58  E(vib)   ...       0.32 
freq.     273.23  E(vib)   ...       0.29 
freq.     279.49  E(vib)   ...       0.28 
freq.     298.79  E(vib)   ...       0.26 
freq.     316.73  E(vib)   ...       0.25 
freq.     333.05  E(vib)   ...       0.24 
freq.     334.17  E(vib)   ...       0.24 
freq.     340.13  E(vib)   ...       0.23 
freq.     389.36  E(vib)   ...       0.20 
freq.     408.65  E(vib)   ...       0.19 
freq.     442.56  E(vib)   ...       0.17 
freq.     449.37  E(vib)   ...       0.17 
freq.     468.64  E(vib)   ...       0.16 
freq.     505.47  E(vib)   ...       0.14 
freq.     544.20  E(vib)   ...       0.12 
freq.     549.92  E(vib)   ...       0.12 
freq.     558.13  E(vib)   ...       0.12 
freq.     577.64  E(vib)   ...       0.11 
freq.     602.58  E(vib)   ...       0.10 
freq.     630.25  E(vib)   ...       0.09 
freq.     693.73  E(vib)   ...       0.07 
freq.     705.48  E(vib)   ...       0.07 
freq.     710.58  E(vib)   ...       0.07 
freq.     768.41  E(vib)   ...       0.06 
freq.     771.87  E(vib)   ...       0.05 
freq.     772.40  E(vib)   ...       0.05 
freq.     801.04  E(vib)   ...       0.05 
freq.     814.65  E(vib)   ...       0.05 
freq.     815.15  E(vib)   ...       0.05 
freq.     816.51  E(vib)   ...       0.05 
freq.     886.08  E(vib)   ...       0.04 
freq.     893.00  E(vib)   ...       0.03 
freq.     921.64  E(vib)   ...       0.03 
freq.     922.32  E(vib)   ...       0.03 
freq.     927.25  E(vib)   ...       0.03 
freq.     947.41  E(vib)   ...       0.03 
freq.     959.23  E(vib)   ...       0.03 
freq.     967.30  E(vib)   ...       0.03 
freq.     972.20  E(vib)   ...       0.03 
freq.    1008.08  E(vib)   ...       0.02 
freq.    1015.07  E(vib)   ...       0.02 
freq.    1029.42  E(vib)   ...       0.02 
freq.    1039.59  E(vib)   ...       0.02 
freq.    1041.83  E(vib)   ...       0.02 
freq.    1056.07  E(vib)   ...       0.02 
freq.    1081.55  E(vib)   ...       0.02 
freq.    1083.81  E(vib)   ...       0.02 
freq.    1111.23  E(vib)   ...       0.01 
freq.    1114.58  E(vib)   ...       0.01 
freq.    1128.08  E(vib)   ...       0.01 
freq.    1134.70  E(vib)   ...       0.01 
freq.    1135.70  E(vib)   ...       0.01 
freq.    1138.94  E(vib)   ...       0.01 
freq.    1186.16  E(vib)   ...       0.01 
freq.    1191.54  E(vib)   ...       0.01 
freq.    1206.49  E(vib)   ...       0.01 
freq.    1223.41  E(vib)   ...       0.01 
freq.    1251.98  E(vib)   ...       0.01 
freq.    1252.75  E(vib)   ...       0.01 
freq.    1273.38  E(vib)   ...       0.01 
freq.    1277.73  E(vib)   ...       0.01 
freq.    1293.35  E(vib)   ...       0.01 
freq.    1321.48  E(vib)   ...       0.01 
freq.    1325.22  E(vib)   ...       0.01 
freq.    1325.69  E(vib)   ...       0.01 
freq.    1333.49  E(vib)   ...       0.01 
freq.    1343.15  E(vib)   ...       0.01 
freq.    1343.33  E(vib)   ...       0.01 
freq.    1350.51  E(vib)   ...       0.01 
freq.    1378.62  E(vib)   ...       0.01 
freq.    1381.02  E(vib)   ...       0.01 
freq.    1388.29  E(vib)   ...       0.00 
freq.    1399.67  E(vib)   ...       0.00 
freq.    1420.17  E(vib)   ...       0.00 
freq.    1424.25  E(vib)   ...       0.00 
freq.    1430.89  E(vib)   ...       0.00 
freq.    1431.09  E(vib)   ...       0.00 
freq.    1477.66  E(vib)   ...       0.00 
freq.    1478.28  E(vib)   ...       0.00 
freq.    1488.24  E(vib)   ...       0.00 
freq.    1494.02  E(vib)   ...       0.00 
freq.    1498.64  E(vib)   ...       0.00 
freq.    1499.10  E(vib)   ...       0.00 
freq.    1510.37  E(vib)   ...       0.00 
freq.    1510.92  E(vib)   ...       0.00 
freq.    1511.77  E(vib)   ...       0.00 
freq.    1511.92  E(vib)   ...       0.00 
freq.    1524.36  E(vib)   ...       0.00 
freq.    1524.61  E(vib)   ...       0.00 
freq.    1529.51  E(vib)   ...       0.00 
freq.    1575.49  E(vib)   ...       0.00 
freq.    1624.02  E(vib)   ...       0.00 
freq.    1637.76  E(vib)   ...       0.00 
freq.    1660.76  E(vib)   ...       0.00 
freq.    2303.03  E(vib)   ...       0.00 
freq.    2938.53  E(vib)   ...       0.00 
freq.    2939.28  E(vib)   ...       0.00 
freq.    2942.81  E(vib)   ...       0.00 
freq.    2943.96  E(vib)   ...       0.00 
freq.    2950.68  E(vib)   ...       0.00 
freq.    2953.17  E(vib)   ...       0.00 
freq.    2955.76  E(vib)   ...       0.00 
freq.    2956.10  E(vib)   ...       0.00 
freq.    2958.52  E(vib)   ...       0.00 
freq.    2959.67  E(vib)   ...       0.00 
freq.    2967.88  E(vib)   ...       0.00 
freq.    2969.89  E(vib)   ...       0.00 
freq.    2991.24  E(vib)   ...       0.00 
freq.    2993.00  E(vib)   ...       0.00 
freq.    3016.97  E(vib)   ...       0.00 
freq.    3017.24  E(vib)   ...       0.00 
freq.    3025.25  E(vib)   ...       0.00 
freq.    3025.52  E(vib)   ...       0.00 
freq.    3110.73  E(vib)   ...       0.00 
freq.    3119.06  E(vib)   ...       0.00 
freq.    3131.21  E(vib)   ...       0.00 
freq.    3131.87  E(vib)   ...       0.00 
freq.    3135.09  E(vib)   ...       0.00 
freq.    3139.44  E(vib)   ...       0.00 
freq.    3145.26  E(vib)   ...       0.00 

------------
INNER ENERGY
------------

The inner energy is: U= E(el) + E(ZPE) + E(vib) + E(rot) + E(trans)
    E(el)   - is the total energy from the electronic structure calculation
              = E(kin-el) + E(nuc-el) + E(el-el) + E(nuc-nuc)
    E(ZPE)  - the the zero temperature vibrational energy from the frequency calculation
    E(vib)  - the the finite temperature correction to E(ZPE) due to population
              of excited vibrational states
    E(rot)  - is the rotational thermal energy
    E(trans)- is the translational thermal energy

Summary of contributions to the inner energy U:
Electronic energy                ...   -852.82405631 Eh
Zero point energy                ...      0.40268616 Eh     252.69 kcal/mol
Thermal vibrational correction   ...      0.01823788 Eh      11.44 kcal/mol
Thermal rotational correction    ...      0.00141627 Eh       0.89 kcal/mol
Thermal translational correction ...      0.00141627 Eh       0.89 kcal/mol
-----------------------------------------------------------------------
Total thermal energy                   -852.40029973 Eh


Summary of corrections to the electronic energy:
(perhaps to be used in another calculation)
Total thermal correction                  0.02107043 Eh      13.22 kcal/mol
Non-thermal (ZPE) correction              0.40268616 Eh     252.69 kcal/mol
-----------------------------------------------------------------------
Total correction                          0.42375659 Eh     265.91 kcal/mol


--------
ENTHALPY
--------

The enthalpy is H = U + kB*T
                kB is Boltzmann's constant
Total free energy                 ...   -852.40029973 Eh 
Thermal Enthalpy correction       ...      0.00094421 Eh       0.59 kcal/mol
-----------------------------------------------------------------------
Total Enthalpy                    ...   -852.39935552 Eh


Note: Only C1 symmetry has been detected, increase convergence thresholds 
      if your molecule has a higher symmetry. Symmetry factor of 1.0 is   
      used for the rotational entropy correction. 
 

Note: Rotational entropy computed according to Herzberg 
Infrared and Raman Spectra, Chapter V,1, Van Nostrand Reinhold, 1945 
Point Group:  C1, Symmetry Number:   1  
Rotational constants in cm-1:     0.007056     0.004915     0.002910 

Vibrational entropy computed according to the QRRHO of S. Grimme
Chem.Eur.J. 2012 18 9955


-------
ENTROPY
-------

The entropy contributions are T*S = T*(S(el)+S(vib)+S(rot)+S(trans))
     S(el)   - electronic entropy
     S(vib)  - vibrational entropy
     S(rot)  - rotational entropy
     S(trans)- translational entropy
The entropies will be listed as multiplied by the temperature to get
units of energy

Electronic entropy                ...      0.00065446 Eh      0.41 kcal/mol
Vibrational entropy               ...      0.03267910 Eh     20.51 kcal/mol
Rotational entropy                ...      0.01711579 Eh     10.74 kcal/mol
Translational entropy             ...      0.02037643 Eh     12.79 kcal/mol
-----------------------------------------------------------------------
Final entropy term                ...      0.07082578 Eh     44.44 kcal/mol

In case the symmetry of your molecule has not been determined correctly
or in case you have a reason to use a different symmetry number we print 
out the resulting rotational entropy values for sn=1,12 :
 --------------------------------------------------------
|  sn= 1 | S(rot)=       0.01711579 Eh     10.74 kcal/mol|
|  sn= 2 | S(rot)=       0.01646134 Eh     10.33 kcal/mol|
|  sn= 3 | S(rot)=       0.01607850 Eh     10.09 kcal/mol|
|  sn= 4 | S(rot)=       0.01580688 Eh      9.92 kcal/mol|
|  sn= 5 | S(rot)=       0.01559619 Eh      9.79 kcal/mol|
|  sn= 6 | S(rot)=       0.01542405 Eh      9.68 kcal/mol|
|  sn= 7 | S(rot)=       0.01527850 Eh      9.59 kcal/mol|
|  sn= 8 | S(rot)=       0.01515242 Eh      9.51 kcal/mol|
|  sn= 9 | S(rot)=       0.01504121 Eh      9.44 kcal/mol|
|  sn=10 | S(rot)=       0.01494174 Eh      9.38 kcal/mol|
|  sn=11 | S(rot)=       0.01485175 Eh      9.32 kcal/mol|
|  sn=12 | S(rot)=       0.01476959 Eh      9.27 kcal/mol|
 --------------------------------------------------------


-------------------
GIBBS FREE ENERGY
-------------------

The Gibbs free energy is G = H - T*S

Total enthalpy                    ...   -852.39935552 Eh 
Total entropy correction          ...     -0.07082578 Eh    -44.44 kcal/mol
-----------------------------------------------------------------------
Final Gibbs free energy         ...   -852.47018130 Eh

For completeness - the Gibbs free energy minus the electronic energy
G-E(el)                           ...      0.35387501 Eh    222.06 kcal/mol


Timings for individual modules:

Sum of individual times         ...     1069.562 sec (=  17.826 min)
GTO integral calculation        ...        3.085 sec (=   0.051 min)   0.3 %
SCF iterations                  ...       95.231 sec (=   1.587 min)   8.9 %
Analytical frequency calculation...      971.247 sec (=  16.187 min)  90.8 %
                             ****ORCA TERMINATED NORMALLY****
TOTAL RUN TIME: 0 days 0 hours 17 minutes 55 seconds 603 msec
