
                                 *****************
                                 * O   R   C   A *
                                 *****************

           --- An Ab Initio, DFT and Semiempirical electronic structure package ---

                  #######################################################
                  #                        -***-                        #
                  #          Department of theory and spectroscopy      #
                  #               Directorship: Frank Neese             #
                  #        Max Planck Institute fuer Kohlenforschung    #
                  #                Kaiser Wilhelm Platz 1               #
                  #                 D-45470 Muelheim/Ruhr               #
                  #                      Germany                        #
                  #                                                     #
                  #                  All rights reserved                #
                  #                        -***-                        #
                  #######################################################


                         Program Version 4.2.1 -  RELEASE  -


 With contributions from (in alphabetic order):
   Daniel Aravena         : Magnetic Suceptibility
   Michael Atanasov       : Ab Initio Ligand Field Theory (pilot matlab implementation)
   Alexander A. Auer      : GIAO ZORA, VPT2
   Ute Becker             : Parallelization
   Giovanni Bistoni       : ED, misc. LED, open-shell LED, HFLD
   Martin Brehm           : Molecular dynamics
   Dmytro Bykov           : SCF Hessian
   Vijay G. Chilkuri      : MRCI spin determinant printing, contributions to CSF-ICE
   Dipayan Datta          : RHF DLPNO-CCSD density
   Achintya Kumar Dutta   : EOM-CC, STEOM-CC
   Dmitry Ganyushin       : Spin-Orbit,Spin-Spin,Magnetic field MRCI
   Miquel Garcia          : C-PCM Hessian, Gaussian charge scheme
   Yang Guo               : DLPNO-NEVPT2, CIM, IAO-localization
   Andreas Hansen         : Spin unrestricted coupled pair/coupled cluster methods
   Benjamin Helmich-Paris : CASSCF linear response (MC-RPA)
   Lee Huntington         : MR-EOM, pCC
   Robert Izsak           : Overlap fitted RIJCOSX, COSX-SCS-MP3, EOM
   Christian Kollmar      : KDIIS, OOCD, Brueckner-CCSD(T), CCSD density
   Simone Kossmann        : Meta GGA functionals, TD-DFT gradient, OOMP2, MP2 Hessian
   Martin Krupicka        : AUTO-CI
   Lucas Lang             : DCDCAS
   Dagmar Lenk            : GEPOL surface, SMD
   Dimitrios Liakos       : Extrapolation schemes; Compound Job, initial MDCI parallelization
   Dimitrios Manganas     : Further ROCIS development; embedding schemes
   Dimitrios Pantazis     : SARC Basis sets
   Taras Petrenko         : DFT Hessian,TD-DFT gradient, ASA, ECA, R-Raman, ABS, FL, XAS/XES, NRVS
   Peter Pinski           : DLPNO-MP2, DLPNO-MP2 Gradient
   Christoph Reimann      : Effective Core Potentials
   Marius Retegan         : Local ZFS, SOC
   Christoph Riplinger    : Optimizer, TS searches, QM/MM, DLPNO-CCSD(T), (RO)-DLPNO pert. Triples
   Tobias Risthaus        : Range-separated hybrids, TD-DFT gradient, RPA, STAB
   Michael Roemelt        : Original ROCIS implementation
   Masaaki Saitow         : Open-shell DLPNO-CCSD energy and density
   Barbara Sandhoefer     : DKH picture change effects
   Avijit Sen             : IP-ROCIS
   Kantharuban Sivalingam : CASSCF convergence, NEVPT2, FIC-MRCI
   Bernardo de Souza      : ESD, SOC TD-DFT
   Georgi Stoychev        : AutoAux, RI-MP2 NMR
   Willem Van den Heuvel  : Paramagnetic NMR
   Boris Wezisla          : Elementary symmetry handling
   Frank Wennmohs         : Technical directorship


 We gratefully acknowledge several colleagues who have allowed us to
 interface, adapt or use parts of their codes:
   Stefan Grimme, W. Hujo, H. Kruse,             : VdW corrections, initial TS optimization,
                  C. Bannwarth                     DFT functionals, gCP, sTDA/sTD-DF
   Ed Valeev, F. Pavosevic, A. Kumar             : LibInt (2-el integral package), F12 methods
   Garnet Chan, S. Sharma, J. Yang, R. Olivares  : DMRG
   Ulf Ekstrom                                   : XCFun DFT Library
   Mihaly Kallay                                 : mrcc  (arbitrary order and MRCC methods)
   Andreas Klamt, Michael Diedenhofen            : otool_cosmo (COSMO solvation model)
   Jiri Pittner, Ondrej Demel                    : Mk-CCSD
   Frank Weinhold                                : gennbo (NPA and NBO analysis)
   Christopher J. Cramer and Donald G. Truhlar   : smd solvation model
   Lars Goerigk                                  : TD-DFT with DH, B97 family of functionals
   V. Asgeirsson, H. Jonsson                     : NEB implementation
   FAccTs GmbH                                   : IRC, NEB, NEB-TS, Multilevel, MM, QM/MM, CI optimization
   S Lehtola, MJT Oliveira, MAL Marques          : LibXC Library


 Your calculation uses the libint2 library for the computation of 2-el integrals
 For citations please refer to: http://libint.valeyev.net

 Your ORCA version has been built with support for libXC version: 4.2.3
 For citations please refer to: https://tddft.org/programs/libxc/

 This ORCA versions uses:
   CBLAS   interface :  Fast vector & matrix operations
   LAPACKE interface :  Fast linear algebra routines
   SCALAPACK package :  Parallel linear algebra routines




***************************************
The coordinates will be read from file: opt.xyz
***************************************


----- Orbital basis set information -----
Your calculation utilizes the basis: EPR-II
   V. Barone, in Recent Advances in Density Functional Methods, Part 1 (ed. D. P. Chong), World Scientific, Singapore, 1995, p. 287.

----- AuxJ basis set information -----
Your calculation utilizes the AutoAux generation procedure.
  G. L. Stoychev, A. A. Auer, F. Neese, J. Chem. Theory Comput. 13, 554 (2017)

----- AuxC basis set information -----
Your calculation utilizes the AutoAux generation procedure.
  G. L. Stoychev, A. A. Auer, F. Neese, J. Chem. Theory Comput. 13, 554 (2017)

----- AuxJK basis set information -----
Your calculation utilizes the AutoAux generation procedure.
  G. L. Stoychev, A. A. Auer, F. Neese, J. Chem. Theory Comput. 13, 554 (2017)

================================================================================
                                        WARNINGS
                       Please study these warnings very carefully!
================================================================================


WARNING: your system is open-shell and RHF/RKS was chosen
  ===> : WILL SWITCH to UHF/UKS


INFO   : the flag for use of LIBINT has been found!

================================================================================
                                       INPUT FILE
================================================================================
NAME = g-tensor_EPRII_invariant.inp
|  1> ! B3LYP EPR-II AUTOAUX
|  2> %pal nprocs 16 end
|  3> *XYZFile 0 2 opt.xyz
|  4> %EPRNMR
|  5>         GTENSOR   TRUE
|  6>         NUCLEI    = ALL H {AISO, ADIP, AORB}
|  7>         ORI       GIAO
|  8> END
|  9> 
| 10>                          ****END OF INPUT****
================================================================================

                       ****************************
                       * Single Point Calculation *
                       ****************************

---------------------------------
CARTESIAN COORDINATES (ANGSTROEM)
---------------------------------
  C      3.991511   -0.051354    0.061761
  C      2.775483   -0.000375    0.043916
  C     -2.905329    0.003409   -0.019251
  C      1.348208    0.035463    0.027039
  C      0.635275    1.289740    0.016328
  C     -0.785894    1.210426    0.001471
  C     -1.471436   -0.005307   -0.003499
  C     -0.755768   -1.242411    0.006457
  C      0.640064   -1.178273    0.021464
  H     -1.370423    2.130486   -0.006719
  H      1.222046   -2.099597    0.029704
  C      1.311352    2.530280    0.019986
  H      2.404598    2.504162    0.031406
  C      0.641667    3.871557    0.008845
  H     -0.020572    3.957390   -0.877730
  H     -0.041612    3.961980    0.878868
  C      1.626221    5.047629    0.017286
  H      2.276228    4.966554    0.907965
  H      2.295774    4.962474   -0.858453
  C      0.932591    6.410773    0.006552
  H      0.280469    6.536126    0.888444
  H      0.300292    6.532105   -0.890213
  C     -1.518605   -2.551097    0.000737
  H     -2.204257   -2.555865    0.869274
  H     -2.190332   -2.556088   -0.878503
  C     -0.687377   -3.836461    0.007269
  H     -0.016292   -3.854077   -0.871818
  H     -0.031038   -3.855000    0.897344
  C     -1.554960   -5.100430   -0.000339
  H     -2.228001   -5.085489    0.877518
  H     -2.214964   -5.083782   -0.887967
  C     -0.735037   -6.392483    0.004372
  H     -0.090218   -6.455138    0.898268
  H     -0.077834   -6.453758   -0.880570
  C     -4.120999    0.013860   -0.034176
  H      5.062546   -0.102884    0.083466
  H     -5.193380    0.029268   -0.049948
  H      1.664045    7.234693    0.012825
  H     -1.384275   -7.282850   -0.000814

----------------------------
CARTESIAN COORDINATES (A.U.)
----------------------------
  NO LB      ZA    FRAG     MASS         X           Y           Z
   0 C     6.0000    0    12.011    7.542862   -0.097045    0.116712
   1 C     6.0000    0    12.011    5.244903   -0.000709    0.082990
   2 C     6.0000    0    12.011   -5.490276    0.006442   -0.036380
   3 C     6.0000    0    12.011    2.547745    0.067015    0.051095
   4 C     6.0000    0    12.011    1.200495    2.437255    0.030855
   5 C     6.0000    0    12.011   -1.485124    2.287373    0.002780
   6 C     6.0000    0    12.011   -2.780611   -0.010029   -0.006612
   7 C     6.0000    0    12.011   -1.428195   -2.347817    0.012201
   8 C     6.0000    0    12.011    1.209545   -2.226614    0.040561
   9 H     1.0000    0     1.008   -2.589725    4.026035   -0.012697
  10 H     1.0000    0     1.008    2.309333   -3.967664    0.056132
  11 C     6.0000    0    12.011    2.478095    4.781536    0.037768
  12 H     1.0000    0     1.008    4.544032    4.732180    0.059349
  13 C     6.0000    0    12.011    1.212574    7.316182    0.016714
  14 H     1.0000    0     1.008   -0.038875    7.478384   -1.658670
  15 H     1.0000    0     1.008   -0.078636    7.487057    1.660821
  16 C     6.0000    0    12.011    3.073113    9.538637    0.032666
  17 H     1.0000    0     1.008    4.301447    9.385427    1.715806
  18 H     1.0000    0     1.008    4.338383    9.377716   -1.622241
  19 C     6.0000    0    12.011    1.762341   12.114606    0.012381
  20 H     1.0000    0     1.008    0.530010   12.351489    1.678916
  21 H     1.0000    0     1.008    0.567469   12.343890   -1.682258
  22 C     6.0000    0    12.011   -2.869748   -4.820875    0.001392
  23 H     1.0000    0     1.008   -4.165442   -4.829884    1.642690
  24 H     1.0000    0     1.008   -4.139128   -4.830306   -1.660130
  25 C     6.0000    0    12.011   -1.298954   -7.249861    0.013737
  26 H     1.0000    0     1.008   -0.030788   -7.283151   -1.647497
  27 H     1.0000    0     1.008   -0.058654   -7.284893    1.695734
  28 C     6.0000    0    12.011   -2.938449   -9.638415   -0.000640
  29 H     1.0000    0     1.008   -4.210312   -9.610181    1.658268
  30 H     1.0000    0     1.008   -4.185676   -9.606955   -1.678015
  31 C     6.0000    0    12.011   -1.389018  -12.080042    0.008262
  32 H     1.0000    0     1.008   -0.170487  -12.198443    1.697480
  33 H     1.0000    0     1.008   -0.147086  -12.195834   -1.664036
  34 C     6.0000    0    12.011   -7.787560    0.026192   -0.064584
  35 H     1.0000    0     1.008    9.566826   -0.194423    0.157728
  36 H     1.0000    0     1.008   -9.814066    0.055308   -0.094388
  37 H     1.0000    0     1.008    3.144588   13.671588    0.024236
  38 H     1.0000    0     1.008   -2.615901  -13.762592   -0.001538

--------------------------------
INTERNAL COORDINATES (ANGSTROEM)
--------------------------------
 C      0   0   0     0.000000000000     0.00000000     0.00000000
 C      1   0   0     1.217226758795     0.00000000     0.00000000
 C      2   1   0     5.681164335592   177.62908379     0.00000000
 C      2   1   3     1.427824271150   179.02420307     4.69851965
 C      4   2   1     1.442774975859   121.05486880   170.48329527
 C      5   4   2     1.423457112580   116.42231434   180.07807512
 C      6   5   4     1.395707439418   122.61292822   359.96254246
 C      7   6   5     1.429232938080   120.52951075     0.00000000
 C      8   7   6     1.397385211034   117.42100256     0.00000000
 H      6   5   4     1.090069902887   119.23668011   179.98077849
 H      9   8   7     1.089775105618   119.65148094   179.98215189
 C      5   4   2     1.412810568688   121.79384026     0.09622949
 H     12   5   4     1.093618154737   117.22123438     0.00000000
 C     12   5   4     1.499208166807   124.87518878   179.97001726
 H     14  12   5     1.109928950768   109.97687287   302.56621873
 H     14  12   5     1.109949438672   110.00126312    57.28980767
 C     14  12   5     1.533807642495   113.52937794   179.94826448
 H     17  14  12     1.105617870278   109.00124258   302.37515644
 H     17  14  12     1.105654078182   108.98395146    57.69111464
 C     17  14  12     1.529509591063   113.09299709   180.03011537
 H     20  17  14     1.103951696075   111.31412191    59.86022252
 H     20  17  14     1.103952090484   111.30907155   300.14652537
 C      8   7   6     1.514797791329   119.70971270   180.00458954
 H     23   8   7     1.106570447548   108.22757393   303.56345941
 H     23   8   7     1.106482953854   108.21707674    56.06599807
 C     23   8   7     1.530733130249   116.87020325   179.80076408
 H     26  23   8     1.106100474726   109.84292632   301.80314755
 H     26  23   8     1.106054355109   109.86123145    58.29287237
 C     26  23   8     1.533093534070   112.64236237   180.04364688
 H     29  26  23     1.106272696846   109.22115348   302.25247479
 H     29  26  23     1.106240271586   109.22044740    57.61446282
 C     29  26  23     1.530260591753   113.13428252   179.92975370
 H     32  29  26     1.103977449696   111.30727789    59.83280938
 H     32  29  26     1.103989320895   111.30668961   300.11877949
 C      3   2   1     1.215806806746   179.54082833   183.37936127
 H      1   2   4     1.072493957005   179.52314077   327.50395744
 H     35   3   7     1.072607590439   179.64135417   355.69176445
 H     20  17  14     1.101774809668   111.42972278   180.00599459
 H     32  29  26     1.101948563387   111.50117371   179.97476049

---------------------------
INTERNAL COORDINATES (A.U.)
---------------------------
 C      0   0   0     0.000000000000     0.00000000     0.00000000
 C      1   0   0     2.300225217002     0.00000000     0.00000000
 C      2   1   0    10.735844716069   177.62908379     0.00000000
 C      2   1   3     2.698196839840   179.02420307     4.69851965
 C      4   2   1     2.726449577248   121.05486880   170.48329527
 C      5   4   2     2.689944106159   116.42231434   180.07807512
 C      6   5   4     2.637504823576   122.61292822   359.96254246
 C      7   6   5     2.700858834552   120.52951075     0.00000000
 C      8   7   6     2.640675352446   117.42100256     0.00000000
 H      6   5   4     2.059933583286   119.23668011   179.98077849
 H      9   8   7     2.059376497183   119.65148094   179.98215189
 C      5   4   2     2.669825053930   121.79384026     0.09622949
 H     12   5   4     2.066638807538   117.22123438     0.00000000
 C     12   5   4     2.833092853003   124.87518878   179.97001726
 H     14  12   5     2.097461745063   109.97687287   302.56621873
 H     14  12   5     2.097500461590   110.00126312    57.28980767
 C     14  12   5     2.898476386430   113.52937794   179.94826448
 H     17  14  12     2.089314983594   109.00124258   302.37515644
 H     17  14  12     2.089383406617   108.98395146    57.69111464
 C     17  14  12     2.890354246315   113.09299709   180.03011537
 H     20  17  14     2.086166370661   111.31412191    59.86022252
 H     20  17  14     2.086167115984   111.30907155   300.14652537
 C      8   7   6     2.862552973880   119.70971270   180.00458954
 H     23   8   7     2.091115093756   108.22757393   303.56345941
 H     23   8   7     2.090949754636   108.21707674    56.06599807
 C     23   8   7     2.892666400290   116.87020325   179.80076408
 H     26  23   8     2.090226973833   109.84292632   301.80314755
 H     26  23   8     2.090139820386   109.86123145    58.29287237
 C     26  23   8     2.897126917079   112.64236237   180.04364688
 H     29  26  23     2.090552426474   109.22115348   302.25247479
 H     29  26  23     2.090491151612   109.22044740    57.61446282
 C     29  26  23     2.891773431945   113.13428252   179.92975370
 H     32  29  26     2.086215037951   111.30727789    59.83280938
 H     32  29  26     2.086237471264   111.30668961   300.11877949
 C      3   2   1     2.297541896507   179.54082833   183.37936127
 H      1   2   4     2.026719859025   179.52314077   327.50395744
 H     35   3   7     2.026934595095   179.64135417   355.69176445
 H     20  17  14     2.082052651526   111.42972278   180.00599459
 H     32  29  26     2.082380998470   111.50117371   179.97476049

---------------------
BASIS SET INFORMATION
---------------------
There are 2 groups of distinct atoms

 Group   1 Type C   : 10s5p1d contracted to 6s2p1d pattern {511111/41/1}
 Group   2 Type H   : 6s1p contracted to 4s1p pattern {3111/1}

Atom   0C    basis set group =>   1
Atom   1C    basis set group =>   1
Atom   2C    basis set group =>   1
Atom   3C    basis set group =>   1
Atom   4C    basis set group =>   1
Atom   5C    basis set group =>   1
Atom   6C    basis set group =>   1
Atom   7C    basis set group =>   1
Atom   8C    basis set group =>   1
Atom   9H    basis set group =>   2
Atom  10H    basis set group =>   2
Atom  11C    basis set group =>   1
Atom  12H    basis set group =>   2
Atom  13C    basis set group =>   1
Atom  14H    basis set group =>   2
Atom  15H    basis set group =>   2
Atom  16C    basis set group =>   1
Atom  17H    basis set group =>   2
Atom  18H    basis set group =>   2
Atom  19C    basis set group =>   1
Atom  20H    basis set group =>   2
Atom  21H    basis set group =>   2
Atom  22C    basis set group =>   1
Atom  23H    basis set group =>   2
Atom  24H    basis set group =>   2
Atom  25C    basis set group =>   1
Atom  26H    basis set group =>   2
Atom  27H    basis set group =>   2
Atom  28C    basis set group =>   1
Atom  29H    basis set group =>   2
Atom  30H    basis set group =>   2
Atom  31C    basis set group =>   1
Atom  32H    basis set group =>   2
Atom  33H    basis set group =>   2
Atom  34C    basis set group =>   1
Atom  35H    basis set group =>   2
Atom  36H    basis set group =>   2
Atom  37H    basis set group =>   2
Atom  38H    basis set group =>   2
---------------------------------
AUXILIARY/J BASIS SET INFORMATION
---------------------------------
There are 2 groups of distinct atoms

 Group   1 Type C   : 17s13p12d2f contracted to 17s13p12d2f pattern {11111111111111111/1111111111111/111111111111/11}
 Group   2 Type H   : 15s6p1d contracted to 15s6p1d pattern {111111111111111/111111/1}

Atom   0C    basis set group =>   1
Atom   1C    basis set group =>   1
Atom   2C    basis set group =>   1
Atom   3C    basis set group =>   1
Atom   4C    basis set group =>   1
Atom   5C    basis set group =>   1
Atom   6C    basis set group =>   1
Atom   7C    basis set group =>   1
Atom   8C    basis set group =>   1
Atom   9H    basis set group =>   2
Atom  10H    basis set group =>   2
Atom  11C    basis set group =>   1
Atom  12H    basis set group =>   2
Atom  13C    basis set group =>   1
Atom  14H    basis set group =>   2
Atom  15H    basis set group =>   2
Atom  16C    basis set group =>   1
Atom  17H    basis set group =>   2
Atom  18H    basis set group =>   2
Atom  19C    basis set group =>   1
Atom  20H    basis set group =>   2
Atom  21H    basis set group =>   2
Atom  22C    basis set group =>   1
Atom  23H    basis set group =>   2
Atom  24H    basis set group =>   2
Atom  25C    basis set group =>   1
Atom  26H    basis set group =>   2
Atom  27H    basis set group =>   2
Atom  28C    basis set group =>   1
Atom  29H    basis set group =>   2
Atom  30H    basis set group =>   2
Atom  31C    basis set group =>   1
Atom  32H    basis set group =>   2
Atom  33H    basis set group =>   2
Atom  34C    basis set group =>   1
Atom  35H    basis set group =>   2
Atom  36H    basis set group =>   2
Atom  37H    basis set group =>   2
Atom  38H    basis set group =>   2
---------------------------------
AUXILIARY/C BASIS SET INFORMATION
---------------------------------
There are 2 groups of distinct atoms

 Group   1 Type C   : 17s13p12d2f contracted to 17s13p12d2f pattern {11111111111111111/1111111111111/111111111111/11}
 Group   2 Type H   : 15s6p1d contracted to 15s6p1d pattern {111111111111111/111111/1}

Atom   0C    basis set group =>   1
Atom   1C    basis set group =>   1
Atom   2C    basis set group =>   1
Atom   3C    basis set group =>   1
Atom   4C    basis set group =>   1
Atom   5C    basis set group =>   1
Atom   6C    basis set group =>   1
Atom   7C    basis set group =>   1
Atom   8C    basis set group =>   1
Atom   9H    basis set group =>   2
Atom  10H    basis set group =>   2
Atom  11C    basis set group =>   1
Atom  12H    basis set group =>   2
Atom  13C    basis set group =>   1
Atom  14H    basis set group =>   2
Atom  15H    basis set group =>   2
Atom  16C    basis set group =>   1
Atom  17H    basis set group =>   2
Atom  18H    basis set group =>   2
Atom  19C    basis set group =>   1
Atom  20H    basis set group =>   2
Atom  21H    basis set group =>   2
Atom  22C    basis set group =>   1
Atom  23H    basis set group =>   2
Atom  24H    basis set group =>   2
Atom  25C    basis set group =>   1
Atom  26H    basis set group =>   2
Atom  27H    basis set group =>   2
Atom  28C    basis set group =>   1
Atom  29H    basis set group =>   2
Atom  30H    basis set group =>   2
Atom  31C    basis set group =>   1
Atom  32H    basis set group =>   2
Atom  33H    basis set group =>   2
Atom  34C    basis set group =>   1
Atom  35H    basis set group =>   2
Atom  36H    basis set group =>   2
Atom  37H    basis set group =>   2
Atom  38H    basis set group =>   2
----------------------------------
AUXILIARY/JK BASIS SET INFORMATION
----------------------------------
There are 2 groups of distinct atoms

 Group   1 Type C   : 17s13p12d2f contracted to 17s13p12d2f pattern {11111111111111111/1111111111111/111111111111/11}
 Group   2 Type H   : 15s6p1d contracted to 15s6p1d pattern {111111111111111/111111/1}

Atom   0C    basis set group =>   1
Atom   1C    basis set group =>   1
Atom   2C    basis set group =>   1
Atom   3C    basis set group =>   1
Atom   4C    basis set group =>   1
Atom   5C    basis set group =>   1
Atom   6C    basis set group =>   1
Atom   7C    basis set group =>   1
Atom   8C    basis set group =>   1
Atom   9H    basis set group =>   2
Atom  10H    basis set group =>   2
Atom  11C    basis set group =>   1
Atom  12H    basis set group =>   2
Atom  13C    basis set group =>   1
Atom  14H    basis set group =>   2
Atom  15H    basis set group =>   2
Atom  16C    basis set group =>   1
Atom  17H    basis set group =>   2
Atom  18H    basis set group =>   2
Atom  19C    basis set group =>   1
Atom  20H    basis set group =>   2
Atom  21H    basis set group =>   2
Atom  22C    basis set group =>   1
Atom  23H    basis set group =>   2
Atom  24H    basis set group =>   2
Atom  25C    basis set group =>   1
Atom  26H    basis set group =>   2
Atom  27H    basis set group =>   2
Atom  28C    basis set group =>   1
Atom  29H    basis set group =>   2
Atom  30H    basis set group =>   2
Atom  31C    basis set group =>   1
Atom  32H    basis set group =>   2
Atom  33H    basis set group =>   2
Atom  34C    basis set group =>   1
Atom  35H    basis set group =>   2
Atom  36H    basis set group =>   2
Atom  37H    basis set group =>   2
Atom  38H    basis set group =>   2


           ************************************************************
           *        Program running with 16 parallel MPI-processes    *
           *              working on a common directory               *
           ************************************************************
------------------------------------------------------------------------------
                           ORCA GTO INTEGRAL CALCULATION
------------------------------------------------------------------------------

                         BASIS SET STATISTICS AND STARTUP INFO

 # of primitive gaussian shells          ...  435
 # of primitive gaussian functions       ...  729
 # of contracted shells                  ...  267
 # of contracted basis functions         ...  453
 Highest angular momentum                ...    2
 Maximum contraction depth               ...    5
 Integral package used                   ... LIBINT
 Integral threshhold            Thresh   ...  1.000e-10
 Primitive cut-off              TCut     ...  1.000e-11


------------------------------ INTEGRAL EVALUATION ----------------------------


 * One electron integrals 
 Pre-screening matrix                    ... done
 Shell pair data                         ... done (   0.008 sec)



           ************************************************************
           *        Program running with 16 parallel MPI-processes    *
           *              working on a common directory               *
           ************************************************************
-------------------------------------------------------------------------------
                                 ORCA SCF
-------------------------------------------------------------------------------

------------
SCF SETTINGS
------------
Hamiltonian:
 Density Functional     Method          .... DFT(GTOs)
 Exchange Functional    Exchange        .... B88
   X-Alpha parameter    XAlpha          ....  0.666667
   Becke's b parameter  XBeta           ....  0.004200
 Correlation Functional Correlation     .... LYP
 LDA part of GGA corr.  LDAOpt          .... VWN-5
 Gradients option       PostSCFGGA      .... off
 Hybrid DFT is turned on
   Fraction HF Exchange ScalHFX         ....  0.200000
   Scaling of DF-GGA-X  ScalDFX         ....  0.720000
   Scaling of DF-GGA-C  ScalDFC         ....  0.810000
   Scaling of DF-LDA-C  ScalLDAC        ....  1.000000
   Perturbative correction              ....  0.000000
   Density functional embedding theory  .... OFF
   NL short-range parameter             ....  4.800000


General Settings:
 Integral files         IntName         .... g-tensor_EPRII_invariant
 Hartree-Fock type      HFTyp           .... UHF
 Total Charge           Charge          ....    0
 Multiplicity           Mult            ....    2
 Number of Electrons    NEL             ....  129
 Basis Dimension        Dim             ....  453
 Nuclear Repulsion      ENuc            ....   1144.9345443722 Eh

Convergence Acceleration:
 DIIS                   CNVDIIS         .... on
   Start iteration      DIISMaxIt       ....    12
   Startup error        DIISStart       ....  0.200000
   # of expansion vecs  DIISMaxEq       ....     5
   Bias factor          DIISBfac        ....   1.050
   Max. coefficient     DIISMaxC        ....  10.000
 Newton-Raphson         CNVNR           .... off
 SOSCF                  CNVSOSCF        .... off
 Level Shifting         CNVShift        .... on
   Level shift para.    LevelShift      ....    0.2500
   Turn off err/grad.   ShiftErr        ....    0.0010
 Zerner damping         CNVZerner       .... off
 Static damping         CNVDamp         .... on
   Fraction old density DampFac         ....    0.7000
   Max. Damping (<1)    DampMax         ....    0.9800
   Min. Damping (>=0)   DampMin         ....    0.0000
   Turn off err/grad.   DampErr         ....    0.1000
 Fernandez-Rico         CNVRico         .... off

SCF Procedure:
 Maximum # iterations   MaxIter         ....   125
 SCF integral mode      SCFMode         .... Direct
   Integral package                     .... LIBINT
 Reset frequency        DirectResetFreq ....    20
 Integral Threshold     Thresh          ....  1.000e-10 Eh
 Primitive CutOff       TCut            ....  1.000e-11 Eh

Convergence Tolerance:
 Convergence Check Mode ConvCheckMode   .... Total+1el-Energy
 Convergence forced     ConvForced      .... 0
 Energy Change          TolE            ....  1.000e-06 Eh
 1-El. energy change                    ....  1.000e-03 Eh
 DIIS Error             TolErr          ....  1.000e-06


Diagonalization of the overlap matrix:
Smallest eigenvalue                        ... 1.321e-04
Time for diagonalization                   ...    0.057 sec
Threshold for overlap eigenvalues          ... 1.000e-08
Number of eigenvalues below threshold      ... 0
Time for construction of square roots      ...    0.045 sec
Total time needed                          ...    0.105 sec

-------------------
DFT GRID GENERATION
-------------------

General Integration Accuracy     IntAcc      ...  4.340
Radial Grid Type                 RadialGrid  ... Gauss-Chebyshev
Angular Grid (max. acc.)         AngularGrid ... Lebedev-110
Angular grid pruning method      GridPruning ... 3 (G Style)
Weight generation scheme         WeightScheme... Becke
Basis function cutoff            BFCut       ...    1.0000e-10
Integration weight cutoff        WCut        ...    1.0000e-14
Grids for H and He will be reduced by one unit

# of grid points (after initial pruning)     ...  46482 (   0.0 sec)
# of grid points (after weights+screening)   ...  41708 (   0.1 sec)
nearest neighbour list constructed           ...    0.0 sec
Grid point re-assignment to atoms done       ...    0.0 sec
Grid point division into batches done        ...    0.0 sec
Reduced shell lists constructed in    0.1 sec

Total number of grid points                  ...    41708
Total number of batches                      ...      671
Average number of points per batch           ...       62
Average number of grid points per atom       ...     1069
Average number of shells per batch           ...    95.81 (35.89%)
Average number of basis functions per batch  ...   183.02 (40.40%)
Average number of large shells per batch     ...    63.35 (66.12%)
Average number of large basis fcns per batch ...   120.14 (65.64%)
Maximum spatial batch extension              ...  14.37, 10.68, 19.62 au
Average spatial batch extension              ...   0.18,  0.22,  0.32 au

Time for grid setup =    0.277 sec

------------------------------
INITIAL GUESS: MODEL POTENTIAL
------------------------------
Loading Hartree-Fock densities                     ... done
Calculating cut-offs                               ... done
Setting up the integral package                    ... done
Initializing the effective Hamiltonian             ... done
Starting the Coulomb interaction                   ... done (   0.1 sec)
Reading the grid                                   ... done
Mapping shells                                     ... done
Starting the XC term evaluation                    ... done (   0.1 sec)
  promolecular density results
     # of electrons  =    129.021617537
     EX              =    -98.641112301
     EC              =     -4.219935267
     EX+EC           =   -102.861047568
Transforming the Hamiltonian                       ... done (   0.0 sec)
Diagonalizing the Hamiltonian                      ... done (   0.0 sec)
Back transforming the eigenvectors                 ... done (   0.0 sec)
Now organizing SCF variables                       ... done
                      ------------------
                      INITIAL GUESS DONE (   0.8 sec)
                      ------------------
--------------
SCF ITERATIONS
--------------
ITER       Energy         Delta-E        Max-DP      RMS-DP      [F,P]     Damp
               ***  Starting incremental Fock matrix formation  ***
  0   -697.5970324267   0.000000000000 0.07348888  0.00098821  0.1587249 0.7000
  1   -697.7878712859  -0.190838859170 0.04863004  0.00073956  0.0849033 0.7000
                               ***Turning on DIIS***
  2   -697.8739747607  -0.086103474804 0.12614006  0.00160233  0.0328644 0.0000
  3   -697.9940692965  -0.120094535800 0.02617009  0.00040338  0.0466851 0.0000
  4   -698.0272527400  -0.033183443472 0.02907753  0.00024130  0.0098113 0.0000
  5   -698.0289540857  -0.001701345750 0.01635723  0.00012603  0.0026174 0.0000
  6   -698.0292325866  -0.000278500897 0.00612634  0.00005094  0.0013837 0.0000
  7   -698.0293396859  -0.000107099280 0.00265590  0.00002415  0.0010790 0.0000
  8   -698.0293974820  -0.000057796166 0.00406756  0.00002843  0.0007512 0.0000
  9   -698.0294677085  -0.000070226450 0.00140999  0.00000983  0.0002332 0.0000
 10   -698.0294821416  -0.000014433137 0.00101683  0.00000555  0.0001326 0.0000
 11   -698.0294870365  -0.000004894843 0.00045753  0.00000279  0.0000844 0.0000
 12   -698.0294887259  -0.000001689411 0.00025008  0.00000147  0.0000990 0.0000
                 **** Energy Check signals convergence ****

               *****************************************************
               *                     SUCCESS                       *
               *           SCF CONVERGED AFTER  13 CYCLES          *
               *****************************************************

Setting up the final grid:

General Integration Accuracy     IntAcc      ...  4.670
Radial Grid Type                 RadialGrid  ... Gauss-Chebyshev
Angular Grid (max. acc.)         AngularGrid ... Lebedev-302
Angular grid pruning method      GridPruning ... 3 (G Style)
Weight generation scheme         WeightScheme... Becke
Basis function cutoff            BFCut       ...    1.0000e-10
Integration weight cutoff        WCut        ...    1.0000e-14
Grids for H and He will be reduced by one unit

# of grid points (after initial pruning)     ... 183090 (   0.0 sec)
# of grid points (after weights+screening)   ... 161577 (   0.2 sec)
nearest neighbour list constructed           ...    0.0 sec
Grid point re-assignment to atoms done       ...    0.1 sec
Grid point division into batches done        ...    0.6 sec
Reduced shell lists constructed in    0.9 sec

Total number of grid points                  ...   161577
Total number of batches                      ...     2543
Average number of points per batch           ...       63
Average number of grid points per atom       ...     4143
Average number of shells per batch           ...    89.79 (33.63%)
Average number of basis functions per batch  ...   170.66 (37.67%)
Average number of large shells per batch     ...    59.00 (65.71%)
Average number of large basis fcns per batch ...   111.33 (65.23%)
Maximum spatial batch extension              ...  16.88, 12.83, 23.20 au
Average spatial batch extension              ...   0.14,  0.15,  0.15 au

Final grid set up in    1.2 sec
Final integration                            ... done (   0.6 sec)
Change in XC energy                          ...     0.001640484
Integrated number of electrons               ...   129.000155226
Previous integrated no of electrons          ...   129.021565175

----------------
TOTAL SCF ENERGY
----------------

Total Energy       :         -698.02784893 Eh          -18994.30342 eV

Components:
Nuclear Repulsion  :         1144.93454437 Eh           31155.25285 eV
Electronic Energy  :        -1842.96239330 Eh          -50149.55628 eV
One Electron Energy:        -3212.87112057 Eh          -87426.66788 eV
Two Electron Energy:         1369.90872727 Eh           37277.11160 eV

Virial components:
Potential Energy   :        -1390.44661346 Eh          -37835.97590 eV
Kinetic Energy     :          692.41876453 Eh           18841.67247 eV
Virial Ratio       :            2.00810071


DFT components:
N(Alpha)           :       65.000089425432 electrons
N(Beta)            :       64.000065800188 electrons
N(Total)           :      129.000155225620 electrons
E(X)               :      -79.744797308931 Eh       
E(C)               :       -4.991027867939 Eh       
E(XC)              :      -84.735825176870 Eh       
DFET-embed. en.    :        0.000000000000 Eh       

---------------
SCF CONVERGENCE
---------------

  Last Energy change         ...   -6.9054e-07  Tolerance :   1.0000e-06
  Last MAX-Density change    ...    2.8764e-04  Tolerance :   1.0000e-05
  Last RMS-Density change    ...    1.6996e-06  Tolerance :   1.0000e-06
  Last DIIS Error            ...    3.3198e-05  Tolerance :   1.0000e-06

             **** THE GBW FILE WAS UPDATED (g-tensor_EPRII_invariant.gbw) ****
             **** DENSITY FILE WAS UPDATED (g-tensor_EPRII_invariant.scfp) ****
             **** ENERGY FILE WAS UPDATED (g-tensor_EPRII_invariant.en.tmp) ****
----------------------
UHF SPIN CONTAMINATION
----------------------

Warning: in a DFT calculation there is little theoretical justification to 
         calculate <S**2> as in Hartree-Fock theory. We will do it anyways
         but you should keep in mind that the values have only limited relevance

Expectation value of <S**2>     :     0.784222
Ideal value S*(S+1) for S=0.5   :     0.750000
Deviation                       :     0.034222

             **** THE GBW FILE WAS UPDATED (g-tensor_EPRII_invariant.gbw) ****
             **** DENSITY FILE WAS UPDATED (g-tensor_EPRII_invariant.scfp) ****
----------------
ORBITAL ENERGIES
----------------
                 SPIN UP ORBITALS
  NO   OCC          E(Eh)            E(eV) 
   0   1.0000     -10.226012      -278.2639 
   1   1.0000     -10.224272      -278.2166 
   2   1.0000     -10.214043      -277.9382 
   3   1.0000     -10.210878      -277.8521 
   4   1.0000     -10.207270      -277.7539 
   5   1.0000     -10.205366      -277.7021 
   6   1.0000     -10.204369      -277.6750 
   7   1.0000     -10.200337      -277.5653 
   8   1.0000     -10.199450      -277.5411 
   9   1.0000     -10.198953      -277.5276 
  10   1.0000     -10.198312      -277.5102 
  11   1.0000     -10.191146      -277.3152 
  12   1.0000     -10.189348      -277.2662 
  13   1.0000     -10.185958      -277.1740 
  14   1.0000     -10.183530      -277.1079 
  15   1.0000     -10.183024      -277.0942 
  16   1.0000     -10.175754      -276.8964 
  17   1.0000     -10.173751      -276.8418 
  18   1.0000      -0.875948       -23.8357 
  19   1.0000      -0.820935       -22.3388 
  20   1.0000      -0.798663       -21.7327 
  21   1.0000      -0.795458       -21.6455 
  22   1.0000      -0.768332       -20.9074 
  23   1.0000      -0.754856       -20.5407 
  24   1.0000      -0.731135       -19.8952 
  25   1.0000      -0.723398       -19.6847 
  26   1.0000      -0.698056       -18.9951 
  27   1.0000      -0.657110       -17.8809 
  28   1.0000      -0.641303       -17.4508 
  29   1.0000      -0.617620       -16.8063 
  30   1.0000      -0.594784       -16.1849 
  31   1.0000      -0.580698       -15.8016 
  32   1.0000      -0.563633       -15.3372 
  33   1.0000      -0.544246       -14.8097 
  34   1.0000      -0.526456       -14.3256 
  35   1.0000      -0.500795       -13.6273 
  36   1.0000      -0.488182       -13.2841 
  37   1.0000      -0.478889       -13.0312 
  38   1.0000      -0.471095       -12.8192 
  39   1.0000      -0.463195       -12.6042 
  40   1.0000      -0.434652       -11.8275 
  41   1.0000      -0.430891       -11.7251 
  42   1.0000      -0.426714       -11.6115 
  43   1.0000      -0.422651       -11.5009 
  44   1.0000      -0.412584       -11.2270 
  45   1.0000      -0.399452       -10.8696 
  46   1.0000      -0.398573       -10.8457 
  47   1.0000      -0.381567       -10.3830 
  48   1.0000      -0.380187       -10.3454 
  49   1.0000      -0.365917        -9.9571 
  50   1.0000      -0.358454        -9.7540 
  51   1.0000      -0.355344        -9.6694 
  52   1.0000      -0.340769        -9.2728 
  53   1.0000      -0.333433        -9.0732 
  54   1.0000      -0.332579        -9.0499 
  55   1.0000      -0.331418        -9.0183 
  56   1.0000      -0.328120        -8.9286 
  57   1.0000      -0.324361        -8.8263 
  58   1.0000      -0.321488        -8.7481 
  59   1.0000      -0.287158        -7.8140 
  60   1.0000      -0.278767        -7.5856 
  61   1.0000      -0.277152        -7.5417 
  62   1.0000      -0.272290        -7.4094 
  63   1.0000      -0.232868        -6.3367 
  64   1.0000      -0.175652        -4.7797 
  65   0.0000      -0.051791        -1.4093 
  66   0.0000       0.007929         0.2158 
  67   0.0000       0.018546         0.5047 
  68   0.0000       0.021347         0.5809 
  69   0.0000       0.024734         0.6731 
  70   0.0000       0.030034         0.8173 
  71   0.0000       0.036354         0.9892 
  72   0.0000       0.039663         1.0793 
  73   0.0000       0.040538         1.1031 
  74   0.0000       0.045458         1.2370 
  75   0.0000       0.046407         1.2628 
  76   0.0000       0.049927         1.3586 
  77   0.0000       0.050377         1.3708 
  78   0.0000       0.073668         2.0046 
  79   0.0000       0.079377         2.1600 
  80   0.0000       0.087646         2.3850 
  81   0.0000       0.097765         2.6603 
  82   0.0000       0.106554         2.8995 
  83   0.0000       0.108568         2.9543 
  84   0.0000       0.123051         3.3484 
  85   0.0000       0.136427         3.7124 
  86   0.0000       0.149307         4.0628 
  87   0.0000       0.155306         4.2261 
  88   0.0000       0.157360         4.2820 
  89   0.0000       0.159672         4.3449 
  90   0.0000       0.173776         4.7287 
  91   0.0000       0.180150         4.9021 
  92   0.0000       0.183955         5.0057 
  93   0.0000       0.187493         5.1019 
  94   0.0000       0.195083         5.3085 
  95   0.0000       0.197588         5.3766 
  96   0.0000       0.198799         5.4096 
  97   0.0000       0.199711         5.4344 
  98   0.0000       0.202083         5.4990 
  99   0.0000       0.206973         5.6320 
 100   0.0000       0.213981         5.8227 
 101   0.0000       0.218197         5.9374 
 102   0.0000       0.222006         6.0411 
 103   0.0000       0.234125         6.3709 
 104   0.0000       0.238829         6.4989 
 105   0.0000       0.243144         6.6163 
 106   0.0000       0.250511         6.8167 
 107   0.0000       0.250783         6.8241 
 108   0.0000       0.258555         7.0356 
 109   0.0000       0.260263         7.0821 
 110   0.0000       0.266063         7.2399 
 111   0.0000       0.273116         7.4319 
 112   0.0000       0.274637         7.4732 
 113   0.0000       0.279218         7.5979 
 114   0.0000       0.282168         7.6782 
 115   0.0000       0.288378         7.8472 
 116   0.0000       0.294356         8.0098 
 117   0.0000       0.298989         8.1359 
 118   0.0000       0.300259         8.1705 
 119   0.0000       0.301850         8.2138 
 120   0.0000       0.310122         8.4389 
 121   0.0000       0.310776         8.4566 
 122   0.0000       0.318465         8.6659 
 123   0.0000       0.318526         8.6675 
 124   0.0000       0.324849         8.8396 
 125   0.0000       0.330250         8.9865 
 126   0.0000       0.333478         9.0744 
 127   0.0000       0.337708         9.1895 
 128   0.0000       0.347240         9.4489 
 129   0.0000       0.351915         9.5761 
 130   0.0000       0.359589         9.7849 
 131   0.0000       0.361047         9.8246 
 132   0.0000       0.363454         9.8901 
 133   0.0000       0.368878        10.0377 
 134   0.0000       0.378548        10.3008 
 135   0.0000       0.381927        10.3927 
 136   0.0000       0.383042        10.4231 
 137   0.0000       0.394864        10.7448 
 138   0.0000       0.395045        10.7497 
 139   0.0000       0.398606        10.8466 
 140   0.0000       0.406744        11.0681 
 141   0.0000       0.408173        11.1070 
 142   0.0000       0.416251        11.3268 
 143   0.0000       0.422395        11.4939 
 144   0.0000       0.435960        11.8631 
 145   0.0000       0.441074        12.0022 
 146   0.0000       0.442299        12.0356 
 147   0.0000       0.448210        12.1964 
 148   0.0000       0.455379        12.3915 
 149   0.0000       0.463215        12.6047 
 150   0.0000       0.472840        12.8666 
 151   0.0000       0.479537        13.0489 
 152   0.0000       0.484686        13.1890 
 153   0.0000       0.496659        13.5148 
 154   0.0000       0.505956        13.7678 
 155   0.0000       0.507126        13.7996 
 156   0.0000       0.516898        14.0655 
 157   0.0000       0.517418        14.0797 
 158   0.0000       0.533512        14.5176 
 159   0.0000       0.540701        14.7132 
 160   0.0000       0.545062        14.8319 
 161   0.0000       0.550160        14.9706 
 162   0.0000       0.551047        14.9947 
 163   0.0000       0.562376        15.3030 
 164   0.0000       0.570295        15.5185 
 165   0.0000       0.585137        15.9224 
 166   0.0000       0.589617        16.0443 
 167   0.0000       0.591159        16.0863 
 168   0.0000       0.594554        16.1786 
 169   0.0000       0.602453        16.3936 
 170   0.0000       0.623508        16.9665 
 171   0.0000       0.633314        17.2334 
 172   0.0000       0.652527        17.7562 
 173   0.0000       0.667570        18.1655 
 174   0.0000       0.674780        18.3617 
 175   0.0000       0.706736        19.2313 
 176   0.0000       0.728653        19.8276 
 177   0.0000       0.767027        20.8719 
 178   0.0000       0.784915        21.3586 
 179   0.0000       0.787370        21.4254 
 180   0.0000       0.788809        21.4646 
 181   0.0000       0.810286        22.0490 
 182   0.0000       0.820788        22.3348 
 183   0.0000       0.834939        22.7198 
 184   0.0000       0.839181        22.8353 
 185   0.0000       0.846591        23.0369 
 186   0.0000       0.856448        23.3051 
 187   0.0000       0.857126        23.3236 
 188   0.0000       0.860623        23.4187 
 189   0.0000       0.878632        23.9088 
 190   0.0000       0.878933        23.9170 
 191   0.0000       0.883192        24.0329 
 192   0.0000       0.891598        24.2616 
 193   0.0000       0.904903        24.6237 
 194   0.0000       0.912167        24.8213 
 195   0.0000       0.912360        24.8266 
 196   0.0000       0.920166        25.0390 
 197   0.0000       0.924290        25.1512 
 198   0.0000       0.926164        25.2022 
 199   0.0000       0.934905        25.4401 
 200   0.0000       0.943041        25.6615 
 201   0.0000       0.954554        25.9747 
 202   0.0000       0.958688        26.0872 
 203   0.0000       0.968773        26.3617 
 204   0.0000       0.969838        26.3906 
 205   0.0000       0.976789        26.5798 
 206   0.0000       0.982275        26.7291 
 207   0.0000       0.985392        26.8139 
 208   0.0000       0.996607        27.1191 
 209   0.0000       1.001936        27.2641 
 210   0.0000       1.008678        27.4475 
 211   0.0000       1.026468        27.9316 
 212   0.0000       1.032117        28.0853 
 213   0.0000       1.039148        28.2767 
 214   0.0000       1.039953        28.2986 
 215   0.0000       1.045583        28.4518 
 216   0.0000       1.051250        28.6060 
 217   0.0000       1.058920        28.8147 
 218   0.0000       1.062556        28.9136 
 219   0.0000       1.085459        29.5369 
 220   0.0000       1.101366        29.9697 
 221   0.0000       1.105101        30.0713 
 222   0.0000       1.109621        30.1943 
 223   0.0000       1.119257        30.4565 
 224   0.0000       1.127660        30.6852 
 225   0.0000       1.136050        30.9135 
 226   0.0000       1.150603        31.3095 
 227   0.0000       1.161195        31.5977 
 228   0.0000       1.170690        31.8561 
 229   0.0000       1.174731        31.9661 
 230   0.0000       1.183712        32.2104 
 231   0.0000       1.185144        32.2494 
 232   0.0000       1.200852        32.6768 
 233   0.0000       1.205232        32.7960 
 234   0.0000       1.221090        33.2275 
 235   0.0000       1.228459        33.4281 
 236   0.0000       1.237928        33.6857 
 237   0.0000       1.238335        33.6968 
 238   0.0000       1.252595        34.0848 
 239   0.0000       1.254437        34.1350 
 240   0.0000       1.257740        34.2248 
 241   0.0000       1.261954        34.3395 
 242   0.0000       1.280659        34.8485 
 243   0.0000       1.285211        34.9724 
 244   0.0000       1.304170        35.4883 
 245   0.0000       1.317283        35.8451 
 246   0.0000       1.320006        35.9192 
 247   0.0000       1.332506        36.2593 
 248   0.0000       1.342139        36.5215 
 249   0.0000       1.352502        36.8034 
 250   0.0000       1.369624        37.2694 
 251   0.0000       1.377383        37.4805 
 252   0.0000       1.385379        37.6981 
 253   0.0000       1.397600        38.0306 
 254   0.0000       1.400077        38.0980 
 255   0.0000       1.422923        38.7197 
 256   0.0000       1.426399        38.8143 
 257   0.0000       1.428573        38.8735 
 258   0.0000       1.432329        38.9756 
 259   0.0000       1.441909        39.2363 
 260   0.0000       1.444543        39.3080 
 261   0.0000       1.463239        39.8168 
 262   0.0000       1.465439        39.8766 
 263   0.0000       1.480347        40.2823 
 264   0.0000       1.499727        40.8096 
 265   0.0000       1.507660        41.0255 
 266   0.0000       1.511845        41.1394 
 267   0.0000       1.514723        41.2177 
 268   0.0000       1.520510        41.3752 
 269   0.0000       1.548349        42.1327 
 270   0.0000       1.559006        42.4227 
 271   0.0000       1.560587        42.4657 
 272   0.0000       1.562168        42.5088 
 273   0.0000       1.572033        42.7772 
 274   0.0000       1.585822        43.1524 
 275   0.0000       1.589304        43.2472 
 276   0.0000       1.589498        43.2524 
 277   0.0000       1.597928        43.4818 
 278   0.0000       1.602180        43.5975 
 279   0.0000       1.613462        43.9045 
 280   0.0000       1.624431        44.2030 
 281   0.0000       1.627540        44.2876 
 282   0.0000       1.635410        44.5018 
 283   0.0000       1.655751        45.0553 
 284   0.0000       1.658433        45.1283 
 285   0.0000       1.676148        45.6103 
 286   0.0000       1.687220        45.9116 
 287   0.0000       1.689242        45.9666 
 288   0.0000       1.692642        46.0591 
 289   0.0000       1.702902        46.3383 
 290   0.0000       1.703651        46.3587 
 291   0.0000       1.723516        46.8993 
 292   0.0000       1.727825        47.0165 
 293   0.0000       1.740433        47.3596 
 294   0.0000       1.741383        47.3854 
 295   0.0000       1.748932        47.5909 
 296   0.0000       1.769467        48.1496 
 297   0.0000       1.771114        48.1945 
 298   0.0000       1.777996        48.3817 
 299   0.0000       1.786328        48.6084 
 300   0.0000       1.798024        48.9267 
 301   0.0000       1.802374        49.0451 
 302   0.0000       1.804970        49.1157 
 303   0.0000       1.818870        49.4940 
 304   0.0000       1.826327        49.6969 
 305   0.0000       1.843728        50.1704 
 306   0.0000       1.864066        50.7238 
 307   0.0000       1.899505        51.6882 
 308   0.0000       1.917001        52.1643 
 309   0.0000       1.927378        52.4466 
 310   0.0000       1.928021        52.4641 
 311   0.0000       1.933383        52.6100 
 312   0.0000       1.937677        52.7269 
 313   0.0000       1.951729        53.1093 
 314   0.0000       1.979740        53.8715 
 315   0.0000       2.008127        54.6439 
 316   0.0000       2.035156        55.3794 
 317   0.0000       2.043963        55.6191 
 318   0.0000       2.054220        55.8982 
 319   0.0000       2.074482        56.4495 
 320   0.0000       2.087587        56.8061 
 321   0.0000       2.102639        57.2157 
 322   0.0000       2.105089        57.2824 
 323   0.0000       2.125168        57.8288 
 324   0.0000       2.126636        57.8687 
 325   0.0000       2.155679        58.6590 
 326   0.0000       2.157499        58.7085 
 327   0.0000       2.180101        59.3236 
 328   0.0000       2.189515        59.5797 
 329   0.0000       2.208202        60.0882 
 330   0.0000       2.213014        60.2192 
 331   0.0000       2.237921        60.8969 
 332   0.0000       2.243816        61.0573 
 333   0.0000       2.250201        61.2311 
 334   0.0000       2.256556        61.4040 
 335   0.0000       2.268017        61.7159 
 336   0.0000       2.279552        62.0298 
 337   0.0000       2.302786        62.6620 
 338   0.0000       2.310480        62.8713 
 339   0.0000       2.314451        62.9794 
 340   0.0000       2.325493        63.2799 
 341   0.0000       2.329912        63.4001 
 342   0.0000       2.353466        64.0411 
 343   0.0000       2.374787        64.6212 
 344   0.0000       2.383610        64.8613 
 345   0.0000       2.410589        65.5955 
 346   0.0000       2.427220        66.0480 
 347   0.0000       2.431926        66.1761 
 348   0.0000       2.442414        66.4615 
 349   0.0000       2.456784        66.8525 
 350   0.0000       2.471502        67.2530 
 351   0.0000       2.474549        67.3359 
 352   0.0000       2.482561        67.5539 
 353   0.0000       2.505760        68.1852 
 354   0.0000       2.510430        68.3123 
 355   0.0000       2.524319        68.6902 
 356   0.0000       2.534667        68.9718 
 357   0.0000       2.550917        69.4140 
 358   0.0000       2.558242        69.6133 
 359   0.0000       2.560611        69.6778 
 360   0.0000       2.570396        69.9440 
 361   0.0000       2.580704        70.2245 
 362   0.0000       2.603749        70.8516 
 363   0.0000       2.614088        71.1329 
 364   0.0000       2.625378        71.4402 
 365   0.0000       2.628162        71.5159 
 366   0.0000       2.716261        73.9132 
 367   0.0000       2.773603        75.4736 
 368   0.0000       2.795187        76.0609 
 369   0.0000       2.830444        77.0203 
 370   0.0000       2.905813        79.0712 
 371   0.0000       2.960231        80.5520 
 372   0.0000       2.968154        80.7676 
 373   0.0000       2.984904        81.2234 
 374   0.0000       3.290903        89.5500 
 375   0.0000       4.977670       135.4493 
 376   0.0000       4.984225       135.6277 
 377   0.0000       4.997055       135.9768 
 378   0.0000       5.009274       136.3093 
 379   0.0000       5.009985       136.3286 
 380   0.0000       5.019228       136.5801 
 381   0.0000       5.023242       136.6894 
 382   0.0000       5.024191       136.7152 
 383   0.0000       5.033938       136.9804 
 384   0.0000       5.046325       137.3175 
 385   0.0000       5.201125       141.5298 
 386   0.0000       5.215853       141.9306 
 387   0.0000       5.234284       142.4321 
 388   0.0000       5.244985       142.7233 
 389   0.0000       5.276649       143.5849 
 390   0.0000       5.287238       143.8731 
 391   0.0000       5.295816       144.1065 
 392   0.0000       5.304556       144.3443 
 393   0.0000       5.307861       144.4342 
 394   0.0000       5.337283       145.2349 
 395   0.0000       5.362016       145.9079 
 396   0.0000       5.374819       146.2563 
 397   0.0000       5.394256       146.7852 
 398   0.0000       5.407411       147.1431 
 399   0.0000       5.446311       148.2017 
 400   0.0000       5.550758       151.0438 
 401   0.0000       5.563082       151.3792 
 402   0.0000       5.601273       152.4184 
 403   0.0000       5.628613       153.1624 
 404   0.0000       5.634208       153.3146 
 405   0.0000       5.726790       155.8339 
 406   0.0000       5.736344       156.0939 
 407   0.0000       5.758603       156.6996 
 408   0.0000       5.821520       158.4116 
 409   0.0000       5.849274       159.1668 
 410   0.0000       5.882713       160.0768 
 411   0.0000       6.021570       163.8553 
 412   0.0000       6.245980       169.9618 
 413   0.0000       6.371089       173.3661 
 414   0.0000      29.632518       806.3418 
 415   0.0000      29.808823       811.1393 
 416   0.0000      29.846984       812.1777 
 417   0.0000      29.858179       812.4823 
 418   0.0000      29.976220       815.6944 
 419   0.0000      29.984773       815.9272 
 420   0.0000      30.057523       817.9068 
 421   0.0000      30.080858       818.5418 
 422   0.0000      30.107158       819.2574 
 423   0.0000      30.120505       819.6206 
 424   0.0000      30.159454       820.6805 
 425   0.0000      30.199149       821.7606 
 426   0.0000      30.219368       822.3108 
 427   0.0000      30.256492       823.3210 
 428   0.0000      30.283984       824.0691 
 429   0.0000      30.332784       825.3970 
 430   0.0000      30.453232       828.6746 
 431   0.0000      30.588639       832.3592 
 432   0.0000      36.603389       996.0289 
 433   0.0000      36.612250       996.2700 
 434   0.0000      36.627993       996.6984 
 435   0.0000      36.634432       996.8736 
 436   0.0000      36.638477       996.9836 
 437   0.0000      36.645223       997.1672 
 438   0.0000      36.649928       997.2952 
 439   0.0000      36.660311       997.5778 
 440   0.0000      36.671214       997.8745 
 441   0.0000      36.809641      1001.6413 
 442   0.0000      36.824228      1002.0382 
 443   0.0000      36.849326      1002.7211 
 444   0.0000      36.864610      1003.1370 
 445   0.0000      36.868543      1003.2440 
 446   0.0000      36.875641      1003.4372 
 447   0.0000      36.881622      1003.5999 
 448   0.0000      36.916500      1004.5490 
 449   0.0000      36.933655      1005.0159 
 450   0.0000      36.935946      1005.0782 
 451   0.0000      36.964942      1005.8672 
 452   0.0000      37.008692      1007.0577 

                 SPIN DOWN ORBITALS
  NO   OCC          E(Eh)            E(eV) 
   0   1.0000     -10.225810      -278.2584 
   1   1.0000     -10.222643      -278.1722 
   2   1.0000     -10.213256      -277.9168 
   3   1.0000     -10.210633      -277.8455 
   4   1.0000     -10.206936      -277.7449 
   5   1.0000     -10.206111      -277.7224 
   6   1.0000     -10.201388      -277.5939 
   7   1.0000     -10.200973      -277.5826 
   8   1.0000     -10.199502      -277.5426 
   9   1.0000     -10.197085      -277.4768 
  10   1.0000     -10.191810      -277.3332 
  11   1.0000     -10.190460      -277.2965 
  12   1.0000     -10.189543      -277.2716 
  13   1.0000     -10.185922      -277.1730 
  14   1.0000     -10.183527      -277.1079 
  15   1.0000     -10.183025      -277.0942 
  16   1.0000     -10.175763      -276.8966 
  17   1.0000     -10.173752      -276.8419 
  18   1.0000      -0.872531       -23.7428 
  19   1.0000      -0.815931       -22.2026 
  20   1.0000      -0.796133       -21.6639 
  21   1.0000      -0.793804       -21.6005 
  22   1.0000      -0.766380       -20.8543 
  23   1.0000      -0.754091       -20.5199 
  24   1.0000      -0.726953       -19.7814 
  25   1.0000      -0.721969       -19.6458 
  26   1.0000      -0.695692       -18.9307 
  27   1.0000      -0.654017       -17.7967 
  28   1.0000      -0.639425       -17.3996 
  29   1.0000      -0.612140       -16.6572 
  30   1.0000      -0.593813       -16.1585 
  31   1.0000      -0.579111       -15.7584 
  32   1.0000      -0.561203       -15.2711 
  33   1.0000      -0.542939       -14.7741 
  34   1.0000      -0.524058       -14.2603 
  35   1.0000      -0.498433       -13.5630 
  36   1.0000      -0.486741       -13.2449 
  37   1.0000      -0.477445       -12.9919 
  38   1.0000      -0.470201       -12.7948 
  39   1.0000      -0.459677       -12.5084 
  40   1.0000      -0.432907       -11.7800 
  41   1.0000      -0.429000       -11.6737 
  42   1.0000      -0.425438       -11.5768 
  43   1.0000      -0.419951       -11.4274 
  44   1.0000      -0.412141       -11.2149 
  45   1.0000      -0.397447       -10.8151 
  46   1.0000      -0.391673       -10.6580 
  47   1.0000      -0.377864       -10.2822 
  48   1.0000      -0.377633       -10.2759 
  49   1.0000      -0.364715        -9.9244 
  50   1.0000      -0.357467        -9.7272 
  51   1.0000      -0.352158        -9.5827 
  52   1.0000      -0.338387        -9.2080 
  53   1.0000      -0.332933        -9.0596 
  54   1.0000      -0.330782        -9.0010 
  55   1.0000      -0.329112        -8.9556 
  56   1.0000      -0.327765        -8.9189 
  57   1.0000      -0.323677        -8.8077 
  58   1.0000      -0.320884        -8.7317 
  59   1.0000      -0.281970        -7.6728 
  60   1.0000      -0.278701        -7.5838 
  61   1.0000      -0.276527        -7.5247 
  62   1.0000      -0.259546        -7.0626 
  63   1.0000      -0.224947        -6.1211 
  64   0.0000      -0.086273        -2.3476 
  65   0.0000      -0.042936        -1.1683 
  66   0.0000       0.018903         0.5144 
  67   0.0000       0.021571         0.5870 
  68   0.0000       0.023722         0.6455 
  69   0.0000       0.024945         0.6788 
  70   0.0000       0.030229         0.8226 
  71   0.0000       0.036602         0.9960 
  72   0.0000       0.040009         1.0887 
  73   0.0000       0.040536         1.1031 
  74   0.0000       0.045608         1.2411 
  75   0.0000       0.050093         1.3631 
  76   0.0000       0.050956         1.3866 
  77   0.0000       0.052188         1.4201 
  78   0.0000       0.073878         2.0103 
  79   0.0000       0.079643         2.1672 
  80   0.0000       0.088271         2.4020 
  81   0.0000       0.098206         2.6723 
  82   0.0000       0.109507         2.9798 
  83   0.0000       0.109640         2.9835 
  84   0.0000       0.123921         3.3721 
  85   0.0000       0.136664         3.7188 
  86   0.0000       0.149769         4.0754 
  87   0.0000       0.155833         4.2404 
  88   0.0000       0.158395         4.3101 
  89   0.0000       0.163683         4.4540 
  90   0.0000       0.174572         4.7504 
  91   0.0000       0.181454         4.9376 
  92   0.0000       0.184506         5.0207 
  93   0.0000       0.190570         5.1857 
  94   0.0000       0.195684         5.3248 
  95   0.0000       0.197904         5.3852 
  96   0.0000       0.199220         5.4210 
  97   0.0000       0.200323         5.4511 
  98   0.0000       0.206330         5.6145 
  99   0.0000       0.207897         5.6572 
 100   0.0000       0.214380         5.8336 
 101   0.0000       0.218576         5.9478 
 102   0.0000       0.222779         6.0621 
 103   0.0000       0.234807         6.3894 
 104   0.0000       0.239397         6.5143 
 105   0.0000       0.245592         6.6829 
 106   0.0000       0.250978         6.8295 
 107   0.0000       0.252068         6.8591 
 108   0.0000       0.259680         7.0662 
 109   0.0000       0.261602         7.1185 
 110   0.0000       0.267413         7.2767 
 111   0.0000       0.274377         7.4662 
 112   0.0000       0.276509         7.5242 
 113   0.0000       0.279603         7.6084 
 114   0.0000       0.287492         7.8231 
 115   0.0000       0.289680         7.8826 
 116   0.0000       0.296321         8.0633 
 117   0.0000       0.300828         8.1860 
 118   0.0000       0.302563         8.2332 
 119   0.0000       0.303074         8.2471 
 120   0.0000       0.312004         8.4901 
 121   0.0000       0.313155         8.5214 
 122   0.0000       0.320089         8.7101 
 123   0.0000       0.321242         8.7414 
 124   0.0000       0.326193         8.8762 
 125   0.0000       0.331616         9.0237 
 126   0.0000       0.340016         9.2523 
 127   0.0000       0.340159         9.2562 
 128   0.0000       0.349876         9.5206 
 129   0.0000       0.353367         9.6156 
 130   0.0000       0.360626         9.8131 
 131   0.0000       0.362165         9.8550 
 132   0.0000       0.363940         9.9033 
 133   0.0000       0.369989        10.0679 
 134   0.0000       0.379210        10.3188 
 135   0.0000       0.383244        10.4286 
 136   0.0000       0.388250        10.5648 
 137   0.0000       0.395881        10.7725 
 138   0.0000       0.399164        10.8618 
 139   0.0000       0.402243        10.9456 
 140   0.0000       0.409325        11.1383 
 141   0.0000       0.410042        11.1578 
 142   0.0000       0.417522        11.3613 
 143   0.0000       0.429217        11.6796 
 144   0.0000       0.436781        11.8854 
 145   0.0000       0.443357        12.0644 
 146   0.0000       0.444095        12.0844 
 147   0.0000       0.449452        12.2302 
 148   0.0000       0.456395        12.4191 
 149   0.0000       0.464814        12.6482 
 150   0.0000       0.473446        12.8831 
 151   0.0000       0.480852        13.0847 
 152   0.0000       0.489519        13.3205 
 153   0.0000       0.498500        13.5649 
 154   0.0000       0.507662        13.8142 
 155   0.0000       0.507977        13.8228 
 156   0.0000       0.517919        14.0933 
 157   0.0000       0.522548        14.2193 
 158   0.0000       0.534712        14.5502 
 159   0.0000       0.541399        14.7322 
 160   0.0000       0.546320        14.8661 
 161   0.0000       0.550822        14.9886 
 162   0.0000       0.552271        15.0281 
 163   0.0000       0.561588        15.2816 
 164   0.0000       0.571191        15.5429 
 165   0.0000       0.586157        15.9501 
 166   0.0000       0.591918        16.1069 
 167   0.0000       0.593004        16.1365 
 168   0.0000       0.595741        16.2109 
 169   0.0000       0.603476        16.4214 
 170   0.0000       0.627972        17.0880 
 171   0.0000       0.634074        17.2540 
 172   0.0000       0.654303        17.8045 
 173   0.0000       0.669360        18.2142 
 174   0.0000       0.676584        18.4108 
 175   0.0000       0.708605        19.2821 
 176   0.0000       0.729785        19.8585 
 177   0.0000       0.767619        20.8880 
 178   0.0000       0.786525        21.4024 
 179   0.0000       0.789127        21.4732 
 180   0.0000       0.790250        21.5038 
 181   0.0000       0.811224        22.0745 
 182   0.0000       0.822570        22.3833 
 183   0.0000       0.836436        22.7606 
 184   0.0000       0.839623        22.8473 
 185   0.0000       0.847395        23.0588 
 186   0.0000       0.858270        23.3547 
 187   0.0000       0.858519        23.3615 
 188   0.0000       0.862112        23.4593 
 189   0.0000       0.879204        23.9244 
 190   0.0000       0.880825        23.9685 
 191   0.0000       0.887127        24.1400 
 192   0.0000       0.892580        24.2883 
 193   0.0000       0.906761        24.6742 
 194   0.0000       0.913243        24.8506 
 195   0.0000       0.915066        24.9002 
 196   0.0000       0.921081        25.0639 
 197   0.0000       0.924684        25.1619 
 198   0.0000       0.929448        25.2916 
 199   0.0000       0.935496        25.4561 
 200   0.0000       0.944438        25.6995 
 201   0.0000       0.959454        26.1081 
 202   0.0000       0.961014        26.1505 
 203   0.0000       0.970568        26.4105 
 204   0.0000       0.971661        26.4403 
 205   0.0000       0.978173        26.6175 
 206   0.0000       0.984032        26.7769 
 207   0.0000       0.986213        26.8362 
 208   0.0000       0.997804        27.1516 
 209   0.0000       1.006024        27.3753 
 210   0.0000       1.010201        27.4890 
 211   0.0000       1.027182        27.9510 
 212   0.0000       1.032464        28.0948 
 213   0.0000       1.040649        28.3175 
 214   0.0000       1.044409        28.4198 
 215   0.0000       1.047221        28.4963 
 216   0.0000       1.052425        28.6380 
 217   0.0000       1.059049        28.8182 
 218   0.0000       1.063695        28.9446 
 219   0.0000       1.087919        29.6038 
 220   0.0000       1.102352        29.9965 
 221   0.0000       1.106201        30.1013 
 222   0.0000       1.110716        30.2241 
 223   0.0000       1.121500        30.5176 
 224   0.0000       1.129737        30.7417 
 225   0.0000       1.139903        31.0183 
 226   0.0000       1.151156        31.3245 
 227   0.0000       1.161401        31.6033 
 228   0.0000       1.173163        31.9234 
 229   0.0000       1.175313        31.9819 
 230   0.0000       1.186572        32.2883 
 231   0.0000       1.186842        32.2956 
 232   0.0000       1.201150        32.6850 
 233   0.0000       1.206326        32.8258 
 234   0.0000       1.222632        33.2695 
 235   0.0000       1.229547        33.4577 
 236   0.0000       1.239914        33.7398 
 237   0.0000       1.240836        33.7649 
 238   0.0000       1.253697        34.1148 
 239   0.0000       1.257113        34.2078 
 240   0.0000       1.260050        34.2877 
 241   0.0000       1.264656        34.4131 
 242   0.0000       1.281603        34.8742 
 243   0.0000       1.291813        35.1520 
 244   0.0000       1.305676        35.5292 
 245   0.0000       1.318001        35.8646 
 246   0.0000       1.330470        36.2039 
 247   0.0000       1.334608        36.3165 
 248   0.0000       1.343817        36.5671 
 249   0.0000       1.353206        36.8226 
 250   0.0000       1.378535        37.5118 
 251   0.0000       1.379815        37.5467 
 252   0.0000       1.386325        37.7238 
 253   0.0000       1.398968        38.0678 
 254   0.0000       1.400937        38.1214 
 255   0.0000       1.424042        38.7502 
 256   0.0000       1.426510        38.8173 
 257   0.0000       1.430028        38.9130 
 258   0.0000       1.435201        39.0538 
 259   0.0000       1.442317        39.2474 
 260   0.0000       1.445384        39.3309 
 261   0.0000       1.464896        39.8619 
 262   0.0000       1.466716        39.9114 
 263   0.0000       1.481755        40.3206 
 264   0.0000       1.501444        40.8564 
 265   0.0000       1.508325        41.0436 
 266   0.0000       1.513689        41.1896 
 267   0.0000       1.515535        41.2398 
 268   0.0000       1.521296        41.3966 
 269   0.0000       1.549671        42.1687 
 270   0.0000       1.559729        42.4424 
 271   0.0000       1.560747        42.4701 
 272   0.0000       1.563776        42.5525 
 273   0.0000       1.574775        42.8518 
 274   0.0000       1.587334        43.1935 
 275   0.0000       1.590290        43.2740 
 276   0.0000       1.592503        43.3342 
 277   0.0000       1.599254        43.5179 
 278   0.0000       1.602627        43.6097 
 279   0.0000       1.613993        43.9190 
 280   0.0000       1.626521        44.2599 
 281   0.0000       1.628409        44.3113 
 282   0.0000       1.637008        44.5453 
 283   0.0000       1.660476        45.1838 
 284   0.0000       1.660604        45.1873 
 285   0.0000       1.679001        45.6880 
 286   0.0000       1.688269        45.9401 
 287   0.0000       1.690575        46.0029 
 288   0.0000       1.694549        46.1110 
 289   0.0000       1.704241        46.3748 
 290   0.0000       1.704443        46.3802 
 291   0.0000       1.724979        46.9391 
 292   0.0000       1.728692        47.0401 
 293   0.0000       1.741442        47.3871 
 294   0.0000       1.743083        47.4317 
 295   0.0000       1.751094        47.6497 
 296   0.0000       1.769686        48.1556 
 297   0.0000       1.771971        48.2178 
 298   0.0000       1.779951        48.4349 
 299   0.0000       1.792259        48.7698 
 300   0.0000       1.800259        48.9875 
 301   0.0000       1.804329        49.0983 
 302   0.0000       1.805806        49.1385 
 303   0.0000       1.824167        49.6381 
 304   0.0000       1.829422        49.7811 
 305   0.0000       1.846701        50.2513 
 306   0.0000       1.865075        50.7513 
 307   0.0000       1.903211        51.7890 
 308   0.0000       1.917709        52.1835 
 309   0.0000       1.928841        52.4864 
 310   0.0000       1.930249        52.5248 
 311   0.0000       1.938261        52.7428 
 312   0.0000       1.941375        52.8275 
 313   0.0000       1.953594        53.1600 
 314   0.0000       1.982233        53.9393 
 315   0.0000       2.012274        54.7567 
 316   0.0000       2.036298        55.4105 
 317   0.0000       2.044755        55.6406 
 318   0.0000       2.056402        55.9575 
 319   0.0000       2.075630        56.4808 
 320   0.0000       2.088445        56.8295 
 321   0.0000       2.106520        57.3213 
 322   0.0000       2.110161        57.4204 
 323   0.0000       2.126908        57.8761 
 324   0.0000       2.129701        57.9521 
 325   0.0000       2.157695        58.7139 
 326   0.0000       2.158217        58.7281 
 327   0.0000       2.182394        59.3859 
 328   0.0000       2.192553        59.6624 
 329   0.0000       2.210742        60.1574 
 330   0.0000       2.213988        60.2457 
 331   0.0000       2.240125        60.9569 
 332   0.0000       2.244776        61.0835 
 333   0.0000       2.250648        61.2432 
 334   0.0000       2.257979        61.4427 
 335   0.0000       2.268734        61.7354 
 336   0.0000       2.281102        62.0719 
 337   0.0000       2.304975        62.7215 
 338   0.0000       2.311146        62.8895 
 339   0.0000       2.317165        63.0533 
 340   0.0000       2.326026        63.2944 
 341   0.0000       2.330493        63.4159 
 342   0.0000       2.353800        64.0501 
 343   0.0000       2.377873        64.7052 
 344   0.0000       2.385341        64.9084 
 345   0.0000       2.410790        65.6009 
 346   0.0000       2.427792        66.0636 
 347   0.0000       2.433293        66.2133 
 348   0.0000       2.443289        66.4853 
 349   0.0000       2.457952        66.8843 
 350   0.0000       2.472057        67.2681 
 351   0.0000       2.474686        67.3396 
 352   0.0000       2.482940        67.5642 
 353   0.0000       2.507596        68.2352 
 354   0.0000       2.511077        68.3299 
 355   0.0000       2.524704        68.7007 
 356   0.0000       2.535402        68.9918 
 357   0.0000       2.553240        69.4772 
 358   0.0000       2.559735        69.6539 
 359   0.0000       2.561830        69.7109 
 360   0.0000       2.571305        69.9688 
 361   0.0000       2.582576        70.2755 
 362   0.0000       2.604991        70.8854 
 363   0.0000       2.614372        71.1407 
 364   0.0000       2.626209        71.4628 
 365   0.0000       2.629695        71.5576 
 366   0.0000       2.717336        73.9425 
 367   0.0000       2.773946        75.4829 
 368   0.0000       2.796346        76.0924 
 369   0.0000       2.831417        77.0468 
 370   0.0000       2.906693        79.0951 
 371   0.0000       2.960824        80.5681 
 372   0.0000       2.968436        80.7752 
 373   0.0000       2.986724        81.2729 
 374   0.0000       3.292356        89.5896 
 375   0.0000       4.980359       135.5225 
 376   0.0000       4.984563       135.6369 
 377   0.0000       4.998650       136.0202 
 378   0.0000       5.009289       136.3097 
 379   0.0000       5.011405       136.3673 
 380   0.0000       5.019698       136.5929 
 381   0.0000       5.024140       136.7138 
 382   0.0000       5.028414       136.8301 
 383   0.0000       5.034081       136.9843 
 384   0.0000       5.047261       137.3429 
 385   0.0000       5.201823       141.5488 
 386   0.0000       5.217611       141.9784 
 387   0.0000       5.234555       142.4395 
 388   0.0000       5.245062       142.7254 
 389   0.0000       5.277201       143.5999 
 390   0.0000       5.288823       143.9162 
 391   0.0000       5.295804       144.1061 
 392   0.0000       5.304770       144.3501 
 393   0.0000       5.308250       144.4448 
 394   0.0000       5.338176       145.2592 
 395   0.0000       5.363683       145.9532 
 396   0.0000       5.376403       146.2994 
 397   0.0000       5.394718       146.7977 
 398   0.0000       5.409402       147.1973 
 399   0.0000       5.448131       148.2512 
 400   0.0000       5.554308       151.1404 
 401   0.0000       5.564262       151.4113 
 402   0.0000       5.602142       152.4420 
 403   0.0000       5.627952       153.1444 
 404   0.0000       5.639385       153.4555 
 405   0.0000       5.728230       155.8731 
 406   0.0000       5.739416       156.1775 
 407   0.0000       5.761027       156.7655 
 408   0.0000       5.822930       158.4500 
 409   0.0000       5.851799       159.2356 
 410   0.0000       5.885503       160.1527 
 411   0.0000       6.023317       163.9028 
 412   0.0000       6.246515       169.9763 
 413   0.0000       6.372582       173.4068 
 414   0.0000      29.634072       806.3841 
 415   0.0000      29.810003       811.1714 
 416   0.0000      29.848612       812.2220 
 417   0.0000      29.858815       812.4997 
 418   0.0000      29.977347       815.7251 
 419   0.0000      29.984863       815.9296 
 420   0.0000      30.058156       817.9240 
 421   0.0000      30.084375       818.6375 
 422   0.0000      30.107248       819.2599 
 423   0.0000      30.122499       819.6749 
 424   0.0000      30.159953       820.6940 
 425   0.0000      30.199590       821.7726 
 426   0.0000      30.220811       822.3501 
 427   0.0000      30.259263       823.3964 
 428   0.0000      30.285366       824.1067 
 429   0.0000      30.333570       825.4184 
 430   0.0000      30.453637       828.6856 
 431   0.0000      30.589644       832.3865 
 432   0.0000      36.608396       996.1651 
 433   0.0000      36.612812       996.2853 
 434   0.0000      36.630062       996.7546 
 435   0.0000      36.634440       996.8738 
 436   0.0000      36.638483       996.9838 
 437   0.0000      36.645733       997.1811 
 438   0.0000      36.656971       997.4869 
 439   0.0000      36.660900       997.5938 
 440   0.0000      36.672613       997.9125 
 441   0.0000      36.810303      1001.6593 
 442   0.0000      36.820266      1001.9304 
 443   0.0000      36.849303      1002.7205 
 444   0.0000      36.864109      1003.1234 
 445   0.0000      36.868770      1003.2502 
 446   0.0000      36.876168      1003.4515 
 447   0.0000      36.882262      1003.6174 
 448   0.0000      36.917886      1004.5867 
 449   0.0000      36.933668      1005.0162 
 450   0.0000      36.936162      1005.0841 
 451   0.0000      36.968805      1005.9723 
 452   0.0000      37.011739      1007.1406 

                    ********************************
                    * MULLIKEN POPULATION ANALYSIS *
                    ********************************

--------------------------------------------
MULLIKEN ATOMIC CHARGES AND SPIN POPULATIONS
--------------------------------------------
   0 C :   -0.536676    0.096840
   1 C :   -0.014050   -0.050390
   2 C :   -0.006931    0.022060
   3 C :    0.360378    0.200705
   4 C :    0.440405   -0.132614
   5 C :   -0.452134    0.205407
   6 C :    0.429563   -0.090412
   7 C :    0.286258    0.220435
   8 C :   -0.397036   -0.107021
   9 H :    0.135694   -0.011117
  10 H :    0.140106    0.004895
  11 C :   -0.302446    0.701322
  12 H :    0.141032   -0.037183
  13 C :   -0.267020   -0.046158
  14 H :    0.150272    0.030881
  15 H :    0.150037    0.030817
  16 C :   -0.283074    0.002153
  17 H :    0.153359   -0.000205
  18 H :    0.153386   -0.000209
  19 C :   -0.508000   -0.000770
  20 H :    0.157290    0.000191
  21 H :    0.157263    0.000190
  22 C :   -0.381357   -0.016288
  23 H :    0.153892    0.010740
  24 H :    0.153648    0.010663
  25 C :   -0.264330    0.000867
  26 H :    0.139977    0.000180
  27 H :    0.139592    0.000178
[...]
B( 22-C , 24-H ) :   0.9577 B( 22-C , 25-C ) :   1.0180 B( 25-C , 26-H ) :   0.9593 
B( 25-C , 27-H ) :   0.9591 B( 25-C , 28-C ) :   0.9895 B( 28-C , 29-H ) :   0.9721 
B( 28-C , 30-H ) :   0.9721 B( 28-C , 31-C ) :   0.9514 B( 31-C , 32-H ) :   0.9736 
B( 31-C , 33-H ) :   0.9736 B( 31-C , 38-H ) :   0.9687 B( 34-C , 36-H ) :   0.9709 


-------
TIMINGS
-------

Total SCF time: 0 days 0 hours 1 min 36 sec 

Total time                  ....      96.418 sec
Sum of individual times     ....      94.445 sec  ( 98.0%)

Fock matrix formation       ....      87.785 sec  ( 91.0%)
  XC integration            ....       4.513 sec  (  5.1% of F)
    Basis function eval.    ....       0.452 sec  ( 10.0% of XC)
    Density eval.           ....       0.599 sec  ( 13.3% of XC)
    XC-Functional eval.     ....       0.165 sec  (  3.7% of XC)
    XC-Potential eval.      ....       0.869 sec  ( 19.3% of XC)
Diagonalization             ....       2.214 sec  (  2.3%)
Density matrix formation    ....       0.131 sec  (  0.1%)
Population analysis         ....       0.258 sec  (  0.3%)
Initial guess               ....       0.475 sec  (  0.5%)
Orbital Transformation      ....       0.000 sec  (  0.0%)
Orbital Orthonormalization  ....       0.000 sec  (  0.0%)
DIIS solution               ....       2.110 sec  (  2.2%)
Grid generation             ....       1.473 sec  (  1.5%)

-------------------------   --------------------
FINAL SINGLE POINT ENERGY      -698.027848932405
-------------------------   --------------------

   --->>> g-tensor requested, so NeedSOC=true

                            ***************************************
                            *     ORCA property calculations      *
                            ***************************************

                                    ---------------------
                                    Active property flags
                                    ---------------------
   (+) Dipole Moment
   (+) g-tensor
   (+) Nuclear properties (Hyperfine,Quadrupole)
   (+) Spin-Orbit Integrals are needed


------------------------------------------------------------------------------
                       ORCA ELECTRIC PROPERTIES CALCULATION
------------------------------------------------------------------------------

Dipole Moment Calculation                       ... on
Quadrupole Moment Calculation                   ... off
Polarizability Calculation                      ... off
GBWName                                         ... g-tensor_EPRII_invariant.gbw
Electron density file                           ... g-tensor_EPRII_invariant.scfp
The origin for moment calculation is the CENTER OF MASS  = (-0.073029, -0.015364  0.019190)

-------------
DIPOLE MOMENT
-------------
                                X             Y             Z
Electronic contribution:      0.59562       2.30124       0.03871
Nuclear contribution   :     -0.69956      -2.25026      -0.03837
                        -----------------------------------------
Total Dipole Moment    :     -0.10394       0.05098       0.00034
                        -----------------------------------------
Magnitude (a.u.)       :      0.11577
Magnitude (Debye)      :      0.29425



--------------------
Rotational spectrum 
--------------------
 
Rotational constants in cm-1:     0.022559     0.005966     0.004748 
Rotational constants in MHz :   676.289778   178.862773   142.329161 

 Dipole components along the rotational axes: 
x,y,z [a.u.] :    -0.020276    -0.113965     0.001608 
x,y,z [Debye]:    -0.051537    -0.289677     0.004087 

 


           ************************************************************
           *        Program running with 16 parallel MPI-processes    *
           *              working on a common directory               *
           ************************************************************
------------------------------------------------------------------------------
                         ORCA SPIN-ORBIT COUPLING CALCULATION
------------------------------------------------------------------------------

GBW file                                    ... g-tensor_EPRII_invariant.gbw
Input density                               ... g-tensor_EPRII_invariant.scfp
Output integrals                            ... g-tensor_EPRII_invariant
Operator type                               ... Mean-field/Effective potential
   One-Electron Terms                       ... 1
   Coulomb Contribution                     ... 2
   Exchange Contribution                    ... 3
   Correlation Contribution                 ... 0
   Maximum number of centers                ... 4
Setting up the integration grid             ... done
Evaluating density on the grid              ... (NumEl=  129.021565) done
Evaluating Coulomb term semi-analytically   ... done
One-Center Exchange (+SOO)                  ... done
Evaluating the spin-orbit operator          ... done
Total time for SOC: 15.174


           ************************************************************
           *        Program running with 16 parallel MPI-processes    *
           *              working on a common directory               *
           ************************************************************
------------------------------------------------------------------------------
                                ORCA EPR/NMR CALCULATION
------------------------------------------------------------------------------

GBWName                      ... g-tensor_EPRII_invariant.gbw
Electron density file        ... g-tensor_EPRII_invariant.scfp
Spin density file            ... g-tensor_EPRII_invariant.scfr
Spin-orbit integrals         ... g-tensor_EPRII_invariant
Treatment of gauge           ... GIAO (approximations 1/2el = 0,3)
Details of the CP(SCF) procedure:
       Solver   = POPLE   
       MaxIter  =    64   
       Tolerance=    1.000e-06
       Op-0     =   0- 64 =>  65-452
       Op-1     =   0- 63 =>  64-452
Multiplicity                 ... 2
g-tensor                     ... 1
NMR chemical shifts          ... 0
Number of nuclei for epr/nmr ... 21
   Nucleus:   9H 
       Hyperfine : Isotope=    1 I=   0.500 P= 533.551
       Quadrupole: Isotope=    2 I=   1.000 Q=   0.003
       Spin-Orbit: Zeff=   1.000
       Ncuelar Spin-Spin: Gn=   0.000
       rho(0)=N f(grad)=N a(iso)=Y a(dip)=Y a(orb)=Y sigma(nmr)=N spin-spin(nmr)=all-N,DSO-N,PSO-N,FC-N,SD-N
   Nucleus:  10H 
       Hyperfine : Isotope=    1 I=   0.500 P= 533.551
       Quadrupole: Isotope=    2 I=   1.000 Q=   0.003
       Spin-Orbit: Zeff=   1.000
       Ncuelar Spin-Spin: Gn=   0.000
       rho(0)=N f(grad)=N a(iso)=Y a(dip)=Y a(orb)=Y sigma(nmr)=N spin-spin(nmr)=all-N,DSO-N,PSO-N,FC-N,SD-N
   Nucleus:  12H 
       Hyperfine : Isotope=    1 I=   0.500 P= 533.551
       Quadrupole: Isotope=    2 I=   1.000 Q=   0.003
       Spin-Orbit: Zeff=   1.000
       Ncuelar Spin-Spin: Gn=   0.000
       rho(0)=N f(grad)=N a(iso)=Y a(dip)=Y a(orb)=Y sigma(nmr)=N spin-spin(nmr)=all-N,DSO-N,PSO-N,FC-N,SD-N
   Nucleus:  14H 
       Hyperfine : Isotope=    1 I=   0.500 P= 533.551
       Quadrupole: Isotope=    2 I=   1.000 Q=   0.003
       Spin-Orbit: Zeff=   1.000
       Ncuelar Spin-Spin: Gn=   0.000
       rho(0)=N f(grad)=N a(iso)=Y a(dip)=Y a(orb)=Y sigma(nmr)=N spin-spin(nmr)=all-N,DSO-N,PSO-N,FC-N,SD-N
   Nucleus:  15H 
       Hyperfine : Isotope=    1 I=   0.500 P= 533.551
       Quadrupole: Isotope=    2 I=   1.000 Q=   0.003
       Spin-Orbit: Zeff=   1.000
       Ncuelar Spin-Spin: Gn=   0.000
       rho(0)=N f(grad)=N a(iso)=Y a(dip)=Y a(orb)=Y sigma(nmr)=N spin-spin(nmr)=all-N,DSO-N,PSO-N,FC-N,SD-N
   Nucleus:  17H 
       Hyperfine : Isotope=    1 I=   0.500 P= 533.551
       Quadrupole: Isotope=    2 I=   1.000 Q=   0.003
       Spin-Orbit: Zeff=   1.000
       Ncuelar Spin-Spin: Gn=   0.000
       rho(0)=N f(grad)=N a(iso)=Y a(dip)=Y a(orb)=Y sigma(nmr)=N spin-spin(nmr)=all-N,DSO-N,PSO-N,FC-N,SD-N
   Nucleus:  18H 
       Hyperfine : Isotope=    1 I=   0.500 P= 533.551
       Quadrupole: Isotope=    2 I=   1.000 Q=   0.003
       Spin-Orbit: Zeff=   1.000
       Ncuelar Spin-Spin: Gn=   0.000
       rho(0)=N f(grad)=N a(iso)=Y a(dip)=Y a(orb)=Y sigma(nmr)=N spin-spin(nmr)=all-N,DSO-N,PSO-N,FC-N,SD-N
   Nucleus:  20H 
       Hyperfine : Isotope=    1 I=   0.500 P= 533.551
       Quadrupole: Isotope=    2 I=   1.000 Q=   0.003
       Spin-Orbit: Zeff=   1.000
       Ncuelar Spin-Spin: Gn=   0.000
       rho(0)=N f(grad)=N a(iso)=Y a(dip)=Y a(orb)=Y sigma(nmr)=N spin-spin(nmr)=all-N,DSO-N,PSO-N,FC-N,SD-N
   Nucleus:  21H 
       Hyperfine : Isotope=    1 I=   0.500 P= 533.551
       Quadrupole: Isotope=    2 I=   1.000 Q=   0.003
       Spin-Orbit: Zeff=   1.000
       Ncuelar Spin-Spin: Gn=   0.000
       rho(0)=N f(grad)=N a(iso)=Y a(dip)=Y a(orb)=Y sigma(nmr)=N spin-spin(nmr)=all-N,DSO-N,PSO-N,FC-N,SD-N
   Nucleus:  23H 
       Hyperfine : Isotope=    1 I=   0.500 P= 533.551
       Quadrupole: Isotope=    2 I=   1.000 Q=   0.003
       Spin-Orbit: Zeff=   1.000
       Ncuelar Spin-Spin: Gn=   0.000
       rho(0)=N f(grad)=N a(iso)=Y a(dip)=Y a(orb)=Y sigma(nmr)=N spin-spin(nmr)=all-N,DSO-N,PSO-N,FC-N,SD-N
   Nucleus:  24H 
       Hyperfine : Isotope=    1 I=   0.500 P= 533.551
       Quadrupole: Isotope=    2 I=   1.000 Q=   0.003
       Spin-Orbit: Zeff=   1.000
       Ncuelar Spin-Spin: Gn=   0.000
       rho(0)=N f(grad)=N a(iso)=Y a(dip)=Y a(orb)=Y sigma(nmr)=N spin-spin(nmr)=all-N,DSO-N,PSO-N,FC-N,SD-N
   Nucleus:  26H 
       Hyperfine : Isotope=    1 I=   0.500 P= 533.551
       Quadrupole: Isotope=    2 I=   1.000 Q=   0.003
       Spin-Orbit: Zeff=   1.000
       Ncuelar Spin-Spin: Gn=   0.000
       rho(0)=N f(grad)=N a(iso)=Y a(dip)=Y a(orb)=Y sigma(nmr)=N spin-spin(nmr)=all-N,DSO-N,PSO-N,FC-N,SD-N
   Nucleus:  27H 
       Hyperfine : Isotope=    1 I=   0.500 P= 533.551
       Quadrupole: Isotope=    2 I=   1.000 Q=   0.003
       Spin-Orbit: Zeff=   1.000
       Ncuelar Spin-Spin: Gn=   0.000
       rho(0)=N f(grad)=N a(iso)=Y a(dip)=Y a(orb)=Y sigma(nmr)=N spin-spin(nmr)=all-N,DSO-N,PSO-N,FC-N,SD-N
   Nucleus:  29H 
       Hyperfine : Isotope=    1 I=   0.500 P= 533.551
       Quadrupole: Isotope=    2 I=   1.000 Q=   0.003
       Spin-Orbit: Zeff=   1.000
       Ncuelar Spin-Spin: Gn=   0.000
       rho(0)=N f(grad)=N a(iso)=Y a(dip)=Y a(orb)=Y sigma(nmr)=N spin-spin(nmr)=all-N,DSO-N,PSO-N,FC-N,SD-N
   Nucleus:  30H 
       Hyperfine : Isotope=    1 I=   0.500 P= 533.551
       Quadrupole: Isotope=    2 I=   1.000 Q=   0.003
       Spin-Orbit: Zeff=   1.000
       Ncuelar Spin-Spin: Gn=   0.000
       rho(0)=N f(grad)=N a(iso)=Y a(dip)=Y a(orb)=Y sigma(nmr)=N spin-spin(nmr)=all-N,DSO-N,PSO-N,FC-N,SD-N
   Nucleus:  32H 
       Hyperfine : Isotope=    1 I=   0.500 P= 533.551
       Quadrupole: Isotope=    2 I=   1.000 Q=   0.003
       Spin-Orbit: Zeff=   1.000
       Ncuelar Spin-Spin: Gn=   0.000
       rho(0)=N f(grad)=N a(iso)=Y a(dip)=Y a(orb)=Y sigma(nmr)=N spin-spin(nmr)=all-N,DSO-N,PSO-N,FC-N,SD-N
   Nucleus:  33H 
       Hyperfine : Isotope=    1 I=   0.500 P= 533.551
       Quadrupole: Isotope=    2 I=   1.000 Q=   0.003
       Spin-Orbit: Zeff=   1.000
       Ncuelar Spin-Spin: Gn=   0.000
       rho(0)=N f(grad)=N a(iso)=Y a(dip)=Y a(orb)=Y sigma(nmr)=N spin-spin(nmr)=all-N,DSO-N,PSO-N,FC-N,SD-N
   Nucleus:  35H 
       Hyperfine : Isotope=    1 I=   0.500 P= 533.551
       Quadrupole: Isotope=    2 I=   1.000 Q=   0.003
       Spin-Orbit: Zeff=   1.000
       Ncuelar Spin-Spin: Gn=   0.000
       rho(0)=N f(grad)=N a(iso)=Y a(dip)=Y a(orb)=Y sigma(nmr)=N spin-spin(nmr)=all-N,DSO-N,PSO-N,FC-N,SD-N
   Nucleus:  36H 
       Hyperfine : Isotope=    1 I=   0.500 P= 533.551
       Quadrupole: Isotope=    2 I=   1.000 Q=   0.003
       Spin-Orbit: Zeff=   1.000
       Ncuelar Spin-Spin: Gn=   0.000
       rho(0)=N f(grad)=N a(iso)=Y a(dip)=Y a(orb)=Y sigma(nmr)=N spin-spin(nmr)=all-N,DSO-N,PSO-N,FC-N,SD-N
   Nucleus:  37H 
       Hyperfine : Isotope=    1 I=   0.500 P= 533.551
       Quadrupole: Isotope=    2 I=   1.000 Q=   0.003
       Spin-Orbit: Zeff=   1.000
       Ncuelar Spin-Spin: Gn=   0.000
       rho(0)=N f(grad)=N a(iso)=Y a(dip)=Y a(orb)=Y sigma(nmr)=N spin-spin(nmr)=all-N,DSO-N,PSO-N,FC-N,SD-N
   Nucleus:  38H 
       Hyperfine : Isotope=    1 I=   0.500 P= 533.551
       Quadrupole: Isotope=    2 I=   1.000 Q=   0.003
       Spin-Orbit: Zeff=   1.000
       Ncuelar Spin-Spin: Gn=   0.000
       rho(0)=N f(grad)=N a(iso)=Y a(dip)=Y a(orb)=Y sigma(nmr)=N spin-spin(nmr)=all-N,DSO-N,PSO-N,FC-N,SD-N
Forming RHS of the CP-SCF equations         ... 
Calculating right hand sides for GIAO treatment        ... 
  Entering RightHandSide GIAO. ScalHFX=    0.2000 NeedHFX=1
     -> 1-electron GIAO integrals will be done analytically
     -> SCF done analytically but RIJK chosen for GIAO calculation.
     Making grid for GIAO integrations   ... 
General Integration Accuracy     IntAcc      ...  4.340
Radial Grid Type                 RadialGrid  ... Gauss-Chebyshev
Angular Grid (max. acc.)         AngularGrid ... Lebedev-110
Angular grid pruning method      GridPruning ... 3 (G Style)
Weight generation scheme         WeightScheme... Becke
Basis function cutoff            BFCut       ...    1.0000e-10
Integration weight cutoff        WCut        ...    1.0000e-14
Grids for H and He will be reduced by one unit

# of grid points (after initial pruning)     ...  46482 (   0.0 sec)
# of grid points (after weights+screening)   ...  41708 (   0.1 sec)
nearest neighbour list constructed           ...    0.0 sec
Grid point re-assignment to atoms done       ...    0.0 sec
Grid point division into batches done        ...    0.1 sec
Reduced shell lists constructed in    0.2 sec

Total number of grid points                  ...    41708
Total number of batches                      ...      671
Average number of points per batch           ...       62
Average number of grid points per atom       ...     1069
Average number of shells per batch           ...    95.81 (35.89%)
Average number of basis functions per batch  ...   183.02 (40.40%)
Average number of large shells per batch     ...    63.35 (66.12%)
Average number of large basis fcns per batch ...   120.14 (65.64%)
Maximum spatial batch extension              ...  14.37, 10.68, 19.62 au
Average spatial batch extension              ...   0.18,  0.22,  0.32 au

done
  One-electron GIAO integrals             ... done
  Calculating G(B)[P]                     ... (RI-JK: P(aux)-ok JK-RI-ok) (add-J+K:ok) => dG/dB done
  DFT XC-terms                            ... done
  Extracting occupied and virtual blocks  ... 
  Operator  0  NO=  65 NV= 388 
  Operator  1  NO=  64 NV= 389 
  Transforming and RHS contribution       ... done
  Adding eps_i * S(B)_ai terms            ... done
  Projecting overlap derivatives          ... done
  Building G[dS/dB_ij] (Direct)           ... done
  Transforming to MO basis                ... done
  Summing G[dS/dB_ij] into RHS contribs.  ... done

  GIAO profiling information: 
    Total GIAO time               ...     104.8 sec
       GIAO 1-electron integrals  ...       0.1 sec (  0.1%)
       GIAO G(dS/dB) terms        ...      18.1 sec ( 17.2%)
       GIAO RI-JK                 ...      84.1 sec ( 80.2%)
       GIAO XC-terms              ...       1.3 sec (  1.2%)
       Right hand side assembly   ...       0.1 sec (  0.0%)

  GIAO right hand side done


------------------------------------------------------------------------------
                           ORCA CP-SCF CALCULATION
------------------------------------------------------------------------------

Input orbitals are from        ... g-tensor_EPRII_invariant.gbw
Input Perturbation             ... g-tensor_EPRII_invariant.pin.tmp
Wavefunction output            ... g-tensor_EPRII_invariant.pout.tmp
Perturbation mode              ... Imaginary perturbation
Solver                         ... POPLE
Max. number of iterations      ... 64
Convergence tolerance          ... 1.000e-06
Integral handling              ... Direct
Number of perturbations        ... 3
Number of operators            ... 2
Orbital ranges used for CP-SCF:
 Operator 0:  Orbitals   0... 64  to  65...452
 Operator 1:  Orbitals   0... 63  to  64...452
DFT calculation                         ... on
Variables per vector in CP-SCF ... 50116
Number of vectors sought       ... 3
     CP-SCF ITERATION   0: 
     CP-SCF ITERATION   1:      0.004002162992
     CP-SCF ITERATION   2:      0.000020780354
     CP-SCF ITERATION   3:      0.000000102697

Forming final perturbed densities           ... done
Transforming perturbed density to AO basis  ... done

Magnetic field perturbation calculated in 162.803 sec
GIAO: Doing diamagnetic term integrals analytically ...done
GIAO: Doing 1el-GIAO-SOC integrals analytically ... done

-------------------
ELECTRONIC G-MATRIX
-------------------

 The g-matrix: 
              2.0027809    0.0001152    0.0000060
              0.0000634    2.0027764   -0.0000008
              0.0000065    0.0000000    2.0021886

 gel          2.0023193    2.0023193    2.0023193
 gRMC        -0.0001401   -0.0001401   -0.0001401
 gDSO(tot)    0.0000295    0.0000828    0.0000854
 gPSO(tot)   -0.0000201    0.0004275    0.0006034
             ----------   ----------   ----------
 g(tot)       2.0021885    2.0026894    2.0028680 iso=  2.0025820
 Delta-g     -0.0001307    0.0003701    0.0005487 iso=  0.0002627
 Orientation: 
  X          -0.0108637   -0.6980392   -0.7159771
  Y           0.0022872    0.7160002   -0.6980964
  Z           0.9999384   -0.0092215   -0.0061818

Notes:  (1) The g-matrix conforms to the "BgS" spin Hamiltonian convention. 
        (2) The principal values are square roots of the eigenvalues of g*gT.
        (3) Orientations are eigenvectors of g*gT written as column vectors.
        (4) Individual contributions are projections of the full matrices onto the eigenvectors of g*gT.
        (5) Tensor is right-handed.


-----------------------------------------
ELECTRIC AND MAGNETIC HYPERFINE STRUCTURE
-----------------------------------------

 -----------------------------------------------------------
 Nucleus   9H : A:ISTP=    1 I=  0.5 P=533.5514 MHz/au**3
                Q:ISTP=    2 I=  1.0 Q=  0.0029 barn     
 -----------------------------------------------------------
 Solving for nuclear perturbation:
Forming RHS of the CP-SCF equations         ... 
Using LibInt in CPSCF-CP

Calculating nucleus orbit integrals         ... done

------------------------------------------------------------------------------
                           ORCA CP-SCF CALCULATION
------------------------------------------------------------------------------

Input orbitals are from        ... g-tensor_EPRII_invariant.gbw
Input Perturbation             ... g-tensor_EPRII_invariant.pin.tmp
Wavefunction output            ... g-tensor_EPRII_invariant.pout.tmp
Perturbation mode              ... Imaginary perturbation
Solver                         ... POPLE
Max. number of iterations      ... 64
Convergence tolerance          ... 1.000e-06
Integral handling              ... Direct
Number of perturbations        ... 3
Number of operators            ... 2
Orbital ranges used for CP-SCF:
 Operator 0:  Orbitals   0... 64  to  65...452
 Operator 1:  Orbitals   0... 63  to  64...452
DFT calculation                         ... on
Variables per vector in CP-SCF ... 50116
Number of vectors sought       ... 3
     CP-SCF ITERATION   0: 
     CP-SCF ITERATION   1:      0.000005031321
     CP-SCF ITERATION   2:      0.000000022533

Forming final perturbed densities           ...
ORCA finished by error termination in EPR/NMR
Calling Command: mpirun -np 16  /hits/sw/ccc/ORCA421/orca_4_2_1_linux_x86-64_openmpi314/orca_eprnmr_mpi g-tensor_EPRII_invariant.eprnmr.inp g-tensor_EPRII_invariant 
[file orca_tools/qcmsg.cpp, line 458]: 
  .... aborting the run

