
                                 *****************
                                 * O   R   C   A *
                                 *****************

           --- An Ab Initio, DFT and Semiempirical electronic structure package ---

                  #######################################################
                  #                        -***-                        #
                  #          Department of theory and spectroscopy      #
                  #               Directorship: Frank Neese             #
                  #        Max Planck Institute fuer Kohlenforschung    #
                  #                Kaiser Wilhelm Platz 1               #
                  #                 D-45470 Muelheim/Ruhr               #
                  #                      Germany                        #
                  #                                                     #
                  #                  All rights reserved                #
                  #                        -***-                        #
                  #######################################################


                         Program Version 4.2.1 -  RELEASE  -


 With contributions from (in alphabetic order):
   Daniel Aravena         : Magnetic Suceptibility
   Michael Atanasov       : Ab Initio Ligand Field Theory (pilot matlab implementation)
   Alexander A. Auer      : GIAO ZORA, VPT2
   Ute Becker             : Parallelization
   Giovanni Bistoni       : ED, misc. LED, open-shell LED, HFLD
   Martin Brehm           : Molecular dynamics
   Dmytro Bykov           : SCF Hessian
   Vijay G. Chilkuri      : MRCI spin determinant printing, contributions to CSF-ICE
   Dipayan Datta          : RHF DLPNO-CCSD density
   Achintya Kumar Dutta   : EOM-CC, STEOM-CC
   Dmitry Ganyushin       : Spin-Orbit,Spin-Spin,Magnetic field MRCI
   Miquel Garcia          : C-PCM Hessian, Gaussian charge scheme
   Yang Guo               : DLPNO-NEVPT2, CIM, IAO-localization
   Andreas Hansen         : Spin unrestricted coupled pair/coupled cluster methods
   Benjamin Helmich-Paris : CASSCF linear response (MC-RPA)
   Lee Huntington         : MR-EOM, pCC
   Robert Izsak           : Overlap fitted RIJCOSX, COSX-SCS-MP3, EOM
   Christian Kollmar      : KDIIS, OOCD, Brueckner-CCSD(T), CCSD density
   Simone Kossmann        : Meta GGA functionals, TD-DFT gradient, OOMP2, MP2 Hessian
   Martin Krupicka        : AUTO-CI
   Lucas Lang             : DCDCAS
   Dagmar Lenk            : GEPOL surface, SMD
   Dimitrios Liakos       : Extrapolation schemes; Compound Job, initial MDCI parallelization
   Dimitrios Manganas     : Further ROCIS development; embedding schemes
   Dimitrios Pantazis     : SARC Basis sets
   Taras Petrenko         : DFT Hessian,TD-DFT gradient, ASA, ECA, R-Raman, ABS, FL, XAS/XES, NRVS
   Peter Pinski           : DLPNO-MP2, DLPNO-MP2 Gradient
   Christoph Reimann      : Effective Core Potentials
   Marius Retegan         : Local ZFS, SOC
   Christoph Riplinger    : Optimizer, TS searches, QM/MM, DLPNO-CCSD(T), (RO)-DLPNO pert. Triples
   Tobias Risthaus        : Range-separated hybrids, TD-DFT gradient, RPA, STAB
   Michael Roemelt        : Original ROCIS implementation
   Masaaki Saitow         : Open-shell DLPNO-CCSD energy and density
   Barbara Sandhoefer     : DKH picture change effects
   Avijit Sen             : IP-ROCIS
   Kantharuban Sivalingam : CASSCF convergence, NEVPT2, FIC-MRCI
   Bernardo de Souza      : ESD, SOC TD-DFT
   Georgi Stoychev        : AutoAux, RI-MP2 NMR
   Willem Van den Heuvel  : Paramagnetic NMR
   Boris Wezisla          : Elementary symmetry handling
   Frank Wennmohs         : Technical directorship


 We gratefully acknowledge several colleagues who have allowed us to
 interface, adapt or use parts of their codes:
   Stefan Grimme, W. Hujo, H. Kruse,             : VdW corrections, initial TS optimization,
                  C. Bannwarth                     DFT functionals, gCP, sTDA/sTD-DF
   Ed Valeev, F. Pavosevic, A. Kumar             : LibInt (2-el integral package), F12 methods
   Garnet Chan, S. Sharma, J. Yang, R. Olivares  : DMRG
   Ulf Ekstrom                                   : XCFun DFT Library
   Mihaly Kallay                                 : mrcc  (arbitrary order and MRCC methods)
   Andreas Klamt, Michael Diedenhofen            : otool_cosmo (COSMO solvation model)
   Jiri Pittner, Ondrej Demel                    : Mk-CCSD
   Frank Weinhold                                : gennbo (NPA and NBO analysis)
   Christopher J. Cramer and Donald G. Truhlar   : smd solvation model
   Lars Goerigk                                  : TD-DFT with DH, B97 family of functionals
   V. Asgeirsson, H. Jonsson                     : NEB implementation
   FAccTs GmbH                                   : IRC, NEB, NEB-TS, Multilevel, MM, QM/MM, CI optimization
   S Lehtola, MJT Oliveira, MAL Marques          : LibXC Library


 Your calculation uses the libint2 library for the computation of 2-el integrals
 For citations please refer to: http://libint.valeyev.net

 Your ORCA version has been built with support for libXC version: 4.2.3
 For citations please refer to: https://tddft.org/programs/libxc/

 This ORCA versions uses:
   CBLAS   interface :  Fast vector & matrix operations
   LAPACKE interface :  Fast linear algebra routines
   SCALAPACK package :  Parallel linear algebra routines




***************************************
The coordinates will be read from file: opt.xyz
***************************************


----- Orbital basis set information -----
Your calculation utilizes the basis: cc-pVDZ 
       H, B-Ne : Obtained from the ccRepo (grant-hill.group.shef.ac.uk/ccrepo) Feb. 2017
                 T. H. Dunning, Jr., J. Chem. Phys. 90, 1007 (1989)
            He : Obtained from the ccRepo (grant-hill.group.shef.ac.uk/ccrepo) Feb. 2017
                 D. E. Woon, T. H. Dunning, Jr., J. Chem. Phys. 100, 2975 (1994)
  Li-Be, Na-Mg : Obtained from the ccRepo (grant-hill.group.shef.ac.uk/ccrepo) Feb. 2017
                 B. P. Prascher, D. E. Woon, K. A. Peterson, T. H. Dunning, Jr., A. K. Wilson, Theor. Chem. Acc. 128, 69 (2011)
         Al-Ar : Obtained from the ccRepo (grant-hill.group.shef.ac.uk/ccrepo) Feb. 2017
                 D. E. Woon, T. H. Dunning, Jr., J. Chem. Phys. 98, 1358 (1993)
            Ca : Obtained from the Peterson Research Group Website (tyr0.chem.wsu.edu/~kipeters) Feb. 2017
                 J. Koput, K. A. Peterson, J. Phys. Chem. 106, 9595 (2002)
         Sc-Zn : Obtained from the ccRepo (grant-hill.group.shef.ac.uk/ccrepo) Feb. 2017
                 N. B. Balabanov, K. A. Peterson, J. Chem. Phys. 123, 064107 (2005)
                 N. B. Balabanov, K. A. Peterson, J. Chem. Phys. 125, 074110 (2006)
         Ga-Kr : Obtained from the ccRepo (grant-hill.group.shef.ac.uk/ccrepo) Feb. 2017
                 A. K. Wilson, D. E. Woon, K. A. Peterson, T. H. Dunning, Jr., J. Chem. Phys. 110, 7667 (1999)

----- AuxJ basis set information -----
Your calculation utilizes the AutoAux generation procedure.
  G. L. Stoychev, A. A. Auer, F. Neese, J. Chem. Theory Comput. 13, 554 (2017)

----- AuxC basis set information -----
Your calculation utilizes the AutoAux generation procedure.
  G. L. Stoychev, A. A. Auer, F. Neese, J. Chem. Theory Comput. 13, 554 (2017)

----- AuxJK basis set information -----
Your calculation utilizes the AutoAux generation procedure.
  G. L. Stoychev, A. A. Auer, F. Neese, J. Chem. Theory Comput. 13, 554 (2017)

================================================================================
                                        WARNINGS
                       Please study these warnings very carefully!
================================================================================


WARNING: your system is open-shell and RHF/RKS was chosen
  ===> : WILL SWITCH to UHF/UKS


INFO   : the flag for use of LIBINT has been found!

================================================================================
                                       INPUT FILE
================================================================================
NAME = g-tensor.inp
|  1> ! B3LYP cc-pVDZ AUTOAUX
|  2> %pal nprocs 16 end
|  3> *XYZFile 0 2 opt.xyz
|  4> %EPRNMR
|  5>         GTENSOR   TRUE
|  6>         NUCLEI    = ALL H {AISO, ADIP, AORB}
|  7> END
|  8> 
|  9>                          ****END OF INPUT****
================================================================================

                       ****************************
                       * Single Point Calculation *
                       ****************************

---------------------------------
CARTESIAN COORDINATES (ANGSTROEM)
---------------------------------
  C      3.991511   -0.051354    0.061761
  C      2.775483   -0.000375    0.043916
  C     -2.905329    0.003409   -0.019251
  C      1.348208    0.035463    0.027039
  C      0.635275    1.289740    0.016328
  C     -0.785894    1.210426    0.001471
  C     -1.471436   -0.005307   -0.003499
  C     -0.755768   -1.242411    0.006457
  C      0.640064   -1.178273    0.021464
  H     -1.370423    2.130486   -0.006719
  H      1.222046   -2.099597    0.029704
  C      1.311352    2.530280    0.019986
  H      2.404598    2.504162    0.031406
  C      0.641667    3.871557    0.008845
  H     -0.020572    3.957390   -0.877730
  H     -0.041612    3.961980    0.878868
  C      1.626221    5.047629    0.017286
  H      2.276228    4.966554    0.907965
  H      2.295774    4.962474   -0.858453
  C      0.932591    6.410773    0.006552
  H      0.280469    6.536126    0.888444
  H      0.300292    6.532105   -0.890213
  C     -1.518605   -2.551097    0.000737
  H     -2.204257   -2.555865    0.869274
  H     -2.190332   -2.556088   -0.878503
  C     -0.687377   -3.836461    0.007269
  H     -0.016292   -3.854077   -0.871818
  H     -0.031038   -3.855000    0.897344
  C     -1.554960   -5.100430   -0.000339
  H     -2.228001   -5.085489    0.877518
  H     -2.214964   -5.083782   -0.887967
  C     -0.735037   -6.392483    0.004372
  H     -0.090218   -6.455138    0.898268
  H     -0.077834   -6.453758   -0.880570
  C     -4.120999    0.013860   -0.034176
  H      5.062546   -0.102884    0.083466
  H     -5.193380    0.029268   -0.049948
  H      1.664045    7.234693    0.012825
  H     -1.384275   -7.282850   -0.000814

----------------------------
CARTESIAN COORDINATES (A.U.)
----------------------------
  NO LB      ZA    FRAG     MASS         X           Y           Z
   0 C     6.0000    0    12.011    7.542862   -0.097045    0.116712
   1 C     6.0000    0    12.011    5.244903   -0.000709    0.082990
   2 C     6.0000    0    12.011   -5.490276    0.006442   -0.036380
   3 C     6.0000    0    12.011    2.547745    0.067015    0.051095
   4 C     6.0000    0    12.011    1.200495    2.437255    0.030855
   5 C     6.0000    0    12.011   -1.485124    2.287373    0.002780
   6 C     6.0000    0    12.011   -2.780611   -0.010029   -0.006612
   7 C     6.0000    0    12.011   -1.428195   -2.347817    0.012201
   8 C     6.0000    0    12.011    1.209545   -2.226614    0.040561
   9 H     1.0000    0     1.008   -2.589725    4.026035   -0.012697
  10 H     1.0000    0     1.008    2.309333   -3.967664    0.056132
  11 C     6.0000    0    12.011    2.478095    4.781536    0.037768
  12 H     1.0000    0     1.008    4.544032    4.732180    0.059349
  13 C     6.0000    0    12.011    1.212574    7.316182    0.016714
  14 H     1.0000    0     1.008   -0.038875    7.478384   -1.658670
  15 H     1.0000    0     1.008   -0.078636    7.487057    1.660821
  16 C     6.0000    0    12.011    3.073113    9.538637    0.032666
  17 H     1.0000    0     1.008    4.301447    9.385427    1.715806
  18 H     1.0000    0     1.008    4.338383    9.377716   -1.622241
  19 C     6.0000    0    12.011    1.762341   12.114606    0.012381
  20 H     1.0000    0     1.008    0.530010   12.351489    1.678916
  21 H     1.0000    0     1.008    0.567469   12.343890   -1.682258
  22 C     6.0000    0    12.011   -2.869748   -4.820875    0.001392
  23 H     1.0000    0     1.008   -4.165442   -4.829884    1.642690
  24 H     1.0000    0     1.008   -4.139128   -4.830306   -1.660130
  25 C     6.0000    0    12.011   -1.298954   -7.249861    0.013737
  26 H     1.0000    0     1.008   -0.030788   -7.283151   -1.647497
  27 H     1.0000    0     1.008   -0.058654   -7.284893    1.695734
  28 C     6.0000    0    12.011   -2.938449   -9.638415   -0.000640
  29 H     1.0000    0     1.008   -4.210312   -9.610181    1.658268
  30 H     1.0000    0     1.008   -4.185676   -9.606955   -1.678015
  31 C     6.0000    0    12.011   -1.389018  -12.080042    0.008262
  32 H     1.0000    0     1.008   -0.170487  -12.198443    1.697480
  33 H     1.0000    0     1.008   -0.147086  -12.195834   -1.664036
  34 C     6.0000    0    12.011   -7.787560    0.026192   -0.064584
  35 H     1.0000    0     1.008    9.566826   -0.194423    0.157728
  36 H     1.0000    0     1.008   -9.814066    0.055308   -0.094388
  37 H     1.0000    0     1.008    3.144588   13.671588    0.024236
  38 H     1.0000    0     1.008   -2.615901  -13.762592   -0.001538

--------------------------------
INTERNAL COORDINATES (ANGSTROEM)
--------------------------------
 C      0   0   0     0.000000000000     0.00000000     0.00000000
 C      1   0   0     1.217226758795     0.00000000     0.00000000
 C      2   1   0     5.681164335592   177.62908379     0.00000000
 C      2   1   3     1.427824271150   179.02420307     4.69851965
 C      4   2   1     1.442774975859   121.05486880   170.48329527
 C      5   4   2     1.423457112580   116.42231434   180.07807512
 C      6   5   4     1.395707439418   122.61292822   359.96254246
 C      7   6   5     1.429232938080   120.52951075     0.00000000
 C      8   7   6     1.397385211034   117.42100256     0.00000000
 H      6   5   4     1.090069902887   119.23668011   179.98077849
 H      9   8   7     1.089775105618   119.65148094   179.98215189
 C      5   4   2     1.412810568688   121.79384026     0.09622949
 H     12   5   4     1.093618154737   117.22123438     0.00000000
 C     12   5   4     1.499208166807   124.87518878   179.97001726
 H     14  12   5     1.109928950768   109.97687287   302.56621873
 H     14  12   5     1.109949438672   110.00126312    57.28980767
 C     14  12   5     1.533807642495   113.52937794   179.94826448
 H     17  14  12     1.105617870278   109.00124258   302.37515644
 H     17  14  12     1.105654078182   108.98395146    57.69111464
 C     17  14  12     1.529509591063   113.09299709   180.03011537
 H     20  17  14     1.103951696075   111.31412191    59.86022252
 H     20  17  14     1.103952090484   111.30907155   300.14652537
 C      8   7   6     1.514797791329   119.70971270   180.00458954
 H     23   8   7     1.106570447548   108.22757393   303.56345941
 H     23   8   7     1.106482953854   108.21707674    56.06599807
 C     23   8   7     1.530733130249   116.87020325   179.80076408
 H     26  23   8     1.106100474726   109.84292632   301.80314755
 H     26  23   8     1.106054355109   109.86123145    58.29287237
 C     26  23   8     1.533093534070   112.64236237   180.04364688
 H     29  26  23     1.106272696846   109.22115348   302.25247479
 H     29  26  23     1.106240271586   109.22044740    57.61446282
 C     29  26  23     1.530260591753   113.13428252   179.92975370
 H     32  29  26     1.103977449696   111.30727789    59.83280938
 H     32  29  26     1.103989320895   111.30668961   300.11877949
 C      3   2   1     1.215806806746   179.54082833   183.37936127
 H      1   2   4     1.072493957005   179.52314077   327.50395744
 H     35   3   7     1.072607590439   179.64135417   355.69176445
 H     20  17  14     1.101774809668   111.42972278   180.00599459
 H     32  29  26     1.101948563387   111.50117371   179.97476049

---------------------------
INTERNAL COORDINATES (A.U.)
---------------------------
 C      0   0   0     0.000000000000     0.00000000     0.00000000
 C      1   0   0     2.300225217002     0.00000000     0.00000000
 C      2   1   0    10.735844716069   177.62908379     0.00000000
 C      2   1   3     2.698196839840   179.02420307     4.69851965
 C      4   2   1     2.726449577248   121.05486880   170.48329527
 C      5   4   2     2.689944106159   116.42231434   180.07807512
 C      6   5   4     2.637504823576   122.61292822   359.96254246
 C      7   6   5     2.700858834552   120.52951075     0.00000000
 C      8   7   6     2.640675352446   117.42100256     0.00000000
 H      6   5   4     2.059933583286   119.23668011   179.98077849
 H      9   8   7     2.059376497183   119.65148094   179.98215189
 C      5   4   2     2.669825053930   121.79384026     0.09622949
 H     12   5   4     2.066638807538   117.22123438     0.00000000
 C     12   5   4     2.833092853003   124.87518878   179.97001726
 H     14  12   5     2.097461745063   109.97687287   302.56621873
 H     14  12   5     2.097500461590   110.00126312    57.28980767
 C     14  12   5     2.898476386430   113.52937794   179.94826448
 H     17  14  12     2.089314983594   109.00124258   302.37515644
 H     17  14  12     2.089383406617   108.98395146    57.69111464
 C     17  14  12     2.890354246315   113.09299709   180.03011537
 H     20  17  14     2.086166370661   111.31412191    59.86022252
 H     20  17  14     2.086167115984   111.30907155   300.14652537
 C      8   7   6     2.862552973880   119.70971270   180.00458954
 H     23   8   7     2.091115093756   108.22757393   303.56345941
 H     23   8   7     2.090949754636   108.21707674    56.06599807
 C     23   8   7     2.892666400290   116.87020325   179.80076408
 H     26  23   8     2.090226973833   109.84292632   301.80314755
 H     26  23   8     2.090139820386   109.86123145    58.29287237
 C     26  23   8     2.897126917079   112.64236237   180.04364688
 H     29  26  23     2.090552426474   109.22115348   302.25247479
 H     29  26  23     2.090491151612   109.22044740    57.61446282
 C     29  26  23     2.891773431945   113.13428252   179.92975370
 H     32  29  26     2.086215037951   111.30727789    59.83280938
 H     32  29  26     2.086237471264   111.30668961   300.11877949
 C      3   2   1     2.297541896507   179.54082833   183.37936127
 H      1   2   4     2.026719859025   179.52314077   327.50395744
 H     35   3   7     2.026934595095   179.64135417   355.69176445
 H     20  17  14     2.082052651526   111.42972278   180.00599459
 H     32  29  26     2.082380998470   111.50117371   179.97476049

---------------------
BASIS SET INFORMATION
---------------------
There are 2 groups of distinct atoms

 Group   1 Type C   : 17s4p1d contracted to 3s2p1d pattern {881/31/1}
 Group   2 Type H   : 4s1p contracted to 2s1p pattern {31/1}

Atom   0C    basis set group =>   1
Atom   1C    basis set group =>   1
Atom   2C    basis set group =>   1
Atom   3C    basis set group =>   1
Atom   4C    basis set group =>   1
Atom   5C    basis set group =>   1
Atom   6C    basis set group =>   1
Atom   7C    basis set group =>   1
Atom   8C    basis set group =>   1
Atom   9H    basis set group =>   2
Atom  10H    basis set group =>   2
Atom  11C    basis set group =>   1
Atom  12H    basis set group =>   2
Atom  13C    basis set group =>   1
Atom  14H    basis set group =>   2
Atom  15H    basis set group =>   2
Atom  16C    basis set group =>   1
Atom  17H    basis set group =>   2
Atom  18H    basis set group =>   2
Atom  19C    basis set group =>   1
Atom  20H    basis set group =>   2
Atom  21H    basis set group =>   2
Atom  22C    basis set group =>   1
Atom  23H    basis set group =>   2
Atom  24H    basis set group =>   2
Atom  25C    basis set group =>   1
Atom  26H    basis set group =>   2
Atom  27H    basis set group =>   2
Atom  28C    basis set group =>   1
Atom  29H    basis set group =>   2
Atom  30H    basis set group =>   2
Atom  31C    basis set group =>   1
Atom  32H    basis set group =>   2
Atom  33H    basis set group =>   2
Atom  34C    basis set group =>   1
Atom  35H    basis set group =>   2
Atom  36H    basis set group =>   2
Atom  37H    basis set group =>   2
Atom  38H    basis set group =>   2
---------------------------------
AUXILIARY/J BASIS SET INFORMATION
---------------------------------
There are 2 groups of distinct atoms

 Group   1 Type C   : 14s11p10d2f contracted to 14s11p10d2f pattern {11111111111111/11111111111/1111111111/11}
 Group   2 Type H   : 9s2p1d contracted to 9s2p1d pattern {111111111/11/1}

Atom   0C    basis set group =>   1
Atom   1C    basis set group =>   1
Atom   2C    basis set group =>   1
Atom   3C    basis set group =>   1
Atom   4C    basis set group =>   1
Atom   5C    basis set group =>   1
Atom   6C    basis set group =>   1
Atom   7C    basis set group =>   1
Atom   8C    basis set group =>   1
Atom   9H    basis set group =>   2
Atom  10H    basis set group =>   2
Atom  11C    basis set group =>   1
Atom  12H    basis set group =>   2
Atom  13C    basis set group =>   1
Atom  14H    basis set group =>   2
Atom  15H    basis set group =>   2
Atom  16C    basis set group =>   1
Atom  17H    basis set group =>   2
Atom  18H    basis set group =>   2
Atom  19C    basis set group =>   1
Atom  20H    basis set group =>   2
Atom  21H    basis set group =>   2
Atom  22C    basis set group =>   1
Atom  23H    basis set group =>   2
Atom  24H    basis set group =>   2
Atom  25C    basis set group =>   1
Atom  26H    basis set group =>   2
Atom  27H    basis set group =>   2
Atom  28C    basis set group =>   1
Atom  29H    basis set group =>   2
Atom  30H    basis set group =>   2
Atom  31C    basis set group =>   1
Atom  32H    basis set group =>   2
Atom  33H    basis set group =>   2
Atom  34C    basis set group =>   1
Atom  35H    basis set group =>   2
Atom  36H    basis set group =>   2
Atom  37H    basis set group =>   2
Atom  38H    basis set group =>   2
---------------------------------
AUXILIARY/C BASIS SET INFORMATION
---------------------------------
There are 2 groups of distinct atoms

 Group   1 Type C   : 14s11p10d2f contracted to 14s11p10d2f pattern {11111111111111/11111111111/1111111111/11}
 Group   2 Type H   : 9s2p1d contracted to 9s2p1d pattern {111111111/11/1}

Atom   0C    basis set group =>   1
Atom   1C    basis set group =>   1
Atom   2C    basis set group =>   1
Atom   3C    basis set group =>   1
Atom   4C    basis set group =>   1
Atom   5C    basis set group =>   1
Atom   6C    basis set group =>   1
Atom   7C    basis set group =>   1
Atom   8C    basis set group =>   1
Atom   9H    basis set group =>   2
Atom  10H    basis set group =>   2
Atom  11C    basis set group =>   1
Atom  12H    basis set group =>   2
Atom  13C    basis set group =>   1
Atom  14H    basis set group =>   2
Atom  15H    basis set group =>   2
Atom  16C    basis set group =>   1
Atom  17H    basis set group =>   2
Atom  18H    basis set group =>   2
Atom  19C    basis set group =>   1
Atom  20H    basis set group =>   2
Atom  21H    basis set group =>   2
Atom  22C    basis set group =>   1
Atom  23H    basis set group =>   2
Atom  24H    basis set group =>   2
Atom  25C    basis set group =>   1
Atom  26H    basis set group =>   2
Atom  27H    basis set group =>   2
Atom  28C    basis set group =>   1
Atom  29H    basis set group =>   2
Atom  30H    basis set group =>   2
Atom  31C    basis set group =>   1
Atom  32H    basis set group =>   2
Atom  33H    basis set group =>   2
Atom  34C    basis set group =>   1
Atom  35H    basis set group =>   2
Atom  36H    basis set group =>   2
Atom  37H    basis set group =>   2
Atom  38H    basis set group =>   2
----------------------------------
AUXILIARY/JK BASIS SET INFORMATION
----------------------------------
There are 2 groups of distinct atoms

 Group   1 Type C   : 14s11p10d2f contracted to 14s11p10d2f pattern {11111111111111/11111111111/1111111111/11}
 Group   2 Type H   : 9s2p1d contracted to 9s2p1d pattern {111111111/11/1}

Atom   0C    basis set group =>   1
Atom   1C    basis set group =>   1
Atom   2C    basis set group =>   1
Atom   3C    basis set group =>   1
Atom   4C    basis set group =>   1
Atom   5C    basis set group =>   1
Atom   6C    basis set group =>   1
Atom   7C    basis set group =>   1
Atom   8C    basis set group =>   1
Atom   9H    basis set group =>   2
Atom  10H    basis set group =>   2
Atom  11C    basis set group =>   1
Atom  12H    basis set group =>   2
Atom  13C    basis set group =>   1
Atom  14H    basis set group =>   2
Atom  15H    basis set group =>   2
Atom  16C    basis set group =>   1
Atom  17H    basis set group =>   2
Atom  18H    basis set group =>   2
Atom  19C    basis set group =>   1
Atom  20H    basis set group =>   2
Atom  21H    basis set group =>   2
Atom  22C    basis set group =>   1
Atom  23H    basis set group =>   2
Atom  24H    basis set group =>   2
Atom  25C    basis set group =>   1
Atom  26H    basis set group =>   2
Atom  27H    basis set group =>   2
Atom  28C    basis set group =>   1
Atom  29H    basis set group =>   2
Atom  30H    basis set group =>   2
Atom  31C    basis set group =>   1
Atom  32H    basis set group =>   2
Atom  33H    basis set group =>   2
Atom  34C    basis set group =>   1
Atom  35H    basis set group =>   2
Atom  36H    basis set group =>   2
Atom  37H    basis set group =>   2
Atom  38H    basis set group =>   2


           ************************************************************
           *        Program running with 16 parallel MPI-processes    *
           *              working on a common directory               *
           ************************************************************
------------------------------------------------------------------------------
                           ORCA GTO INTEGRAL CALCULATION
------------------------------------------------------------------------------

                         BASIS SET STATISTICS AND STARTUP INFO

 # of primitive gaussian shells          ...  501
 # of primitive gaussian functions       ...  759
 # of contracted shells                  ...  171
 # of contracted basis functions         ...  357
 Highest angular momentum                ...    2
 Maximum contraction depth               ...    8
 Integral package used                   ... LIBINT
 Integral threshhold            Thresh   ...  1.000e-10
 Primitive cut-off              TCut     ...  1.000e-11


------------------------------ INTEGRAL EVALUATION ----------------------------


 * One electron integrals 
 Pre-screening matrix                    ... done
 Shell pair data                         ... done (   0.006 sec)



           ************************************************************
           *        Program running with 16 parallel MPI-processes    *
           *              working on a common directory               *
           ************************************************************
-------------------------------------------------------------------------------
                                 ORCA SCF
-------------------------------------------------------------------------------

------------
SCF SETTINGS
------------
Hamiltonian:
 Density Functional     Method          .... DFT(GTOs)
 Exchange Functional    Exchange        .... B88
   X-Alpha parameter    XAlpha          ....  0.666667
   Becke's b parameter  XBeta           ....  0.004200
 Correlation Functional Correlation     .... LYP
 LDA part of GGA corr.  LDAOpt          .... VWN-5
 Gradients option       PostSCFGGA      .... off
 Hybrid DFT is turned on
   Fraction HF Exchange ScalHFX         ....  0.200000
   Scaling of DF-GGA-X  ScalDFX         ....  0.720000
   Scaling of DF-GGA-C  ScalDFC         ....  0.810000
   Scaling of DF-LDA-C  ScalLDAC        ....  1.000000
   Perturbative correction              ....  0.000000
   Density functional embedding theory  .... OFF
   NL short-range parameter             ....  4.800000


General Settings:
 Integral files         IntName         .... g-tensor
 Hartree-Fock type      HFTyp           .... UHF
 Total Charge           Charge          ....    0
 Multiplicity           Mult            ....    2
 Number of Electrons    NEL             ....  129
 Basis Dimension        Dim             ....  357
 Nuclear Repulsion      ENuc            ....   1144.9345443722 Eh

Convergence Acceleration:
 DIIS                   CNVDIIS         .... on
   Start iteration      DIISMaxIt       ....    12
   Startup error        DIISStart       ....  0.200000
   # of expansion vecs  DIISMaxEq       ....     5
   Bias factor          DIISBfac        ....   1.050
   Max. coefficient     DIISMaxC        ....  10.000
 Newton-Raphson         CNVNR           .... off
 SOSCF                  CNVSOSCF        .... off
 Level Shifting         CNVShift        .... on
   Level shift para.    LevelShift      ....    0.2500
   Turn off err/grad.   ShiftErr        ....    0.0010
 Zerner damping         CNVZerner       .... off
 Static damping         CNVDamp         .... on
   Fraction old density DampFac         ....    0.7000
   Max. Damping (<1)    DampMax         ....    0.9800
   Min. Damping (>=0)   DampMin         ....    0.0000
   Turn off err/grad.   DampErr         ....    0.1000
 Fernandez-Rico         CNVRico         .... off

SCF Procedure:
 Maximum # iterations   MaxIter         ....   125
 SCF integral mode      SCFMode         .... Direct
   Integral package                     .... LIBINT
 Reset frequency        DirectResetFreq ....    20
 Integral Threshold     Thresh          ....  1.000e-10 Eh
 Primitive CutOff       TCut            ....  1.000e-11 Eh

Convergence Tolerance:
 Convergence Check Mode ConvCheckMode   .... Total+1el-Energy
 Convergence forced     ConvForced      .... 0
 Energy Change          TolE            ....  1.000e-06 Eh
 1-El. energy change                    ....  1.000e-03 Eh
 DIIS Error             TolErr          ....  1.000e-06


Diagonalization of the overlap matrix:
Smallest eigenvalue                        ... 1.275e-04
Time for diagonalization                   ...    0.194 sec
Threshold for overlap eigenvalues          ... 1.000e-08
Number of eigenvalues below threshold      ... 0
Time for construction of square roots      ...    0.025 sec
Total time needed                          ...    0.220 sec

-------------------
DFT GRID GENERATION
-------------------

General Integration Accuracy     IntAcc      ...  4.340
Radial Grid Type                 RadialGrid  ... Gauss-Chebyshev
Angular Grid (max. acc.)         AngularGrid ... Lebedev-110
Angular grid pruning method      GridPruning ... 3 (G Style)
Weight generation scheme         WeightScheme... Becke
Basis function cutoff            BFCut       ...    1.0000e-10
Integration weight cutoff        WCut        ...    1.0000e-14
Grids for H and He will be reduced by one unit

# of grid points (after initial pruning)     ...  46482 (   0.0 sec)
# of grid points (after weights+screening)   ...  41708 (   0.1 sec)
nearest neighbour list constructed           ...    0.0 sec
Grid point re-assignment to atoms done       ...    0.0 sec
Grid point division into batches done        ...    0.0 sec
Reduced shell lists constructed in    0.1 sec

Total number of grid points                  ...    41708
Total number of batches                      ...      671
Average number of points per batch           ...       62
Average number of grid points per atom       ...     1069
Average number of shells per batch           ...    79.51 (46.50%)
Average number of basis functions per batch  ...   158.81 (44.49%)
Average number of large shells per batch     ...    45.26 (56.92%)
Average number of large basis fcns per batch ...    94.93 (59.77%)
Maximum spatial batch extension              ...  14.37, 10.68, 19.62 au
Average spatial batch extension              ...   0.18,  0.22,  0.32 au

Time for grid setup =    0.259 sec

------------------------------
INITIAL GUESS: MODEL POTENTIAL
------------------------------
Loading Hartree-Fock densities                     ... done
Calculating cut-offs                               ... done
Setting up the integral package                    ... done
Initializing the effective Hamiltonian             ... done
Starting the Coulomb interaction                   ... done (   0.1 sec)
Reading the grid                                   ... done
Mapping shells                                     ... done
Starting the XC term evaluation                    ... done (   0.1 sec)
  promolecular density results
     # of electrons  =    129.021617537
     EX              =    -98.641112301
     EC              =     -4.219935267
     EX+EC           =   -102.861047568
Transforming the Hamiltonian                       ... done (   0.0 sec)
Diagonalizing the Hamiltonian                      ... done (   0.0 sec)
Back transforming the eigenvectors                 ... done (   0.0 sec)
Now organizing SCF variables                       ... done
                      ------------------
                      INITIAL GUESS DONE (   0.8 sec)
                      ------------------
--------------
SCF ITERATIONS
--------------
ITER       Energy         Delta-E        Max-DP      RMS-DP      [F,P]     Damp
               ***  Starting incremental Fock matrix formation  ***
  0   -697.5263076508   0.000000000000 0.06698691  0.00101736  0.1735371 0.7000
  1   -697.7215632264  -0.195255575536 0.04916996  0.00074606  0.0913671 0.7000
                               ***Turning on DIIS***
  2   -697.8096326708  -0.088069444462 0.09638970  0.00143373  0.0349063 0.0000
  3   -697.9335636508  -0.123930979996 0.01972108  0.00037565  0.0497650 0.0000
  4   -697.9662221275  -0.032658476624 0.00863414  0.00013396  0.0120221 0.0000
  5   -697.9683018104  -0.002079682921 0.00401003  0.00004247  0.0027983 0.0000
  6   -697.9686114934  -0.000309682989 0.00284687  0.00002361  0.0013516 0.0000
  7   -697.9687278905  -0.000116397096 0.00332780  0.00003083  0.0009838 0.0000
  8   -697.9688323055  -0.000104415040 0.00150166  0.00001479  0.0005981 0.0000
  9   -697.9688622137  -0.000029908205 0.00094313  0.00000893  0.0003697 0.0000
 10   -697.9688734607  -0.000011246977 0.00056895  0.00000581  0.0001712 0.0000
 11   -697.9688782922  -0.000004831546 0.00028500  0.00000245  0.0001245 0.0000
 12   -697.9688797503  -0.000001458088 0.00026311  0.00000251  0.0000772 0.0000
 13   -697.9688809296  -0.000001179225 0.00014298  0.00000151  0.0000312 0.0000
                 **** Energy Check signals convergence ****

               *****************************************************
               *                     SUCCESS                       *
               *           SCF CONVERGED AFTER  14 CYCLES          *
               *****************************************************

Setting up the final grid:

General Integration Accuracy     IntAcc      ...  4.670
Radial Grid Type                 RadialGrid  ... Gauss-Chebyshev
Angular Grid (max. acc.)         AngularGrid ... Lebedev-302
Angular grid pruning method      GridPruning ... 3 (G Style)
Weight generation scheme         WeightScheme... Becke
Basis function cutoff            BFCut       ...    1.0000e-10
Integration weight cutoff        WCut        ...    1.0000e-14
Grids for H and He will be reduced by one unit

# of grid points (after initial pruning)     ... 183090 (   0.0 sec)
# of grid points (after weights+screening)   ... 161577 (   0.3 sec)
nearest neighbour list constructed           ...    0.0 sec
Grid point re-assignment to atoms done       ...    0.0 sec
Grid point division into batches done        ...    0.6 sec
Reduced shell lists constructed in    0.8 sec

Total number of grid points                  ...   161577
Total number of batches                      ...     2543
Average number of points per batch           ...       63
Average number of grid points per atom       ...     4143
Average number of shells per batch           ...    71.92 (42.06%)
Average number of basis functions per batch  ...   143.81 (40.28%)
Average number of large shells per batch     ...    40.87 (56.82%)
Average number of large basis fcns per batch ...    86.03 (59.82%)
Maximum spatial batch extension              ...  16.88, 12.83, 23.20 au
Average spatial batch extension              ...   0.14,  0.15,  0.15 au

Final grid set up in    1.2 sec
Final integration                            ... done (   0.5 sec)
Change in XC energy                          ...     0.001813499
Integrated number of electrons               ...   129.000189748
Previous integrated no of electrons          ...   129.018376810

----------------
TOTAL SCF ENERGY
----------------

Total Energy       :         -697.96706796 Eh          -18992.64949 eV

Components:
Nuclear Repulsion  :         1144.93454437 Eh           31155.25285 eV
Electronic Energy  :        -1842.90161234 Eh          -50147.90234 eV
One Electron Energy:        -3212.97463773 Eh          -87429.48472 eV
Two Electron Energy:         1370.07302539 Eh           37281.58238 eV

Virial components:
Potential Energy   :        -1390.98822308 Eh          -37850.71384 eV
Kinetic Energy     :          693.02115512 Eh           18858.06436 eV
Virial Ratio       :            2.00713674


DFT components:
N(Alpha)           :       65.000102704225 electrons
N(Beta)            :       64.000087043517 electrons
N(Total)           :      129.000189747742 electrons
E(X)               :      -79.823906045739 Eh       
E(C)               :       -4.989775557862 Eh       
E(XC)              :      -84.813681603602 Eh       
DFET-embed. en.    :        0.000000000000 Eh       

---------------
SCF CONVERGENCE
---------------

  Last Energy change         ...   -5.3234e-07  Tolerance :   1.0000e-06
  Last MAX-Density change    ...    2.2022e-04  Tolerance :   1.0000e-05
  Last RMS-Density change    ...    2.1679e-06  Tolerance :   1.0000e-06
  Last DIIS Error            ...    2.5170e-05  Tolerance :   1.0000e-06

             **** THE GBW FILE WAS UPDATED (g-tensor.gbw) ****
             **** DENSITY FILE WAS UPDATED (g-tensor.scfp) ****
             **** ENERGY FILE WAS UPDATED (g-tensor.en.tmp) ****
----------------------
UHF SPIN CONTAMINATION
----------------------

Warning: in a DFT calculation there is little theoretical justification to 
         calculate <S**2> as in Hartree-Fock theory. We will do it anyways
         but you should keep in mind that the values have only limited relevance

Expectation value of <S**2>     :     0.784613
Ideal value S*(S+1) for S=0.5   :     0.750000
Deviation                       :     0.034613

             **** THE GBW FILE WAS UPDATED (g-tensor.gbw) ****
             **** DENSITY FILE WAS UPDATED (g-tensor.scfp) ****
----------------
ORBITAL ENERGIES
----------------
                 SPIN UP ORBITALS
  NO   OCC          E(Eh)            E(eV) 
   0   1.0000     -10.215269      -277.9716 
   1   1.0000     -10.213292      -277.9178 
   2   1.0000     -10.204156      -277.6692 
   3   1.0000     -10.199966      -277.5552 
   4   1.0000     -10.196411      -277.4584 
   5   1.0000     -10.193884      -277.3897 
   6   1.0000     -10.192588      -277.3544 
   7   1.0000     -10.191654      -277.3290 
   8   1.0000     -10.190846      -277.3070 
   9   1.0000     -10.189013      -277.2571 
  10   1.0000     -10.187821      -277.2247 
  11   1.0000     -10.187480      -277.2154 
  12   1.0000     -10.186780      -277.1964 
  13   1.0000     -10.184564      -277.1361 
  14   1.0000     -10.182465      -277.0790 
  15   1.0000     -10.182130      -277.0699 
  16   1.0000     -10.177519      -276.9444 
  17   1.0000     -10.175923      -276.9009 
  18   1.0000      -0.875638       -23.8273 
  19   1.0000      -0.821219       -22.3465 
  20   1.0000      -0.798517       -21.7288 
  21   1.0000      -0.796539       -21.6749 
  22   1.0000      -0.769176       -20.9303 
  23   1.0000      -0.752775       -20.4840 
  24   1.0000      -0.731917       -19.9165 
  25   1.0000      -0.721375       -19.6296 
  26   1.0000      -0.698902       -19.0181 
  27   1.0000      -0.657676       -17.8963 
  28   1.0000      -0.640095       -17.4179 
  29   1.0000      -0.618123       -16.8200 
  30   1.0000      -0.594767       -16.1844 
  31   1.0000      -0.581058       -15.8114 
  32   1.0000      -0.563400       -15.3309 
  33   1.0000      -0.542243       -14.7552 
  34   1.0000      -0.524640       -14.2762 
  35   1.0000      -0.499494       -13.5919 
  36   1.0000      -0.486900       -13.2492 
  37   1.0000      -0.478552       -13.0220 
  38   1.0000      -0.471332       -12.8256 
  39   1.0000      -0.463029       -12.5997 
  40   1.0000      -0.434287       -11.8176 
  41   1.0000      -0.430650       -11.7186 
  42   1.0000      -0.426987       -11.6189 
  43   1.0000      -0.422565       -11.4986 
  44   1.0000      -0.412753       -11.2316 
  45   1.0000      -0.399124       -10.8607 
  46   1.0000      -0.398628       -10.8472 
  47   1.0000      -0.381085       -10.3699 
  48   1.0000      -0.379855       -10.3364 
  49   1.0000      -0.366147        -9.9634 
  50   1.0000      -0.358282        -9.7494 
  51   1.0000      -0.355030        -9.6609 
  52   1.0000      -0.341270        -9.2864 
  53   1.0000      -0.333505        -9.0751 
  54   1.0000      -0.331744        -9.0272 
  55   1.0000      -0.331125        -9.0104 
  56   1.0000      -0.328442        -8.9374 
  57   1.0000      -0.325272        -8.8511 
  58   1.0000      -0.321627        -8.7519 
  59   1.0000      -0.285552        -7.7703 
  60   1.0000      -0.276404        -7.5213 
  61   1.0000      -0.274837        -7.4787 
  62   1.0000      -0.271300        -7.3824 
  63   1.0000      -0.230998        -6.2858 
  64   1.0000      -0.174641        -4.7522 
  65   0.0000      -0.048444        -1.3182 
  66   0.0000       0.010867         0.2957 
  67   0.0000       0.040404         1.0995 
  68   0.0000       0.049362         1.3432 
  69   0.0000       0.052725         1.4347 
  70   0.0000       0.060942         1.6583 
  71   0.0000       0.062581         1.7029 
  72   0.0000       0.082515         2.2454 
  73   0.0000       0.086132         2.3438 
  74   0.0000       0.088679         2.4131 
  75   0.0000       0.091635         2.4935 
  76   0.0000       0.093601         2.5470 
  77   0.0000       0.096272         2.6197 
  78   0.0000       0.100235         2.7275 
  79   0.0000       0.102721         2.7952 
  80   0.0000       0.117819         3.2060 
  81   0.0000       0.125456         3.4138 
  82   0.0000       0.130153         3.5417 
  83   0.0000       0.145086         3.9480 
  84   0.0000       0.147024         4.0007 
  85   0.0000       0.150826         4.1042 
  86   0.0000       0.159736         4.3466 
  87   0.0000       0.160176         4.3586 
  88   0.0000       0.161510         4.3949 
  89   0.0000       0.168712         4.5909 
  90   0.0000       0.170394         4.6367 
  91   0.0000       0.178954         4.8696 
  92   0.0000       0.195681         5.3247 
  93   0.0000       0.204270         5.5585 
  94   0.0000       0.211741         5.7618 
  95   0.0000       0.216897         5.9021 
  96   0.0000       0.222255         6.0479 
  97   0.0000       0.242568         6.6006 
  98   0.0000       0.248232         6.7547 
  99   0.0000       0.260771         7.0959 
 100   0.0000       0.268519         7.3068 
 101   0.0000       0.290825         7.9137 
 102   0.0000       0.308565         8.3965 
 103   0.0000       0.323503         8.8030 
 104   0.0000       0.327357         8.9078 
 105   0.0000       0.348986         9.4964 
 106   0.0000       0.361361         9.8331 
 107   0.0000       0.365942         9.9578 
 108   0.0000       0.390411        10.6236 
 109   0.0000       0.408888        11.1264 
 110   0.0000       0.410802        11.1785 
 111   0.0000       0.412079        11.2132 
 112   0.0000       0.418183        11.3793 
 113   0.0000       0.423471        11.5232 
 114   0.0000       0.435594        11.8531 
 115   0.0000       0.439371        11.9559 
 116   0.0000       0.442119        12.0307 
 117   0.0000       0.460943        12.5429 
 118   0.0000       0.462730        12.5915 
 119   0.0000       0.470892        12.8136 
 120   0.0000       0.476034        12.9535 
 121   0.0000       0.478725        13.0268 
 122   0.0000       0.487491        13.2653 
 123   0.0000       0.502443        13.6722 
 124   0.0000       0.503640        13.7048 
 125   0.0000       0.505414        13.7530 
 126   0.0000       0.514997        14.0138 
 127   0.0000       0.522561        14.2196 
 128   0.0000       0.527942        14.3660 
 129   0.0000       0.540205        14.6997 
 130   0.0000       0.542239        14.7551 
 131   0.0000       0.550992        14.9933 
 132   0.0000       0.557045        15.1580 
 133   0.0000       0.559642        15.2286 
 134   0.0000       0.586423        15.9574 
 135   0.0000       0.588335        16.0094 
 136   0.0000       0.595445        16.2029 
 137   0.0000       0.603845        16.4315 
 138   0.0000       0.604650        16.4534 
 139   0.0000       0.606669        16.5083 
 140   0.0000       0.617598        16.8057 
 141   0.0000       0.622703        16.9446 
 142   0.0000       0.637625        17.3507 
 143   0.0000       0.640386        17.4258 
 144   0.0000       0.643297        17.5050 
 145   0.0000       0.644191        17.5293 
 146   0.0000       0.650512        17.7013 
 147   0.0000       0.653295        17.7771 
 148   0.0000       0.655271        17.8308 
 149   0.0000       0.658526        17.9194 
 150   0.0000       0.660460        17.9720 
 151   0.0000       0.662497        18.0275 
 152   0.0000       0.666970        18.1492 
 153   0.0000       0.667981        18.1767 
 154   0.0000       0.679339        18.4858 
 155   0.0000       0.681680        18.5495 
 156   0.0000       0.686831        18.6896 
 157   0.0000       0.689873        18.7724 
 158   0.0000       0.691089        18.8055 
 159   0.0000       0.696752        18.9596 
 160   0.0000       0.707197        19.2438 
 161   0.0000       0.718511        19.5517 
 162   0.0000       0.719265        19.5722 
 163   0.0000       0.727926        19.8079 
 164   0.0000       0.731532        19.9060 
 165   0.0000       0.735215        20.0062 
 166   0.0000       0.737602        20.0712 
 167   0.0000       0.746341        20.3090 
 168   0.0000       0.757063        20.6007 
 169   0.0000       0.768816        20.9205 
 170   0.0000       0.772180        21.0121 
 171   0.0000       0.780012        21.2252 
 172   0.0000       0.801251        21.8031 
 173   0.0000       0.818719        22.2785 
 174   0.0000       0.831860        22.6361 
 175   0.0000       0.832330        22.6488 
 176   0.0000       0.839914        22.8552 
 177   0.0000       0.852159        23.1884 
 178   0.0000       0.872231        23.7346 
 179   0.0000       0.878835        23.9143 
 180   0.0000       0.884272        24.0623 
 181   0.0000       0.912847        24.8398 
 182   0.0000       0.928600        25.2685 
 183   0.0000       0.938486        25.5375 
 184   0.0000       0.951530        25.8925 
 185   0.0000       0.979528        26.6543 
 186   0.0000       0.984128        26.7795 
 187   0.0000       0.990669        26.9575 
 188   0.0000       0.996550        27.1175 
 189   0.0000       1.013043        27.5663 
 190   0.0000       1.037390        28.2288 
 191   0.0000       1.042109        28.3572 
 192   0.0000       1.048113        28.5206 
 193   0.0000       1.049256        28.5517 
 194   0.0000       1.053457        28.6660 
 195   0.0000       1.065045        28.9813 
 196   0.0000       1.079954        29.3870 
 197   0.0000       1.083778        29.4911 
 198   0.0000       1.099287        29.9131 
 199   0.0000       1.143462        31.1152 
 200   0.0000       1.156511        31.4703 
 201   0.0000       1.165421        31.7127 
 202   0.0000       1.192570        32.4515 
 203   0.0000       1.203317        32.7439 
 204   0.0000       1.207511        32.8581 
 205   0.0000       1.208231        32.8776 
 206   0.0000       1.214022        33.0352 
 207   0.0000       1.216913        33.1139 
 208   0.0000       1.221543        33.2399 
 209   0.0000       1.227466        33.4010 
 210   0.0000       1.235481        33.6192 
 211   0.0000       1.256384        34.1880 
 212   0.0000       1.282295        34.8930 
 213   0.0000       1.287897        35.0455 
 214   0.0000       1.303048        35.4577 
 215   0.0000       1.307545        35.5801 
 216   0.0000       1.317684        35.8560 
 217   0.0000       1.328517        36.1508 
 218   0.0000       1.335532        36.3417 
 219   0.0000       1.345510        36.6132 
 220   0.0000       1.349205        36.7137 
 221   0.0000       1.371610        37.3234 
 222   0.0000       1.384090        37.6630 
 223   0.0000       1.388032        37.7703 
 224   0.0000       1.399111        38.0718 
 225   0.0000       1.409444        38.3529 
 226   0.0000       1.416629        38.5484 
 227   0.0000       1.424638        38.7664 
 228   0.0000       1.426016        38.8039 
 229   0.0000       1.428013        38.8582 
 230   0.0000       1.445528        39.3348 
 231   0.0000       1.451321        39.4925 
 232   0.0000       1.462321        39.7918 
 233   0.0000       1.468911        39.9711 
 234   0.0000       1.471060        40.0296 
 235   0.0000       1.483913        40.3793 
 236   0.0000       1.494246        40.6605 
 237   0.0000       1.519921        41.3592 
 238   0.0000       1.532336        41.6970 
 239   0.0000       1.537540        41.8386 
 240   0.0000       1.557222        42.3742 
 241   0.0000       1.559089        42.4250 
 242   0.0000       1.582971        43.0748 
 243   0.0000       1.585229        43.1363 
 244   0.0000       1.585938        43.1556 
 245   0.0000       1.600336        43.5474 
 246   0.0000       1.615853        43.9696 
 247   0.0000       1.621722        44.1293 
 248   0.0000       1.627400        44.2838 
 249   0.0000       1.629249        44.3341 
 250   0.0000       1.632725        44.4287 
 251   0.0000       1.639458        44.6119 
 252   0.0000       1.645306        44.7711 
 253   0.0000       1.651244        44.9326 
 254   0.0000       1.651748        44.9463 
 255   0.0000       1.660999        45.1981 
 256   0.0000       1.668746        45.4089 
 257   0.0000       1.671254        45.4771 
 258   0.0000       1.675824        45.6015 
 259   0.0000       1.685185        45.8562 
 260   0.0000       1.685946        45.8769 
 261   0.0000       1.693827        46.0914 
 262   0.0000       1.699109        46.2351 
 263   0.0000       1.702208        46.3194 
 264   0.0000       1.703736        46.3610 
 265   0.0000       1.711527        46.5730 
 266   0.0000       1.715909        46.6923 
 267   0.0000       1.725072        46.9416 
 268   0.0000       1.740501        47.3614 
 269   0.0000       1.751478        47.6601 
 270   0.0000       1.755980        47.7827 
 271   0.0000       1.762458        47.9589 
 272   0.0000       1.779252        48.4159 
 273   0.0000       1.782549        48.5056 
 274   0.0000       1.790392        48.7191 
 275   0.0000       1.796196        48.8770 
 276   0.0000       1.801898        49.0321 
 277   0.0000       1.813967        49.3606 
 278   0.0000       1.819441        49.5095 
 279   0.0000       1.822285        49.5869 
 280   0.0000       1.829903        49.7942 
 281   0.0000       1.856685        50.5230 
 282   0.0000       1.869739        50.8782 
 283   0.0000       1.879832        51.1528 
 284   0.0000       1.889228        51.4085 
 285   0.0000       1.896943        51.6184 
 286   0.0000       1.911956        52.0270 
 287   0.0000       1.915618        52.1266 
 288   0.0000       1.921971        52.2995 
 289   0.0000       1.928921        52.4886 
 290   0.0000       1.952376        53.1269 
 291   0.0000       1.975425        53.7541 
 292   0.0000       1.992163        54.2095 
 293   0.0000       1.996946        54.3397 
 294   0.0000       2.011604        54.7385 
 295   0.0000       2.024398        55.0867 
 296   0.0000       2.044265        55.6273 
 297   0.0000       2.050375        55.7935 
 298   0.0000       2.067604        56.2624 
 299   0.0000       2.075047        56.4649 
 300   0.0000       2.077193        56.5233 
 301   0.0000       2.085605        56.7522 
 302   0.0000       2.111824        57.4657 
 303   0.0000       2.125772        57.8452 
 304   0.0000       2.128035        57.9068 
 305   0.0000       2.128800        57.9276 
 306   0.0000       2.151148        58.5357 
 307   0.0000       2.155660        58.6585 
 308   0.0000       2.188829        59.5611 
 309   0.0000       2.198681        59.8291 
 310   0.0000       2.209412        60.1212 
 311   0.0000       2.212436        60.2035 
 312   0.0000       2.218404        60.3659 
 313   0.0000       2.226968        60.5989 
 314   0.0000       2.252964        61.3063 
 315   0.0000       2.260036        61.4987 
 316   0.0000       2.280666        62.0601 
 317   0.0000       2.291083        62.3435 
 318   0.0000       2.296620        62.4942 
 319   0.0000       2.301600        62.6297 
 320   0.0000       2.319169        63.1078 
 321   0.0000       2.326563        63.3090 
 322   0.0000       2.329285        63.3831 
 323   0.0000       2.334532        63.5258 
 324   0.0000       2.374890        64.6240 
 325   0.0000       2.382853        64.8407 
 326   0.0000       2.406786        65.4920 
 327   0.0000       2.410467        65.5921 
 328   0.0000       2.411519        65.6208 
 329   0.0000       2.412710        65.6532 
 330   0.0000       2.422197        65.9113 
 331   0.0000       2.423786        65.9546 
 332   0.0000       2.440332        66.4048 
 333   0.0000       2.483814        67.5880 
 334   0.0000       2.498517        67.9881 
 335   0.0000       2.501597        68.0719 
 336   0.0000       2.534419        68.9651 
 337   0.0000       2.544832        69.2484 
 338   0.0000       2.558055        69.6082 
 339   0.0000       2.592614        70.5486 
 340   0.0000       2.600843        70.7725 
 341   0.0000       2.625513        71.4438 
 342   0.0000       2.640904        71.8627 
 343   0.0000       2.661121        72.4128 
 344   0.0000       2.679565        72.9147 
 345   0.0000       2.712092        73.7998 
 346   0.0000       2.720884        74.0390 
 347   0.0000       2.754319        74.9488 
 348   0.0000       2.776785        75.5602 
 349   0.0000       2.823629        76.8348 
 350   0.0000       2.845863        77.4399 
 351   0.0000       2.871287        78.1317 
 352   0.0000       2.928209        79.6806 
 353   0.0000       3.006969        81.8238 
 354   0.0000       3.191773        86.8525 
 355   0.0000       3.203170        87.1627 
 356   0.0000       3.396243        92.4165 

                 SPIN DOWN ORBITALS
  NO   OCC          E(Eh)            E(eV) 
   0   1.0000     -10.214853      -277.9603 
   1   1.0000     -10.211889      -277.8796 
   2   1.0000     -10.202377      -277.6208 
   3   1.0000     -10.200737      -277.5762 
   4   1.0000     -10.193390      -277.3762 
   5   1.0000     -10.193201      -277.3711 
   6   1.0000     -10.192266      -277.3457 
   7   1.0000     -10.191562      -277.3265 
   8   1.0000     -10.189690      -277.2756 
   9   1.0000     -10.188027      -277.2303 
  10   1.0000     -10.188021      -277.2301 
  11   1.0000     -10.185553      -277.1630 
  12   1.0000     -10.184526      -277.1350 
  13   1.0000     -10.183874      -277.1173 
  14   1.0000     -10.182462      -277.0789 
  15   1.0000     -10.182131      -277.0699 
  16   1.0000     -10.177526      -276.9446 
  17   1.0000     -10.175924      -276.9010 
  18   1.0000      -0.872214       -23.7341 
  19   1.0000      -0.816152       -22.2086 
  20   1.0000      -0.795888       -21.6572 
  21   1.0000      -0.795146       -21.6370 
  22   1.0000      -0.767126       -20.8746 
  23   1.0000      -0.751903       -20.4603 
  24   1.0000      -0.727817       -19.8049 
  25   1.0000      -0.719903       -19.5896 
  26   1.0000      -0.696533       -18.9536 
  27   1.0000      -0.654625       -17.8133 
  28   1.0000      -0.638221       -17.3669 
  29   1.0000      -0.612539       -16.6680 
  30   1.0000      -0.593810       -16.1584 
  31   1.0000      -0.579491       -15.7688 
  32   1.0000      -0.560843       -15.2613 
  33   1.0000      -0.540959       -14.7202 
  34   1.0000      -0.522097       -14.2070 
  35   1.0000      -0.497300       -13.5322 
  36   1.0000      -0.485465       -13.2102 
  37   1.0000      -0.477174       -12.9846 
  38   1.0000      -0.470465       -12.8020 
  39   1.0000      -0.459513       -12.5040 
  40   1.0000      -0.432171       -11.7600 
  41   1.0000      -0.429238       -11.6802 
  42   1.0000      -0.425761       -11.5855 
  43   1.0000      -0.419883       -11.4256 
  44   1.0000      -0.412266       -11.2183 
  45   1.0000      -0.397526       -10.8172 
  46   1.0000      -0.391256       -10.6466 
  47   1.0000      -0.377555       -10.2738 
  48   1.0000      -0.377192       -10.2639 
  49   1.0000      -0.364987        -9.9318 
  50   1.0000      -0.357285        -9.7222 
  51   1.0000      -0.351881        -9.5752 
  52   1.0000      -0.338977        -9.2240 
  53   1.0000      -0.332984        -9.0610 
  54   1.0000      -0.330108        -8.9827 
  55   1.0000      -0.328734        -8.9453 
  56   1.0000      -0.328096        -8.9279 
  57   1.0000      -0.324506        -8.8303 
  58   1.0000      -0.320867        -8.7312 
  59   1.0000      -0.280012        -7.6195 
  60   1.0000      -0.276354        -7.5200 
  61   1.0000      -0.274196        -7.4613 
  62   1.0000      -0.258860        -7.0439 
  63   1.0000      -0.222978        -6.0675 
  64   0.0000      -0.084399        -2.2966 
  65   0.0000      -0.039379        -1.0716 
  66   0.0000       0.026944         0.7332 
  67   0.0000       0.040802         1.1103 
  68   0.0000       0.049665         1.3515 
  69   0.0000       0.059060         1.6071 
  70   0.0000       0.061032         1.6608 
  71   0.0000       0.063069         1.7162 
  72   0.0000       0.082898         2.2558 
  73   0.0000       0.086612         2.3568 
  74   0.0000       0.089354         2.4315 
  75   0.0000       0.091817         2.4985 
  76   0.0000       0.093909         2.5554 
  77   0.0000       0.096288         2.6201 
  78   0.0000       0.101079         2.7505 
  79   0.0000       0.104072         2.8319 
  80   0.0000       0.120065         3.2671 
  81   0.0000       0.125969         3.4278 
  82   0.0000       0.130331         3.5465 
  83   0.0000       0.145835         3.9684 
  84   0.0000       0.149045         4.0557 
  85   0.0000       0.151882         4.1329 
  86   0.0000       0.160387         4.3643 
  87   0.0000       0.160956         4.3798 
  88   0.0000       0.161910         4.4058 
  89   0.0000       0.170854         4.6492 
  90   0.0000       0.171097         4.6558 
  91   0.0000       0.181189         4.9304 
  92   0.0000       0.203079         5.5261 
  93   0.0000       0.205246         5.5850 
  94   0.0000       0.212903         5.7934 
  95   0.0000       0.218245         5.9387 
  96   0.0000       0.223423         6.0797 
  97   0.0000       0.243892         6.6366 
  98   0.0000       0.249688         6.7944 
  99   0.0000       0.263054         7.1581 
 100   0.0000       0.270669         7.3653 
 101   0.0000       0.292311         7.9542 
 102   0.0000       0.310365         8.4455 
 103   0.0000       0.326361         8.8807 
 104   0.0000       0.328324         8.9342 
 105   0.0000       0.349495         9.5102 
 106   0.0000       0.362141         9.8544 
 107   0.0000       0.367121         9.9899 
 108   0.0000       0.391820        10.6620 
 109   0.0000       0.409377        11.1397 
 110   0.0000       0.411246        11.1906 
 111   0.0000       0.412600        11.2274 
 112   0.0000       0.418576        11.3900 
 113   0.0000       0.424548        11.5525 
 114   0.0000       0.438413        11.9298 
 115   0.0000       0.444297        12.0899 
 116   0.0000       0.453699        12.3458 
 117   0.0000       0.464427        12.6377 
 118   0.0000       0.467253        12.7146 
 119   0.0000       0.471773        12.8376 
 120   0.0000       0.479570        13.0498 
 121   0.0000       0.483028        13.1439 
 122   0.0000       0.489769        13.3273 
 123   0.0000       0.504348        13.7240 
 124   0.0000       0.505271        13.7491 
 125   0.0000       0.506543        13.7837 
 126   0.0000       0.519418        14.1341 
 127   0.0000       0.525845        14.3090 
 128   0.0000       0.530560        14.4373 
 129   0.0000       0.541108        14.7243 
 130   0.0000       0.551024        14.9941 
 131   0.0000       0.552468        15.0334 
 132   0.0000       0.561248        15.2723 
 133   0.0000       0.568172        15.4607 
 134   0.0000       0.589992        16.0545 
 135   0.0000       0.590343        16.0641 
 136   0.0000       0.597539        16.2599 
 137   0.0000       0.604662        16.4537 
 138   0.0000       0.606085        16.4924 
 139   0.0000       0.607504        16.5310 
 140   0.0000       0.618061        16.8183 
 141   0.0000       0.626625        17.0513 
 142   0.0000       0.638067        17.3627 
 143   0.0000       0.640680        17.4338 
 144   0.0000       0.645200        17.5568 
 145   0.0000       0.646312        17.5871 
 146   0.0000       0.651060        17.7162 
 147   0.0000       0.653411        17.7802 
 148   0.0000       0.656286        17.8584 
 149   0.0000       0.659831        17.9549 
 150   0.0000       0.661122        17.9900 
 151   0.0000       0.665352        18.1051 
 152   0.0000       0.667700        18.1690 
 153   0.0000       0.669320        18.2131 
 154   0.0000       0.680821        18.5261 
 155   0.0000       0.683294        18.5934 
 156   0.0000       0.687949        18.7201 
 157   0.0000       0.690918        18.8008 
 158   0.0000       0.691594        18.8192 
 159   0.0000       0.697242        18.9729 
 160   0.0000       0.707346        19.2479 
 161   0.0000       0.719791        19.5865 
 162   0.0000       0.720545        19.6070 
 163   0.0000       0.728715        19.8294 
 164   0.0000       0.736484        20.0408 
 165   0.0000       0.737504        20.0685 
 166   0.0000       0.738943        20.1077 
 167   0.0000       0.747771        20.3479 
 168   0.0000       0.759256        20.6604 
 169   0.0000       0.769641        20.9430 
 170   0.0000       0.777120        21.1465 
 171   0.0000       0.782568        21.2948 
 172   0.0000       0.802066        21.8253 
 173   0.0000       0.820512        22.3273 
 174   0.0000       0.833118        22.6703 
 175   0.0000       0.834617        22.7111 
 176   0.0000       0.840716        22.8770 
 177   0.0000       0.852933        23.2095 
 178   0.0000       0.875102        23.8127 
 179   0.0000       0.880243        23.9526 
 180   0.0000       0.887319        24.1452 
 181   0.0000       0.917195        24.9582 
 182   0.0000       0.929206        25.2850 
 183   0.0000       0.946890        25.7662 
 184   0.0000       0.954783        25.9810 
 185   0.0000       0.985707        26.8225 
 186   0.0000       0.986472        26.8433 
 187   0.0000       0.992231        27.0000 
 188   0.0000       1.001140        27.2424 
 189   0.0000       1.013685        27.5838 
 190   0.0000       1.038853        28.2686 
 191   0.0000       1.047439        28.5023 
 192   0.0000       1.049695        28.5637 
 193   0.0000       1.050424        28.5835 
 194   0.0000       1.055143        28.7119 
 195   0.0000       1.066270        29.0147 
 196   0.0000       1.082674        29.4611 
 197   0.0000       1.086170        29.5562 
 198   0.0000       1.100909        29.9573 
 199   0.0000       1.144815        31.1520 
 200   0.0000       1.157169        31.4882 
 201   0.0000       1.166304        31.7367 
 202   0.0000       1.193657        32.4811 
 203   0.0000       1.203669        32.7535 
 204   0.0000       1.208170        32.8760 
 205   0.0000       1.208799        32.8931 
 206   0.0000       1.214276        33.0421 
 207   0.0000       1.218449        33.1557 
 208   0.0000       1.221951        33.2510 
 209   0.0000       1.229591        33.4589 
 210   0.0000       1.236321        33.6420 
 211   0.0000       1.257522        34.2189 
 212   0.0000       1.284416        34.9507 
 213   0.0000       1.289144        35.0794 
 214   0.0000       1.304752        35.5041 
 215   0.0000       1.308487        35.6057 
 216   0.0000       1.324068        36.0297 
 217   0.0000       1.330001        36.1912 
 218   0.0000       1.336178        36.3592 
 219   0.0000       1.349487        36.7214 
 220   0.0000       1.356261        36.9057 
 221   0.0000       1.373753        37.3817 
 222   0.0000       1.384517        37.6746 
 223   0.0000       1.393563        37.9208 
 224   0.0000       1.402685        38.1690 
 225   0.0000       1.411034        38.3962 
 226   0.0000       1.417958        38.5846 
 227   0.0000       1.424703        38.7681 
 228   0.0000       1.426030        38.8042 
 229   0.0000       1.430122        38.9156 
 230   0.0000       1.452256        39.5179 
 231   0.0000       1.453838        39.5609 
 232   0.0000       1.463986        39.8371 
 233   0.0000       1.469509        39.9874 
 234   0.0000       1.473473        40.0952 
 235   0.0000       1.484950        40.4075 
 236   0.0000       1.495128        40.6845 
 237   0.0000       1.521938        41.4140 
 238   0.0000       1.533404        41.7260 
 239   0.0000       1.538631        41.8683 
 240   0.0000       1.559644        42.4401 
 241   0.0000       1.562541        42.5189 
 242   0.0000       1.583163        43.0801 
 243   0.0000       1.586938        43.1828 
 244   0.0000       1.587740        43.2046 
 245   0.0000       1.601181        43.5704 
 246   0.0000       1.616754        43.9941 
 247   0.0000       1.622451        44.1491 
 248   0.0000       1.628247        44.3069 
 249   0.0000       1.629480        44.3404 
 250   0.0000       1.634160        44.4678 
 251   0.0000       1.639685        44.6181 
 252   0.0000       1.645943        44.7884 
 253   0.0000       1.652039        44.9543 
 254   0.0000       1.653416        44.9917 
 255   0.0000       1.661697        45.2171 
 256   0.0000       1.671898        45.4947 
 257   0.0000       1.674333        45.5609 
 258   0.0000       1.676399        45.6171 
 259   0.0000       1.685674        45.8695 
 260   0.0000       1.688497        45.9463 
 261   0.0000       1.696115        46.1536 
 262   0.0000       1.699862        46.2556 
 263   0.0000       1.703084        46.3433 
 264   0.0000       1.705134        46.3990 
 265   0.0000       1.711998        46.5858 
 266   0.0000       1.716803        46.7166 
 267   0.0000       1.726240        46.9734 
 268   0.0000       1.744516        47.4707 
 269   0.0000       1.754036        47.7297 
 270   0.0000       1.756267        47.7905 
 271   0.0000       1.764367        48.0109 
 272   0.0000       1.782133        48.4943 
 273   0.0000       1.785850        48.5954 
 274   0.0000       1.792025        48.7635 
 275   0.0000       1.797235        48.9053 
 276   0.0000       1.805210        49.1223 
 277   0.0000       1.819282        49.5052 
 278   0.0000       1.822734        49.5991 
 279   0.0000       1.824125        49.6370 
 280   0.0000       1.831362        49.8339 
 281   0.0000       1.857458        50.5440 
 282   0.0000       1.876320        51.0573 
 283   0.0000       1.881632        51.2018 
 284   0.0000       1.890285        51.4373 
 285   0.0000       1.897425        51.6316 
 286   0.0000       1.916220        52.1430 
 287   0.0000       1.916591        52.1531 
 288   0.0000       1.924948        52.3805 
 289   0.0000       1.929858        52.5141 
 290   0.0000       1.953135        53.1475 
 291   0.0000       1.976054        53.7712 
 292   0.0000       1.996474        54.3268 
 293   0.0000       1.998980        54.3950 
 294   0.0000       2.012229        54.7555 
 295   0.0000       2.025335        55.1122 
 296   0.0000       2.045011        55.6476 
 297   0.0000       2.054302        55.9004 
 298   0.0000       2.071152        56.3589 
 299   0.0000       2.078194        56.5505 
 300   0.0000       2.081331        56.6359 
 301   0.0000       2.086547        56.7778 
 302   0.0000       2.111811        57.4653 
 303   0.0000       2.128295        57.9138 
 304   0.0000       2.130293        57.9682 
 305   0.0000       2.131067        57.9893 
 306   0.0000       2.157331        58.7040 
 307   0.0000       2.158799        58.7439 
 308   0.0000       2.189544        59.5805 
 309   0.0000       2.199653        59.8556 
 310   0.0000       2.210686        60.1558 
 311   0.0000       2.213568        60.2342 
 312   0.0000       2.220140        60.4131 
 313   0.0000       2.229141        60.6580 
 314   0.0000       2.254050        61.3358 
 315   0.0000       2.261077        61.5270 
 316   0.0000       2.282746        62.1167 
 317   0.0000       2.291698        62.3603 
 318   0.0000       2.297736        62.5246 
 319   0.0000       2.305654        62.7400 
 320   0.0000       2.319643        63.1207 
 321   0.0000       2.328559        63.3633 
 322   0.0000       2.331936        63.4552 
 323   0.0000       2.336463        63.5784 
 324   0.0000       2.377077        64.6836 
 325   0.0000       2.385268        64.9064 
 326   0.0000       2.408339        65.5342 
 327   0.0000       2.410841        65.6023 
 328   0.0000       2.412282        65.6415 
 329   0.0000       2.412896        65.6582 
 330   0.0000       2.423918        65.9582 
 331   0.0000       2.424554        65.9755 
 332   0.0000       2.442493        66.4636 
 333   0.0000       2.485713        67.6397 
 334   0.0000       2.500996        68.0556 
 335   0.0000       2.502771        68.1039 
 336   0.0000       2.535091        68.9833 
 337   0.0000       2.546030        69.2810 
 338   0.0000       2.559041        69.6350 
 339   0.0000       2.593461        70.5717 
 340   0.0000       2.601233        70.7832 
 341   0.0000       2.626499        71.4707 
 342   0.0000       2.642312        71.9010 
 343   0.0000       2.663467        72.4766 
 344   0.0000       2.681505        72.9675 
 345   0.0000       2.712360        73.8071 
 346   0.0000       2.721457        74.0546 
 347   0.0000       2.754998        74.9673 
 348   0.0000       2.777702        75.5851 
 349   0.0000       2.825253        76.8790 
 350   0.0000       2.846377        77.4538 
 351   0.0000       2.873998        78.2055 
 352   0.0000       2.929044        79.7033 
 353   0.0000       3.009341        81.8883 
 354   0.0000       3.191369        86.8416 
 355   0.0000       3.204535        87.1998 
 356   0.0000       3.397831        92.4597 

                    ********************************
                    * MULLIKEN POPULATION ANALYSIS *
                    ********************************

--------------------------------------------
MULLIKEN ATOMIC CHARGES AND SPIN POPULATIONS
--------------------------------------------
   0 C :   -0.581342    0.098900
   1 C :    0.607690   -0.058132
   2 C :    0.601438    0.026039
   3 C :   -0.052109    0.226139
   4 C :    0.077635   -0.165521
   5 C :   -0.007583    0.216191
   6 C :   -0.027565   -0.107384
   7 C :   -0.079763    0.234971
   8 C :    0.031101   -0.116365
   9 H :   -0.047879   -0.008855
  10 H :   -0.048421    0.004122
  11 C :   -0.099776    0.706748
  12 H :   -0.018499   -0.030072
  13 C :    0.031833   -0.048352
  14 H :    0.029299    0.031756
  15 H :    0.029645    0.031658
  16 C :   -0.040283    0.002199
  17 H :    0.012974    0.000509
  18 H :    0.013389    0.000496
  19 C :    0.004969   -0.000146
  20 H :    0.017496    0.000152
  21 H :    0.017273    0.000152
  22 C :    0.040345   -0.018514
  23 H :    0.033776    0.010089
  24 H :    0.033406    0.010011
  25 C :   -0.039176    0.000851
  26 H :    0.017188    0.000182
  27 H :    0.017011    0.000175
  28 C :   -0.023543    0.000026
  29 H :    0.006487    0.000056
  30 H :    0.006150    0.000056
  31 C :    0.003282   -0.000079
  32 H :    0.016941    0.000023
  33 H :    0.017148    0.000023
  34 C :   -0.580316   -0.045669
  35 H :   -0.024412   -0.003928
  36 H :   -0.023084    0.001704
  37 H :    0.015093   -0.000204
  38 H :    0.012182   -0.000006
Sum of atomic charges         :   -0.0000000
Sum of atomic spin populations:    1.0000000

-----------------------------------------------------
MULLIKEN REDUCED ORBITAL CHARGES AND SPIN POPULATIONS
-----------------------------------------------------
CHARGE
  0 C s       :     3.673270  s :     3.673270
      pz      :     1.013272  p :     2.879120
      px      :     0.851046
      py      :     1.014803
      dz2     :     0.001972  d :     0.028952
      dxz     :     0.010556
      dyz     :     0.000023
      dx2y2   :     0.005808
      dxy     :     0.010593
  1 C s       :     3.127259  s :     3.127259
      pz      :     0.961780  p :     2.209761
      px      :     0.309793
      py      :     0.938188
      dz2     :     0.003575  d :     0.055291
      dxz     :     0.022140
      dyz     :     0.000173
      dx2y2   :     0.009417
      dxy     :     0.019986
  2 C s       :     3.124412  s :     3.124412
      pz      :     0.962393  p :     2.219761
      px      :     0.322122
      py      :     0.935246
      dz2     :     0.003544  d :     0.054390
      dxz     :     0.021367
      dyz     :     0.000177
      dx2y2   :     0.009203
      dxy     :     0.020099
  3 C s       :     3.241273  s :     3.241273
      pz      :     0.995557  p :     2.723208
      px      :     0.801209
      py      :     0.926442
      dz2     :     0.004779  d :     0.087627
      dxz     :     0.012583
      dyz     :     0.013263
      dx2y2   :     0.029283
      dxy     :     0.027720
  4 C s       :     3.131865  s :     3.131865
      pz      :     0.966528  p :     2.706066
      px      :     0.925595
      py      :     0.813943
      dz2     :     0.004741  d :     0.084433
      dxz     :     0.012610
      dyz     :     0.014267
      dx2y2   :     0.026451
      dxy     :     0.026363
  5 C s       :     3.219699  s :     3.219699
      pz      :     0.983028  p :     2.723875
      px      :     0.905068
      py      :     0.835779
      dz2     :     0.003394  d :     0.064009
      dxz     :     0.010543
      dyz     :     0.006965
      dx2y2   :     0.019407
      dxy     :     0.023701
  6 C s       :     3.222927  s :     3.222927
      pz      :     0.995041  p :     2.715948
      px      :     0.797702
      py      :     0.923205
      dz2     :     0.004699  d :     0.088689
      dxz     :     0.012630
      dyz     :     0.013790
      dx2y2   :     0.030156
      dxy     :     0.027414
  7 C s       :     3.169565  s :     3.169565
      pz      :     0.957022  p :     2.826288
      px      :     0.929681
      py      :     0.939585
      dz2     :     0.004694  d :     0.083910
      dxz     :     0.014429
      dyz     :     0.012163
      dx2y2   :     0.024661
      dxy     :     0.027963
  8 C s       :     3.208174  s :     3.208174
      pz      :     0.989662  p :     2.696056
      px      :     0.884453
      py      :     0.821942
      dz2     :     0.003307  d :     0.064669
      dxz     :     0.011569
      dyz     :     0.006629
      dx2y2   :     0.019033
      dxy     :     0.024131
  9 H s       :     1.019613  s :     1.019613
      pz      :     0.006208  p :     0.028266
      px      :     0.008430
      py      :     0.013628
 10 H s       :     1.019932  s :     1.019932
      pz      :     0.006049  p :     0.028489
      px      :     0.008471
      py      :     0.013969
 11 C s       :     3.228665  s :     3.228665
      pz      :     0.971963  p :     2.810972
      px      :     0.905408
      py      :     0.933601
      dz2     :     0.003411  d :     0.060139
      dxz     :     0.003981
      dyz     :     0.012364
      dx2y2   :     0.023195
      dxy     :     0.017187
 12 H s       :     0.989492  s :     0.989492
      pz      :     0.006126  p :     0.029008
      px      :     0.018552
      py      :     0.004330
 13 C s       :     3.023988  s :     3.023988
      pz      :     0.957214  p :     2.875864
      px      :     0.981964
      py      :     0.936686
      dz2     :     0.008345  d :     0.068315
      dxz     :     0.018290
      dyz     :     0.009702
      dx2y2   :     0.015804
      dxy     :     0.016173
 14 H s       :     0.942983  s :     0.942983
      pz      :     0.013345  p :     0.027717
      px      :     0.009565
      py      :     0.004807
 15 H s       :     0.942648  s :     0.942648
      pz      :     0.013088  p :     0.027707
      px      :     0.009808
      py      :     0.004812
 16 C s       :     3.075431  s :     3.075431
      pz      :     0.970877  p :     2.895472
      px      :     0.976643
      py      :     0.947952
      dz2     :     0.008998  d :     0.069380
      dxz     :     0.018875
      dyz     :     0.008985
      dx2y2   :     0.014918
      dxy     :     0.017605
 17 H s       :     0.959726  s :     0.959726
      pz      :     0.013206  p :     0.027300
      px      :     0.009431
      py      :     0.004664
 18 H s       :     0.959312  s :     0.959312
      pz      :     0.012969  p :     0.027299
      px      :     0.009663
      py      :     0.004668
 19 C s       :     3.013945  s :     3.013945
      pz      :     0.986298  p :     2.932996
      px      :     0.969797
      py      :     0.976901
      dz2     :     0.007427  d :     0.048089
      dxz     :     0.013393
      dyz     :     0.005754
      dx2y2   :     0.007880
      dxy     :     0.013636
 20 H s       :     0.954093  s :     0.954093
      pz      :     0.013078  p :     0.028412
      px      :     0.009934
      py      :     0.005400
 21 H s       :     0.954311  s :     0.954311
      pz      :     0.013316  p :     0.028416
      px      :     0.009709
      py      :     0.005391
 22 C s       :     2.965822  s :     2.965822
      pz      :     0.972104  p :     2.926612
      px      :     1.024977
      py      :     0.929532
      dz2     :     0.008862  d :     0.067221
      dxz     :     0.017393
      dyz     :     0.009618
      dx2y2   :     0.015348
      dxy     :     0.016000
 23 H s       :     0.938105  s :     0.938105
      pz      :     0.013163  p :     0.028119
      px      :     0.010322
      py      :     0.004634
 24 H s       :     0.938465  s :     0.938465
      pz      :     0.013337  p :     0.028129
      px      :     0.010158
      py      :     0.004634
 25 C s       :     3.072322  s :     3.072322
      pz      :     0.960775  p :     2.898462
      px      :     0.986877
      py      :     0.950811
      dz2     :     0.008653  d :     0.068392
      dxz     :     0.019765
      dyz     :     0.008848
      dx2y2   :     0.014053
      dxy     :     0.017073
 26 H s       :     0.955504  s :     0.955504
      pz      :     0.012939  p :     0.027307
      px      :     0.009658
      py      :     0.004710
 27 H s       :     0.955675  s :     0.955675
      pz      :     0.013115  p :     0.027314
      px      :     0.009485
      py      :     0.004714
 28 C s       :     3.069857  s :     3.069857
      pz      :     0.964156  p :     2.884277
      px      :     0.975831
      py      :     0.944290
      dz2     :     0.008900  d :     0.069409
      dxz     :     0.019376
[...]
------------------------------------------------------------------------------

Input orbitals are from        ... g-tensor.gbw
Input Perturbation             ... g-tensor.pin.tmp
Wavefunction output            ... g-tensor.pout.tmp
Perturbation mode              ... Imaginary perturbation
Solver                         ... POPLE
Max. number of iterations      ... 64
Convergence tolerance          ... 1.000e-06
Integral handling              ... Direct
Number of perturbations        ... 3
Number of operators            ... 2
Orbital ranges used for CP-SCF:
 Operator 0:  Orbitals   0... 64  to  65...356
 Operator 1:  Orbitals   0... 63  to  64...356
DFT calculation                         ... on
Variables per vector in CP-SCF ... 37732
Number of vectors sought       ... 3
     CP-SCF ITERATION   0: 
     CP-SCF ITERATION   1:      0.000000435192

Forming final perturbed densities           ... done
Transforming perturbed density to AO basis  ... done

Using FinalGrid as integration grid:         ... finished setting up the grid
Time for grid setup =    0.116 sec

 Raw HFC matrix (all values in MHz): 
 ------------------------------
                -0.1049               0.0050               0.0006
                 0.0051               0.3750              -0.0650
                 0.0006              -0.0649              -0.1188

 A(FC)           0.0504               0.0504               0.0504
 A(SD)          -0.1552              -0.1777               0.3330
 A(ORB+DIA)     -0.0000              -0.0000               0.0000    A(PC) =  -0.0000
 A(ORB)         -0.0000               0.0000               0.0001    A(PC) =   0.0000
 A(DIA)         -0.0000              -0.0000              -0.0000    A(PC) =  -0.0000
             ----------           ----------           ----------
 A(Tot)         -0.1048              -0.1273               0.3834    A(iso)=    0.0504
 Orientation: 
  X           0.9985081           -0.0536603           -0.0101076
  Y          -0.0031273            0.1286059           -0.9916908
  Z           0.0545143            0.9902429            0.1282462

Notes:  (1) The A matrix conforms to the "SAI" spin Hamiltonian convention.
        (2) Tensor is right-handed.

 -----------------------------------------------------------
 Nucleus  33H : A:ISTP=    1 I=  0.5 P=533.5514 MHz/au**3
                Q:ISTP=    2 I=  1.0 Q=  0.0029 barn     
 -----------------------------------------------------------
 Solving for nuclear perturbation:
Forming RHS of the CP-SCF equations         ... 
Using LibInt in CPSCF-CP

Calculating nucleus orbit integrals         ... done

------------------------------------------------------------------------------
                           ORCA CP-SCF CALCULATION
------------------------------------------------------------------------------

Input orbitals are from        ... g-tensor.gbw
Input Perturbation             ... g-tensor.pin.tmp
Wavefunction output            ... g-tensor.pout.tmp
Perturbation mode              ... Imaginary perturbation
Solver                         ... POPLE
Max. number of iterations      ... 64
Convergence tolerance          ... 1.000e-06
Integral handling              ... Direct
Number of perturbations        ... 3
Number of operators            ... 2
Orbital ranges used for CP-SCF:
 Operator 0:  Orbitals   0... 64  to  65...356
 Operator 1:  Orbitals   0... 63  to  64...356
DFT calculation                         ... on
Variables per vector in CP-SCF ... 37732
Number of vectors sought       ... 3
     CP-SCF ITERATION   0: 
     CP-SCF ITERATION   1:      0.000000437165

Forming final perturbed densities           ... done
Transforming perturbed density to AO basis  ... done

Using FinalGrid as integration grid:         ... finished setting up the grid
Time for grid setup =    0.112 sec

 Raw HFC matrix (all values in MHz): 
 ------------------------------
                -0.1041               0.0041              -0.0004
                 0.0042               0.3758               0.0655
                -0.0004               0.0655              -0.1180

 A(FC)           0.0512               0.0512               0.0512
 A(SD)          -0.1553              -0.1778               0.3331
 A(ORB+DIA)     -0.0000              -0.0000               0.0000    A(PC) =  -0.0000
 A(ORB)         -0.0000               0.0000               0.0001    A(PC) =   0.0000
 A(DIA)         -0.0000              -0.0000              -0.0000    A(PC) =  -0.0000
             ----------           ----------           ----------
 A(Tot)         -0.1041              -0.1265               0.3844    A(iso)=    0.0512
 Orientation: 
  X           0.9991557           -0.0402470            0.0082548
  Y          -0.0029783            0.1294403            0.9915827
  Z          -0.0409768           -0.9907701            0.1292111

Notes:  (1) The A matrix conforms to the "SAI" spin Hamiltonian convention.
        (2) Tensor is right-handed.

 -----------------------------------------------------------
 Nucleus  35H : A:ISTP=    1 I=  0.5 P=533.5514 MHz/au**3
                Q:ISTP=    2 I=  1.0 Q=  0.0029 barn     
 -----------------------------------------------------------
 Solving for nuclear perturbation:
Forming RHS of the CP-SCF equations         ... 
Using LibInt in CPSCF-CP

Calculating nucleus orbit integrals         ... done

------------------------------------------------------------------------------
                           ORCA CP-SCF CALCULATION
------------------------------------------------------------------------------

Input orbitals are from        ... g-tensor.gbw
Input Perturbation             ... g-tensor.pin.tmp
Wavefunction output            ... g-tensor.pout.tmp
Perturbation mode              ... Imaginary perturbation
Solver                         ... POPLE
Max. number of iterations      ... 64
Convergence tolerance          ... 1.000e-06
Integral handling              ... Direct
Number of perturbations        ... 3
Number of operators            ... 2
Orbital ranges used for CP-SCF:
 Operator 0:  Orbitals   0... 64  to  65...356
 Operator 1:  Orbitals   0... 63  to  64...356
DFT calculation                         ... on
Variables per vector in CP-SCF ... 37732
Number of vectors sought       ... 3
     CP-SCF ITERATION   0: 
     CP-SCF ITERATION   1:      0.000003438258
     CP-SCF ITERATION   2:      0.000000937647

Forming final perturbed densities           ... done
Transforming perturbed density to AO basis  ... done

Using FinalGrid as integration grid:         ... finished setting up the grid
Time for grid setup =    0.134 sec

 Raw HFC matrix (all values in MHz): 
 ------------------------------
                -2.2757              -1.0373               0.1011
                -1.0345             -10.3342              -0.0119
                 0.1011              -0.0119              -7.5566

 A(FC)          -6.7230              -6.7230              -6.7230
 A(SD)           4.5808              -0.8362              -3.7447
 A(ORB+DIA)     -0.0006               0.0007               0.0025    A(PC) =   0.0008
 A(ORB)          0.0000               0.0002               0.0023    A(PC) =   0.0008
 A(DIA)         -0.0006               0.0004               0.0002    A(PC) =  -0.0000
             ----------           ----------           ----------
 A(Tot)         -2.1428              -7.5585             -10.4652    A(iso)=   -6.7221
 Orientation: 
  X          -0.9918994           -0.0186131            0.1256545
  Y           0.1256265            0.0026719            0.9920740
  Z          -0.0188013            0.9998232           -0.0003120

Notes:  (1) The A matrix conforms to the "SAI" spin Hamiltonian convention.
        (2) Tensor is right-handed.

 -----------------------------------------------------------
 Nucleus  36H : A:ISTP=    1 I=  0.5 P=533.5514 MHz/au**3
                Q:ISTP=    2 I=  1.0 Q=  0.0029 barn     
 -----------------------------------------------------------
 Solving for nuclear perturbation:
Forming RHS of the CP-SCF equations         ... 
Using LibInt in CPSCF-CP

Calculating nucleus orbit integrals         ... done

------------------------------------------------------------------------------
                           ORCA CP-SCF CALCULATION
------------------------------------------------------------------------------

Input orbitals are from        ... g-tensor.gbw
Input Perturbation             ... g-tensor.pin.tmp
Wavefunction output            ... g-tensor.pout.tmp
Perturbation mode              ... Imaginary perturbation
Solver                         ... POPLE
Max. number of iterations      ... 64
Convergence tolerance          ... 1.000e-06
Integral handling              ... Direct
Number of perturbations        ... 3
Number of operators            ... 2
Orbital ranges used for CP-SCF:
 Operator 0:  Orbitals   0... 64  to  65...356
 Operator 1:  Orbitals   0... 63  to  64...356
DFT calculation                         ... on
Variables per vector in CP-SCF ... 37732
Number of vectors sought       ... 3
     CP-SCF ITERATION   0: 
     CP-SCF ITERATION   1:      0.000002346664
     CP-SCF ITERATION   2:      0.000000847232

Forming final perturbed densities           ... done
Transforming perturbed density to AO basis  ... done

Using FinalGrid as integration grid:         ... finished setting up the grid
Time for grid setup =    0.123 sec

 Raw HFC matrix (all values in MHz): 
 ------------------------------
                 1.8503               0.1626              -0.0155
                 0.1626               4.2341              -0.0009
                -0.0155              -0.0009               2.7211

 A(FC)           2.9356               2.9356               2.9356
 A(SD)          -1.0967              -0.2139               1.3106
 A(ORB+DIA)      0.0002              -0.0003              -0.0010    A(PC) =  -0.0004
 A(ORB)          0.0000              -0.0001              -0.0009    A(PC) =  -0.0003
 A(DIA)          0.0002              -0.0002              -0.0001    A(PC) =  -0.0001
             ----------           ----------           ----------
 A(Tot)          1.8390               2.7214               4.2451    A(iso)=    2.9352
 Orientation: 
  X           0.9975516           -0.0173242           -0.0677552
  Y          -0.0677226            0.0024585           -0.9977012
  Z           0.0174509            0.9998469            0.0012792

Notes:  (1) The A matrix conforms to the "SAI" spin Hamiltonian convention.
        (2) Tensor is right-handed.

 -----------------------------------------------------------
 Nucleus  37H : A:ISTP=    1 I=  0.5 P=533.5514 MHz/au**3
                Q:ISTP=    2 I=  1.0 Q=  0.0029 barn     
 -----------------------------------------------------------
 Solving for nuclear perturbation:
Forming RHS of the CP-SCF equations         ... 
Using LibInt in CPSCF-CP

Calculating nucleus orbit integrals         ... done

------------------------------------------------------------------------------
                           ORCA CP-SCF CALCULATION
------------------------------------------------------------------------------

Input orbitals are from        ... g-tensor.gbw
Input Perturbation             ... g-tensor.pin.tmp
Wavefunction output            ... g-tensor.pout.tmp
Perturbation mode              ... Imaginary perturbation
Solver                         ... POPLE
Max. number of iterations      ... 64
Convergence tolerance          ... 1.000e-06
Integral handling              ... Direct
Number of perturbations        ... 3
Number of operators            ... 2
Orbital ranges used for CP-SCF:
 Operator 0:  Orbitals   0... 64  to  65...356
 Operator 1:  Orbitals   0... 63  to  64...356
DFT calculation                         ... on
Variables per vector in CP-SCF ... 37732
Number of vectors sought       ... 3
     CP-SCF ITERATION   0: 
     CP-SCF ITERATION   1:      0.000000420122

Forming final perturbed densities           ... done
Transforming perturbed density to AO basis  ... done

Using FinalGrid as integration grid:         ... finished setting up the grid
Time for grid setup =    0.119 sec

 Raw HFC matrix (all values in MHz): 
 ------------------------------
                -0.7802               0.2401              -0.0001
                 0.2399               0.7241              -0.0009
                -0.0001              -0.0009              -0.7967

 A(FC)          -0.2844              -0.2844              -0.2844
 A(SD)           1.0456              -0.5124              -0.5332
 A(ORB+DIA)      0.0003               0.0001              -0.0000    A(PC) =   0.0001
 A(ORB)          0.0004               0.0000              -0.0001    A(PC) =   0.0001
 A(DIA)         -0.0001               0.0001               0.0001    A(PC) =   0.0000
             ----------           ----------           ----------
 A(Tot)          0.7615              -0.7967              -0.8175    A(iso)=   -0.2842
 Orientation: 
  X           0.1538659           -0.0020805           -0.9880895
  Y           0.9880916           -0.0002813            0.1538668
  Z          -0.0005981           -0.9999978            0.0020124

Notes:  (1) The A matrix conforms to the "SAI" spin Hamiltonian convention.
        (2) Tensor is right-handed.

 -----------------------------------------------------------
 Nucleus  38H : A:ISTP=    1 I=  0.5 P=533.5514 MHz/au**3
                Q:ISTP=    2 I=  1.0 Q=  0.0029 barn     
 -----------------------------------------------------------
 Solving for nuclear perturbation:
Forming RHS of the CP-SCF equations         ... 
Using LibInt in CPSCF-CP

Calculating nucleus orbit integrals         ... done

------------------------------------------------------------------------------
                           ORCA CP-SCF CALCULATION
------------------------------------------------------------------------------

Input orbitals are from        ... g-tensor.gbw
Input Perturbation             ... g-tensor.pin.tmp
Wavefunction output            ... g-tensor.pout.tmp
Perturbation mode              ... Imaginary perturbation
Solver                         ... POPLE
Max. number of iterations      ... 64
Convergence tolerance          ... 1.000e-06
Integral handling              ... Direct
Number of perturbations        ... 3
Number of operators            ... 2
Orbital ranges used for CP-SCF:
 Operator 0:  Orbitals   0... 64  to  65...356
 Operator 1:  Orbitals   0... 63  to  64...356
DFT calculation                         ... on
Variables per vector in CP-SCF ... 37732
Number of vectors sought       ... 3
     CP-SCF ITERATION   0: 
     CP-SCF ITERATION   1:      0.000000432881

Forming final perturbed densities           ... done
Transforming perturbed density to AO basis  ... done

Using FinalGrid as integration grid:         ... finished setting up the grid
Time for grid setup =    0.129 sec

 Raw HFC matrix (all values in MHz): 
 ------------------------------
                -0.1191               0.0640               0.0001
                 0.0641               0.2305               0.0006
                 0.0001               0.0006              -0.1307

 A(FC)          -0.0064              -0.0064              -0.0064
 A(SD)          -0.1240              -0.1243               0.2482
 A(ORB+DIA)     -0.0000              -0.0000               0.0000    A(PC) =  -0.0000
 A(ORB)         -0.0000               0.0000               0.0001    A(PC) =   0.0000
 A(DIA)         -0.0000              -0.0000              -0.0000    A(PC) =  -0.0000
             ----------           ----------           ----------
 A(Tot)         -0.1304              -0.1307               0.2419    A(iso)=   -0.0064
 Orientation: 
  X           0.9844047           -0.0212055            0.1746361
  Y          -0.1745575            0.0055145            0.9846315
  Z          -0.0218427           -0.9997599            0.0017269

Notes:  (1) The A matrix conforms to the "SAI" spin Hamiltonian convention.
        (2) Tensor is right-handed.


------------------------------------------------------------------------------- 
----------------------------------------------------------------------------
                           ORCA EULER ANGLE PROGRAM
----------------------------------------------------------------------------

Only g-tensor available        -->  using g-tensor as reference tensor

Reference tensor               ...  g

g-tensor ordering              ...  |g_min> --> |gx>
                                    |g_mid> --> |gy>
                                    |g_max> --> |gz>

A- and EFG-tensor ordering     ...  the axes |Ax>, |Qx>, |Ay>, etc. are assigned
                                    such that the Euler rotation is minimal. You
                                    can find the respective eigenvalues as Ax,
                                    EFGx, Ay, etc. in the tables below.
                                    The relation of |Ax>, |Ay>,  etc. to Amin, Amid, etc.
                                    (as printed in the ORCA EPR/NMR CALCULATION Output)
                                    is obtained in the detailed printout.

Euler rotation around          ...  z - y - z
   First rotation              -->  by alpha around z
   Second rotation             -->  by beta around y'
   Third rotation              -->  by gamma around z''
   Positive / Negative angle   -->  clockwise / counterclockwise rotation

Plot EFG-tensors                    (-)
Plot HFC-tensors                    (-)
Detailed Printout                   (-)

-------------------------------------------------------------------------
          Euler rotation of hyperfine tensor to g-tensor
-------------------------------------------------------------------------

-------------------------------------------------------------------
 Atom  |   Alpha    Beta    Gamma   |   Ax       Ay       Az 
       |          [degrees]         |           [MHz]         
-------------------------------------------------------------------
  9H      -90.0     25.2     90.0     -15.66    -6.77   -19.04
 10H      -90.0     28.0     90.0       3.75     4.50     9.18
 12H       90.2     24.2    -90.2     -46.34   -17.45   -71.33
 14H      -79.4     24.8     59.0      57.42    67.06    58.72
 15H     -100.6     24.7    120.8      57.24    66.88    58.55
 17H      -23.8     14.5    -10.8      -3.18    -3.02     3.21
 18H     -156.2     14.6   -169.4      -3.18    -3.02     3.20
 20H      117.2     34.3    -72.2      -0.10     0.03     2.26
 21H      152.8     34.3   -107.9       0.03    -0.10     2.26
 23H     -175.2     27.0    131.4      20.87    20.29    23.99
 24H       -4.8     27.0     49.0      20.71    20.14    23.84
 26H       78.4     38.9    -69.9      -0.98    -0.85     0.99
 27H      101.8     38.9   -109.8      -0.97    -0.84     0.99
 29H      104.7     10.9   -142.2      -0.10    -0.14     0.81
 30H       74.6     10.9    -36.9      -0.10    -0.14     0.81
 32H      102.7     25.9   -106.8      -0.13    -0.10     0.38
 33H       77.2     25.9    -72.6      -0.13    -0.10     0.38
 35H       89.6     18.2    -90.0      -7.56    -2.14   -10.47
 36H       89.7     21.6    -90.0       2.72     1.84     4.25
 37H       90.9     16.6    -90.1      -0.80    -0.82     0.76
 38H       91.6     15.4    -89.7      -0.13    -0.13     0.24
-------------------------------------------------------------------


Timings for individual modules:

Sum of individual times         ...     1374.254 sec (=  22.904 min)
GTO integral calculation        ...        2.670 sec (=   0.044 min)   0.2 %
Spin-Orbit-Coupling Matrices    ...       17.976 sec (=   0.300 min)   1.3 %
SCF iterations                  ...       64.138 sec (=   1.069 min)   4.7 %
EPR/NMR calculation             ...     1289.471 sec (=  21.491 min)  93.8 %
                             ****ORCA TERMINATED NORMALLY****
TOTAL RUN TIME: 0 days 0 hours 22 minutes 56 seconds 110 msec
