
                                 *****************
                                 * O   R   C   A *
                                 *****************

                                            #,                                       
                                            ###                                      
                                            ####                                     
                                            #####                                    
                                            ######                                   
                                           ########,                                 
                                     ,,################,,,,,                         
                               ,,#################################,,                 
                          ,,##########################################,,             
                       ,#########################################, ''#####,          
                    ,#############################################,,   '####,        
                  ,##################################################,,,,####,       
                ,###########''''           ''''###############################       
              ,#####''   ,,,,##########,,,,          '''####'''          '####       
            ,##' ,,,,###########################,,,                        '##       
           ' ,,###''''                  '''############,,,                           
         ,,##''                                '''############,,,,        ,,,,,,###''
      ,#''                                            '''#######################'''  
     '                                                          ''''####''''         
             ,#######,   #######,   ,#######,      ##                                
            ,#'     '#,  ##    ##  ,#'     '#,    #''#        ######   ,####,        
            ##       ##  ##   ,#'  ##            #'  '#       #        #'  '#        
            ##       ##  #######   ##           ,######,      #####,   #    #        
            '#,     ,#'  ##    ##  '#,     ,#' ,#      #,         ##   #,  ,#        
             '#######'   ##     ##  '#######'  #'      '#     #####' # '####'        



                  #######################################################
                  #                        -***-                        #
                  #          Department of theory and spectroscopy      #
                  #    Directorship and core code : Frank Neese         #
                  #        Max Planck Institute fuer Kohlenforschung    #
                  #                Kaiser Wilhelm Platz 1               #
                  #                 D-45470 Muelheim/Ruhr               #
                  #                      Germany                        #
                  #                                                     #
                  #                  All rights reserved                #
                  #                        -***-                        #
                  #######################################################


                         Program Version 5.0.4 -  RELEASE  -


 With contributions from (in alphabetic order):
   Daniel Aravena         : Magnetic Suceptibility
   Michael Atanasov       : Ab Initio Ligand Field Theory (pilot matlab implementation)
   Alexander A. Auer      : GIAO ZORA, VPT2 properties, NMR spectrum
   Ute Becker             : Parallelization
   Giovanni Bistoni       : ED, misc. LED, open-shell LED, HFLD
   Martin Brehm           : Molecular dynamics
   Dmytro Bykov           : SCF Hessian
   Vijay G. Chilkuri      : MRCI spin determinant printing, contributions to CSF-ICE
   Dipayan Datta          : RHF DLPNO-CCSD density
   Achintya Kumar Dutta   : EOM-CC, STEOM-CC
   Dmitry Ganyushin       : Spin-Orbit,Spin-Spin,Magnetic field MRCI
   Miquel Garcia          : C-PCM and meta-GGA Hessian, CC/C-PCM, Gaussian charge scheme
   Yang Guo               : DLPNO-NEVPT2, F12-NEVPT2, CIM, IAO-localization
   Andreas Hansen         : Spin unrestricted coupled pair/coupled cluster methods
   Benjamin Helmich-Paris : MC-RPA, TRAH-SCF, COSX integrals
   Lee Huntington         : MR-EOM, pCC
   Robert Izsak           : Overlap fitted RIJCOSX, COSX-SCS-MP3, EOM
   Marcus Kettner         : VPT2
   Christian Kollmar      : KDIIS, OOCD, Brueckner-CCSD(T), CCSD density, CASPT2, CASPT2-K
   Simone Kossmann        : Meta GGA functionals, TD-DFT gradient, OOMP2, MP2 Hessian
   Martin Krupicka        : Initial AUTO-CI
   Lucas Lang             : DCDCAS
   Marvin Lechner         : AUTO-CI (C++ implementation), FIC-MRCC
   Dagmar Lenk            : GEPOL surface, SMD
   Dimitrios Liakos       : Extrapolation schemes; Compound Job, initial MDCI parallelization
   Dimitrios Manganas     : Further ROCIS development; embedding schemes
   Dimitrios Pantazis     : SARC Basis sets
   Anastasios Papadopoulos: AUTO-CI, single reference methods and gradients
   Taras Petrenko         : DFT Hessian,TD-DFT gradient, ASA, ECA, R-Raman, ABS, FL, XAS/XES, NRVS
   Peter Pinski           : DLPNO-MP2, DLPNO-MP2 Gradient
   Christoph Reimann      : Effective Core Potentials
   Marius Retegan         : Local ZFS, SOC
   Christoph Riplinger    : Optimizer, TS searches, QM/MM, DLPNO-CCSD(T), (RO)-DLPNO pert. Triples
   Tobias Risthaus        : Range-separated hybrids, TD-DFT gradient, RPA, STAB
   Michael Roemelt        : Original ROCIS implementation
   Masaaki Saitow         : Open-shell DLPNO-CCSD energy and density
   Barbara Sandhoefer     : DKH picture change effects
   Avijit Sen             : IP-ROCIS
   Kantharuban Sivalingam : CASSCF convergence, NEVPT2, FIC-MRCI
   Bernardo de Souza      : ESD, SOC TD-DFT
   Georgi Stoychev        : AutoAux, RI-MP2 NMR, DLPNO-MP2 response
   Willem Van den Heuvel  : Paramagnetic NMR
   Boris Wezisla          : Elementary symmetry handling
   Frank Wennmohs         : Technical directorship


 We gratefully acknowledge several colleagues who have allowed us to
 interface, adapt or use parts of their codes:
   Stefan Grimme, W. Hujo, H. Kruse, P. Pracht,  : VdW corrections, initial TS optimization,
                  C. Bannwarth, S. Ehlert          DFT functionals, gCP, sTDA/sTD-DF
   Ed Valeev, F. Pavosevic, A. Kumar             : LibInt (2-el integral package), F12 methods
   Garnet Chan, S. Sharma, J. Yang, R. Olivares  : DMRG
   Ulf Ekstrom                                   : XCFun DFT Library
   Mihaly Kallay                                 : mrcc  (arbitrary order and MRCC methods)
   Jiri Pittner, Ondrej Demel                    : Mk-CCSD
   Frank Weinhold                                : gennbo (NPA and NBO analysis)
   Christopher J. Cramer and Donald G. Truhlar   : smd solvation model
   Lars Goerigk                                  : TD-DFT with DH, B97 family of functionals
   V. Asgeirsson, H. Jonsson                     : NEB implementation
   FAccTs GmbH                                   : IRC, NEB, NEB-TS, DLPNO-Multilevel, CI-OPT
                                                   MM, QMMM, 2- and 3-layer-ONIOM, Crystal-QMMM,
                                                   LR-CPCM, SF, NACMEs, symmetry and pop. for TD-DFT,
                                                   nearIR, NL-DFT gradient (VV10), updates on ESD,
                                                   ML-optimized integration grids
   S Lehtola, MJT Oliveira, MAL Marques          : LibXC Library
   Liviu Ungur et al                             : ANISO software


 Your calculation uses the libint2 library for the computation of 2-el integrals
 For citations please refer to: http://libint.valeyev.net

 Your ORCA version has been built with support for libXC version: 5.1.0
 For citations please refer to: https://tddft.org/programs/libxc/

 This ORCA versions uses:
   CBLAS   interface :  Fast vector & matrix operations
   LAPACKE interface :  Fast linear algebra routines
   SCALAPACK package :  Parallel linear algebra routines
   Shared memory     :  Shared parallel matrices
   BLAS/LAPACK       :  OpenBLAS 0.3.15  USE64BITINT DYNAMIC_ARCH NO_AFFINITY SkylakeX SINGLE_THREADED
        Core in use  :  SkylakeX
   Copyright (c) 2011-2014, The OpenBLAS Project




***************************************
The coordinates will be read from file: opt.xyz
***************************************


================================================================================

----- Orbital basis set information -----
Your calculation utilizes the basis: cc-pVDZ 
       H, B-Ne : Obtained from the ccRepo (grant-hill.group.shef.ac.uk/ccrepo) Feb. 2017
                 T. H. Dunning, Jr., J. Chem. Phys. 90, 1007 (1989)
            He : Obtained from the ccRepo (grant-hill.group.shef.ac.uk/ccrepo) Feb. 2017
                 D. E. Woon, T. H. Dunning, Jr., J. Chem. Phys. 100, 2975 (1994)
  Li-Be, Na-Mg : Obtained from the ccRepo (grant-hill.group.shef.ac.uk/ccrepo) Feb. 2017
                 B. P. Prascher, D. E. Woon, K. A. Peterson, T. H. Dunning, Jr., A. K. Wilson, Theor. Chem. Acc. 128, 69 (2011)
         Al-Ar : Obtained from the ccRepo (grant-hill.group.shef.ac.uk/ccrepo) Feb. 2017
                 D. E. Woon, T. H. Dunning, Jr., J. Chem. Phys. 98, 1358 (1993)
            Ca : Obtained from the Peterson Research Group Website (tyr0.chem.wsu.edu/~kipeters) Feb. 2017
                 J. Koput, K. A. Peterson, J. Phys. Chem. 106, 9595 (2002)
         Sc-Zn : Obtained from the ccRepo (grant-hill.group.shef.ac.uk/ccrepo) Feb. 2017
                 N. B. Balabanov, K. A. Peterson, J. Chem. Phys. 123, 064107 (2005)
                 N. B. Balabanov, K. A. Peterson, J. Chem. Phys. 125, 074110 (2006)
         Ga-Kr : Obtained from the ccRepo (grant-hill.group.shef.ac.uk/ccrepo) Feb. 2017
                 A. K. Wilson, D. E. Woon, K. A. Peterson, T. H. Dunning, Jr., J. Chem. Phys. 110, 7667 (1999)

----- AuxJ basis set information -----
Your calculation utilizes the AutoAux generation procedure.
  G. L. Stoychev, A. A. Auer, F. Neese, J. Chem. Theory Comput. 13, 554 (2017)

----- AuxC basis set information -----
Your calculation utilizes the AutoAux generation procedure.
  G. L. Stoychev, A. A. Auer, F. Neese, J. Chem. Theory Comput. 13, 554 (2017)

----- AuxJK basis set information -----
Your calculation utilizes the AutoAux generation procedure.
  G. L. Stoychev, A. A. Auer, F. Neese, J. Chem. Theory Comput. 13, 554 (2017)

================================================================================
                                        WARNINGS
                       Please study these warnings very carefully!
================================================================================

WARNING: Old DensityContainer found on disk!
         Will remove this file - 
         If you want to keep old densities, please start your calculation with a different basename. 


WARNING: your system is open-shell and RHF/RKS was chosen
  ===> : WILL SWITCH to UHF/UKS


INFO   : the flag for use of the SHARK integral package has been found!

================================================================================
                                       INPUT FILE
================================================================================
NAME = cc-pVDZ.inp
|  1> ! B3LYP cc-pVDZ AUTOAUX
|  2> %pal nprocs 16 end
|  3> *XYZFile 0 2 opt.xyz
|  4> %EPRNMR
|  5>         GTENSOR   TRUE
|  6>         NUCLEI    = ALL H {SHIFT, AISO, ADIP, AORB}
|  7> END
|  8> 
|  9>                          ****END OF INPUT****
================================================================================

                       ****************************
                       * Single Point Calculation *
                       ****************************

---------------------------------
CARTESIAN COORDINATES (ANGSTROEM)
---------------------------------
  C      4.055651   -0.073547    0.001259
  C      2.833542   -0.006600   -0.001853
  C     -2.844938    0.019403   -0.004605
  C      1.413420    0.037578   -0.002650
  C      0.700732    1.295437   -0.002274
  C     -0.721501    1.219563   -0.002939
  C     -1.411453    0.007143   -0.003953
  C     -0.698523   -1.233355   -0.004352
  C      0.695582   -1.174421   -0.003778
  H     -1.303965    2.141141   -0.002676
  H      1.274536   -2.097754   -0.004091
  C      1.376735    2.533606   -0.001170
  H      2.469590    2.505778   -0.000846
  C      0.711209    3.877604   -0.000569
  H      0.041247    3.969721   -0.880342
  H      0.037271    3.967005    0.876408
  C      1.701375    5.049653    0.003518
  H      2.358700    4.962416    0.887902
  H      2.362825    4.965169   -0.878056
  C      1.013980    6.416414    0.004035
  H      0.370653    6.541162    0.892218
  H      0.374821    6.543928   -0.886762
  C     -1.466096   -2.538946   -0.005338
  H     -2.145195   -2.541193    0.867755
  H     -2.144376   -2.540390   -0.879069
  C     -0.640631   -3.828188   -0.005524
  H      0.023196   -3.849353   -0.889420
  H      0.022302   -3.850153    0.879024
  C     -1.515380   -5.087922   -0.006538
  H     -2.182257   -5.068236    0.875347
  H     -2.181205   -5.067554   -0.889201
  C     -0.702663   -6.385165   -0.006558
  H     -0.052972   -6.450617    0.883324
  H     -0.051766   -6.449835   -0.895614
  C     -4.060832    0.033276   -0.006062
  H     -5.133143    0.050044   -0.008099
  H      1.748932    7.237402    0.007037
  H     -1.357003   -7.272006   -0.007390
  C      8.290611   -0.349909    0.011621
  C      7.669126    0.904242    0.011288
  C      6.278191    1.001489    0.007860
  C      5.479290   -0.163666    0.004675
  C      6.117697   -1.424276    0.005036
  C      7.509166   -1.511211    0.008484
  H      9.380725   -0.422104    0.014310
  H      5.506205   -2.328550    0.002590
  H      8.273734    1.814420    0.013750
  H      7.988600   -2.493123    0.008723
  H      5.792435    1.979098    0.007626

----------------------------
CARTESIAN COORDINATES (A.U.)
----------------------------
  NO LB      ZA    FRAG     MASS         X           Y           Z
   0 C     6.0000    0    12.011    7.664069   -0.138985    0.002378
   1 C     6.0000    0    12.011    5.354619   -0.012471   -0.003501
   2 C     6.0000    0    12.011   -5.376154    0.036665   -0.008702
   3 C     6.0000    0    12.011    2.670977    0.071013   -0.005008
   4 C     6.0000    0    12.011    1.324191    2.448021   -0.004297
   5 C     6.0000    0    12.011   -1.363439    2.304641   -0.005554
   6 C     6.0000    0    12.011   -2.667259    0.013499   -0.007470
   7 C     6.0000    0    12.011   -1.320018   -2.330703   -0.008224
   8 C     6.0000    0    12.011    1.314460   -2.219334   -0.007140
   9 H     1.0000    0     1.008   -2.464137    4.046170   -0.005057
  10 H     1.0000    0     1.008    2.408523   -3.964181   -0.007732
  11 C     6.0000    0    12.011    2.601652    4.787822   -0.002211
  12 H     1.0000    0     1.008    4.666848    4.735234   -0.001598
  13 C     6.0000    0    12.011    1.343990    7.327609   -0.001076
  14 H     1.0000    0     1.008    0.077945    7.501686   -1.663605
  15 H     1.0000    0     1.008    0.070432    7.496553    1.656171
  16 C     6.0000    0    12.011    3.215133    9.542461    0.006649
  17 H     1.0000    0     1.008    4.457296    9.377607    1.677892
  18 H     1.0000    0     1.008    4.465093    9.382810   -1.659286
  19 C     6.0000    0    12.011    1.916145   12.125265    0.007625
  20 H     1.0000    0     1.008    0.700433   12.361004    1.686048
  21 H     1.0000    0     1.008    0.708310   12.366232   -1.675737
  22 C     6.0000    0    12.011   -2.770520   -4.797913   -0.010087
  23 H     1.0000    0     1.008   -4.053831   -4.802158    1.639820
  24 H     1.0000    0     1.008   -4.052284   -4.800642   -1.661199
  25 C     6.0000    0    12.011   -1.210616   -7.234226   -0.010439
  26 H     1.0000    0     1.008    0.043833   -7.274224   -1.680761
  27 H     1.0000    0     1.008    0.042145   -7.275735    1.661115
  28 C     6.0000    0    12.011   -2.863654   -9.614779   -0.012354
  29 H     1.0000    0     1.008   -4.123869   -9.577579    1.654166
  30 H     1.0000    0     1.008   -4.121881   -9.576289   -1.680347
  31 C     6.0000    0    12.011   -1.327841  -12.066213   -0.012393
  32 H     1.0000    0     1.008   -0.100103  -12.189899    1.669240
  33 H     1.0000    0     1.008   -0.097823  -12.188421   -1.692465
  34 C     6.0000    0    12.011   -7.673860    0.062882   -0.011455
  35 H     1.0000    0     1.008   -9.700235    0.094570   -0.015304
  36 H     1.0000    0     1.008    3.305003   13.676708    0.013298
  37 H     1.0000    0     1.008   -2.564364  -13.742101   -0.013965
  38 C     6.0000    0    12.011   15.666984   -0.661233    0.021961
  39 C     6.0000    0    12.011   14.492548    1.708771    0.021331
  40 C     6.0000    0    12.011   11.864061    1.892540    0.014853
  41 C     6.0000    0    12.011   10.354357   -0.309284    0.008834
  42 C     6.0000    0    12.011   11.560771   -2.691492    0.009518
  43 C     6.0000    0    12.011   14.190267   -2.855775    0.016033
  44 H     1.0000    0     1.008   17.727002   -0.797661    0.027042
  45 H     1.0000    0     1.008   10.405219   -4.400322    0.004894
  46 H     1.0000    0     1.008   15.635091    3.428758    0.025984
  47 H     1.0000    0     1.008   15.096267   -4.711320    0.016484
  48 H     1.0000    0     1.008   10.946116    3.739953    0.014412

--------------------------------
INTERNAL COORDINATES (ANGSTROEM)
--------------------------------
 C      0   0   0     0.000000000000     0.00000000     0.00000000
 C      1   0   0     1.223944647573     0.00000000     0.00000000
 C      2   1   0     5.678540645159   177.12438180     0.00000000
 C      2   1   3     1.420809202642   178.64150904     2.44431677
 C      4   2   1     1.445729165687   121.31720245   175.16981916
 C      5   4   2     1.424255516326   116.48164806   180.00937570
 C      6   5   4     1.394989894114   122.69665584     0.00000000
 C      7   6   5     1.430770475003   120.47058161     0.00000000
 C      8   7   6     1.395350618297   117.46584694     0.00000000
 H      6   5   4     1.090215457928   119.24033859   179.99914683
 H      9   8   7     1.089831121132   119.66808581   180.00213207
 C      5   4   2     1.410689310921   121.83139226     0.00000000
 H     12   5   4     1.093209149059   117.17455913     0.00000000
 C     12   5   4     1.499751794170   125.02291054   180.00687956
 H     14  12   5     1.109654846731   109.99860095   302.48920861
 H     14  12   5     1.109627295780   110.00096960    57.27566589
 C     14  12   5     1.534322662643   113.46440707   179.88223754
 H     17  14  12     1.105359701805   109.00261219   302.33851858
 H     17  14  12     1.105363205741   109.00589269    57.65414182
 C     17  14  12     1.529884878207   113.10875966   179.99715414
 H     20  17  14     1.103766676989   111.29198241    59.86978372
 H     20  17  14     1.103767437557   111.29183324   300.12562852
 C      8   7   6     1.514509309906   119.66171924   179.99490633
 H     23   8   7     1.106106678311   108.20372483   303.78115592
 H     23   8   7     1.106106781022   108.20538527    56.23236455
 C     23   8   7     1.530861214263   116.91791859   180.00823965
 H     26  23   8     1.105615802611   109.87518301   301.74434795
 H     26  23   8     1.105616679730   109.87386616    58.25609416
 C     26  23   8     1.533661703851   112.59386665   179.99982985
 H     29  26  23     1.105817474584   109.19702637   302.35381928
 H     29  26  23     1.105817815154   109.19733801    57.66053976
 C     29  26  23     1.530800214028   113.15720454   180.00717205
 H     32  29  26     1.103753255283   111.26888837    59.86068768
 H     32  29  26     1.103752736605   111.26897896   300.15022909
 C      3   2   1     1.215973833186   179.60651930   183.61387337
 H     35   3   7     1.072444113162   179.75450435   354.82602579
 H     20  17  14     1.101900589981   111.46543257   179.99758572
 H     32  29  26     1.102111274406   111.51194430   180.00532062
 C      1   2   4     4.243980477130   179.40186820     5.34062787
 C     39   1   2     1.399692572308    59.90605783   179.51424035
 C     40  39   1     1.394335108547   120.35957136     0.00000000
 C     41  40  39     1.412741592642   120.43777592     0.00000000
 C     42  41  40     1.413046831520   118.70410868     0.00000000
 C     43  42  41     1.394186399331   120.43384454     0.00000000
 H     39   1   2     1.092506054340   179.94468773   358.29790612
 H     43  42  41     1.091622658465   119.07348878   179.99981101
 H     40  39   1     1.092694147880   120.04448756   179.99673554
 H     44  43  42     1.092707315883   119.59966557   179.99984571
 H     41  40  39     1.091639988254   120.42115855   179.99816908

---------------------------
INTERNAL COORDINATES (A.U.)
---------------------------
 C      0   0   0     0.000000000000     0.00000000     0.00000000
 C      1   0   0     2.312920186992     0.00000000     0.00000000
 C      2   1   0    10.730886659691   177.12438180     0.00000000
 C      2   1   3     2.684940281549   178.64150904     2.44431677
 C      4   2   1     2.732032186971   121.31720245   175.16981916
 C      5   4   2     2.691452870583   116.48164806   180.00937570
 C      6   5   4     2.636148859463   122.69665584     0.00000000
 C      7   6   5     2.703764358257   120.47058161     0.00000000
 C      8   7   6     2.636830529379   117.46584694     0.00000000
 H      6   5   4     2.060208642452   119.24033859   179.99914683
 H      9   8   7     2.059482351164   119.66808581   180.00213207
 C      5   4   2     2.665816457691   121.83139226     0.00000000
 H     12   5   4     2.065865898819   117.17455913     0.00000000
 C     12   5   4     2.834120159839   125.02291054   180.00687956
 H     14  12   5     2.096943763500   109.99860095   302.48920861
 H     14  12   5     2.096891699747   110.00096960    57.27566589
 C     14  12   5     2.899449633465   113.46440707   179.88223754
 H     17  14  12     2.088827115885   109.00261219   302.33851858
 H     17  14  12     2.088833737364   109.00589269    57.65414182
 C     17  14  12     2.891063436239   113.10875966   179.99715414
 H     20  17  14     2.085816735257   111.29198241    59.86978372
 H     20  17  14     2.085818172524   111.29183324   300.12562852
 C      8   7   6     2.862007822996   119.66171924   179.99490633
 H     23   8   7     2.090238696909   108.20372483   303.78115592
 H     23   8   7     2.090238891006   108.20538527    56.23236455
 C     23   8   7     2.892908444000   116.91791859   180.00823965
 H     26  23   8     2.089311076270   109.87518301   301.74434795
 H     26  23   8     2.089312733785   109.87386616    58.25609416
 C     26  23   8     2.898200602362   112.59386665   179.99982985
 H     29  26  23     2.089692181069   109.19702637   302.35381928
 H     29  26  23     2.089692824652   109.19733801    57.66053976
 C     29  26  23     2.892793170261   113.15720454   180.00717205
 H     32  29  26     2.085791371908   111.26888837    59.86068768
 H     32  29  26     2.085790391750   111.26897896   300.15022909
 C      3   2   1     2.297857530736   179.60651930   183.61387337
 H     35   3   7     2.026625667811   179.75450435   354.82602579
 H     20  17  14     2.082290341871   111.46543257   179.99758572
 H     32  29  26     2.082688477735   111.51194430   180.00532062
 C      1   2   4     8.019960819483   179.40186820     5.34062787
 C     39   1   2     2.645035633346    59.90605783   179.51424035
 C     40  39   1     2.634911494065   120.35957136     0.00000000
 C     41  40  39     2.669694708093   120.43777592     0.00000000
 C     42  41  40     2.670271525978   118.70410868     0.00000000
 C     43  42  41     2.634630474374   120.43384454     0.00000000
 H     39   1   2     2.064537242353   179.94468773   358.29790612
 H     43  42  41     2.062867866083   119.07348878   179.99981101
 H     40  39   1     2.064892687631   120.04448756   179.99673554
 H     44  43  42     2.064917571551   119.59966557   179.99984571
 H     41  40  39     2.062900614636   120.42115855   179.99816908

---------------------
BASIS SET INFORMATION
---------------------
There are 2 groups of distinct atoms

 Group   1 Type C   : 17s4p1d contracted to 3s2p1d pattern {881/31/1}
 Group   2 Type H   : 4s1p contracted to 2s1p pattern {31/1}

Atom   0C    basis set group =>   1
Atom   1C    basis set group =>   1
Atom   2C    basis set group =>   1
Atom   3C    basis set group =>   1
Atom   4C    basis set group =>   1
Atom   5C    basis set group =>   1
Atom   6C    basis set group =>   1
Atom   7C    basis set group =>   1
Atom   8C    basis set group =>   1
Atom   9H    basis set group =>   2
Atom  10H    basis set group =>   2
Atom  11C    basis set group =>   1
Atom  12H    basis set group =>   2
Atom  13C    basis set group =>   1
Atom  14H    basis set group =>   2
Atom  15H    basis set group =>   2
Atom  16C    basis set group =>   1
Atom  17H    basis set group =>   2
Atom  18H    basis set group =>   2
Atom  19C    basis set group =>   1
Atom  20H    basis set group =>   2
Atom  21H    basis set group =>   2
Atom  22C    basis set group =>   1
Atom  23H    basis set group =>   2
Atom  24H    basis set group =>   2
Atom  25C    basis set group =>   1
Atom  26H    basis set group =>   2
Atom  27H    basis set group =>   2
Atom  28C    basis set group =>   1
Atom  29H    basis set group =>   2
Atom  30H    basis set group =>   2
Atom  31C    basis set group =>   1
Atom  32H    basis set group =>   2
Atom  33H    basis set group =>   2
Atom  34C    basis set group =>   1
Atom  35H    basis set group =>   2
Atom  36H    basis set group =>   2
Atom  37H    basis set group =>   2
Atom  38C    basis set group =>   1
Atom  39C    basis set group =>   1
Atom  40C    basis set group =>   1
Atom  41C    basis set group =>   1
Atom  42C    basis set group =>   1
Atom  43C    basis set group =>   1
Atom  44H    basis set group =>   2
Atom  45H    basis set group =>   2
Atom  46H    basis set group =>   2
Atom  47H    basis set group =>   2
Atom  48H    basis set group =>   2
---------------------------------
AUXILIARY/J BASIS SET INFORMATION
---------------------------------
There are 2 groups of distinct atoms

 Group   1 Type C   : 14s11p10d2f contracted to 14s11p10d2f pattern {11111111111111/11111111111/1111111111/11}
 Group   2 Type H   : 9s2p1d contracted to 9s2p1d pattern {111111111/11/1}

Atom   0C    basis set group =>   1
Atom   1C    basis set group =>   1
Atom   2C    basis set group =>   1
Atom   3C    basis set group =>   1
Atom   4C    basis set group =>   1
Atom   5C    basis set group =>   1
Atom   6C    basis set group =>   1
Atom   7C    basis set group =>   1
Atom   8C    basis set group =>   1
Atom   9H    basis set group =>   2
Atom  10H    basis set group =>   2
Atom  11C    basis set group =>   1
Atom  12H    basis set group =>   2
Atom  13C    basis set group =>   1
Atom  14H    basis set group =>   2
Atom  15H    basis set group =>   2
Atom  16C    basis set group =>   1
Atom  17H    basis set group =>   2
Atom  18H    basis set group =>   2
Atom  19C    basis set group =>   1
Atom  20H    basis set group =>   2
Atom  21H    basis set group =>   2
Atom  22C    basis set group =>   1
Atom  23H    basis set group =>   2
Atom  24H    basis set group =>   2
Atom  25C    basis set group =>   1
Atom  26H    basis set group =>   2
Atom  27H    basis set group =>   2
Atom  28C    basis set group =>   1
Atom  29H    basis set group =>   2
Atom  30H    basis set group =>   2
Atom  31C    basis set group =>   1
Atom  32H    basis set group =>   2
Atom  33H    basis set group =>   2
Atom  34C    basis set group =>   1
Atom  35H    basis set group =>   2
Atom  36H    basis set group =>   2
Atom  37H    basis set group =>   2
Atom  38C    basis set group =>   1
Atom  39C    basis set group =>   1
Atom  40C    basis set group =>   1
Atom  41C    basis set group =>   1
Atom  42C    basis set group =>   1
Atom  43C    basis set group =>   1
Atom  44H    basis set group =>   2
Atom  45H    basis set group =>   2
Atom  46H    basis set group =>   2
Atom  47H    basis set group =>   2
Atom  48H    basis set group =>   2
---------------------------------
AUXILIARY/C BASIS SET INFORMATION
---------------------------------
There are 2 groups of distinct atoms

 Group   1 Type C   : 14s11p10d2f contracted to 14s11p10d2f pattern {11111111111111/11111111111/1111111111/11}
 Group   2 Type H   : 9s2p1d contracted to 9s2p1d pattern {111111111/11/1}

Atom   0C    basis set group =>   1
Atom   1C    basis set group =>   1
Atom   2C    basis set group =>   1
Atom   3C    basis set group =>   1
Atom   4C    basis set group =>   1
Atom   5C    basis set group =>   1
Atom   6C    basis set group =>   1
Atom   7C    basis set group =>   1
Atom   8C    basis set group =>   1
Atom   9H    basis set group =>   2
Atom  10H    basis set group =>   2
Atom  11C    basis set group =>   1
Atom  12H    basis set group =>   2
Atom  13C    basis set group =>   1
Atom  14H    basis set group =>   2
Atom  15H    basis set group =>   2
Atom  16C    basis set group =>   1
Atom  17H    basis set group =>   2
Atom  18H    basis set group =>   2
Atom  19C    basis set group =>   1
Atom  20H    basis set group =>   2
Atom  21H    basis set group =>   2
Atom  22C    basis set group =>   1
Atom  23H    basis set group =>   2
Atom  24H    basis set group =>   2
Atom  25C    basis set group =>   1
Atom  26H    basis set group =>   2
Atom  27H    basis set group =>   2
Atom  28C    basis set group =>   1
Atom  29H    basis set group =>   2
Atom  30H    basis set group =>   2
Atom  31C    basis set group =>   1
Atom  32H    basis set group =>   2
Atom  33H    basis set group =>   2
Atom  34C    basis set group =>   1
Atom  35H    basis set group =>   2
Atom  36H    basis set group =>   2
Atom  37H    basis set group =>   2
Atom  38C    basis set group =>   1
Atom  39C    basis set group =>   1
Atom  40C    basis set group =>   1
Atom  41C    basis set group =>   1
Atom  42C    basis set group =>   1
Atom  43C    basis set group =>   1
Atom  44H    basis set group =>   2
Atom  45H    basis set group =>   2
Atom  46H    basis set group =>   2
Atom  47H    basis set group =>   2
Atom  48H    basis set group =>   2
----------------------------------
AUXILIARY/JK BASIS SET INFORMATION
----------------------------------
There are 2 groups of distinct atoms

 Group   1 Type C   : 14s11p10d2f contracted to 14s11p10d2f pattern {11111111111111/11111111111/1111111111/11}
 Group   2 Type H   : 9s2p1d contracted to 9s2p1d pattern {111111111/11/1}

Atom   0C    basis set group =>   1
Atom   1C    basis set group =>   1
Atom   2C    basis set group =>   1
Atom   3C    basis set group =>   1
Atom   4C    basis set group =>   1
Atom   5C    basis set group =>   1
Atom   6C    basis set group =>   1
Atom   7C    basis set group =>   1
Atom   8C    basis set group =>   1
Atom   9H    basis set group =>   2
Atom  10H    basis set group =>   2
Atom  11C    basis set group =>   1
Atom  12H    basis set group =>   2
Atom  13C    basis set group =>   1
Atom  14H    basis set group =>   2
Atom  15H    basis set group =>   2
Atom  16C    basis set group =>   1
Atom  17H    basis set group =>   2
Atom  18H    basis set group =>   2
Atom  19C    basis set group =>   1
Atom  20H    basis set group =>   2
Atom  21H    basis set group =>   2
Atom  22C    basis set group =>   1
Atom  23H    basis set group =>   2
Atom  24H    basis set group =>   2
Atom  25C    basis set group =>   1
Atom  26H    basis set group =>   2
Atom  27H    basis set group =>   2
Atom  28C    basis set group =>   1
Atom  29H    basis set group =>   2
Atom  30H    basis set group =>   2
Atom  31C    basis set group =>   1
Atom  32H    basis set group =>   2
Atom  33H    basis set group =>   2
Atom  34C    basis set group =>   1
Atom  35H    basis set group =>   2
Atom  36H    basis set group =>   2
Atom  37H    basis set group =>   2
Atom  38C    basis set group =>   1
Atom  39C    basis set group =>   1
Atom  40C    basis set group =>   1
Atom  41C    basis set group =>   1
Atom  42C    basis set group =>   1
Atom  43C    basis set group =>   1
Atom  44H    basis set group =>   2
Atom  45H    basis set group =>   2
Atom  46H    basis set group =>   2
Atom  47H    basis set group =>   2
Atom  48H    basis set group =>   2

Checking for AutoStart:
The File: cc-pVDZ.gbw exists
Trying to determine its content:
     ... Fine, the file contains calculation information
     ... Fine, the calculation information was read
     ... Fine, the file contains a basis set
     ... Fine, the basis set was read
     ... Fine, the file contains a geometry
     ... Fine, the geometry was read
     ... Fine, the file contains a set of orbitals
     ... Fine, the orbitals can be read
     => possible old guess file was deleted
     => GBW file was renamed to GES file
     => GES file is set as startup file
     => Guess is set to MORead
     ... now leaving AutoStart



           ************************************************************
           *        Program running with 16 parallel MPI-processes    *
           *              working on a common directory               *
           ************************************************************
------------------------------------------------------------------------------
                           ORCA GTO INTEGRAL CALCULATION
                           -- RI-GTO INTEGRALS CHOSEN --
------------------------------------------------------------------------------
------------------------------------------------------------------------------
                   ___                                                        
                  /   \      - P O W E R E D   B Y -                         
                 /     \                                                     
                 |  |  |   _    _      __       _____    __    __             
                 |  |  |  | |  | |    /  \     |  _  \  |  |  /  |          
                  \  \/   | |  | |   /    \    | | | |  |  | /  /          
                 / \  \   | |__| |  /  /\  \   | |_| |  |  |/  /          
                |  |  |   |  __  | /  /__\  \  |    /   |      \           
                |  |  |   | |  | | |   __   |  |    \   |  |\   \          
                \     /   | |  | | |  |  |  |  | |\  \  |  | \   \       
                 \___/    |_|  |_| |__|  |__|  |_| \__\ |__|  \__/        
                                                                              
                      - O R C A' S   B I G   F R I E N D -                    
                                      &                                       
                       - I N T E G R A L  F E E D E R -                       
                                                                              
 v1 FN, 2020, v2 2021                                                         
------------------------------------------------------------------------------


Reading SHARK input file cc-pVDZ.SHARKINP.tmp ... ok
----------------------
SHARK INTEGRAL PACKAGE
----------------------

Number of atoms                             ...     49
Number of basis functions                   ...    605
Number of shells                            ...    363
Maximum angular momentum                    ...      2
Integral batch strategy                     ... SHARK/LIBINT Hybrid
RI-J (if used) integral strategy            ... SPLIT-RIJ (Revised 2003 algorithm where possible)
Printlevel                                  ...      1
Contraction scheme used                     ... PARTIAL GENERAL contraction
Coulomb Range Separation                    ... NOT USED
Exchange Range Separation                   ... NOT USED
Finite Nucleus Model                        ... NOT USED
Auxiliary Coulomb fitting basis             ... AVAILABLE
   # of basis functions in Aux-J            ...   3164
   # of shells in Aux-J                     ...   1188
   Maximum angular momentum in Aux-J        ...      3
Auxiliary J/K fitting basis                 ... AVAILABLE
   # of basis functions in Aux-JK           ...   3164
   # of shells in Aux-JK                    ...   1188
   Maximum angular momentum in Aux-JK       ...      3
Auxiliary Correlation fitting basis         ... AVAILABLE
   # of basis functions in Aux-C            ...   3164
   # of shells in Aux-C                     ...   1188
   Maximum angular momentum in Aux-C        ...      3
Auxiliary 'external' fitting basis          ... NOT available
Integral threshold                          ...     1.000000e-10
Primitive cut-off                           ...     1.000000e-11
Primitive pair pre-selection threshold      ...     1.000000e-11

Calculating pre-screening integrals         ... done (  0.0 sec) Dimension = 363
Calculating pre-screening integrals (ORCA)  ... done (  0.1 sec) Dimension = 219
Organizing shell pair data                  ... done (  0.2 sec)
Shell pair information
Total number of shell pairs                 ...     66066
Shell pairs after pre-screening             ...     25393
Total number of primitive shell pairs       ...    106638
Primitive shell pairs kept                  ...     34205
          la=0 lb=0:  10957 shell pairs
          la=1 lb=0:   9002 shell pairs
          la=1 lb=1:   1599 shell pairs
          la=2 lb=0:   2700 shell pairs
          la=2 lb=1:    972 shell pairs
          la=2 lb=2:    163 shell pairs

Calculating one electron integrals          ... done (  0.0 sec)
Calculating RI/J V-Matrix + Cholesky decomp.... done (  0.6 sec)
Calculating RI/JK V-Matrix + Cholesky decomp... done (  0.6 sec)
Calculating RI/C V-Matrix + Cholesky decomp.... done (  0.6 sec)
Calculating Nuclear repulsion               ... done (  0.0 sec) ENN=   1724.107945491061 Eh

SHARK setup successfully completed in   2.5 seconds

Maximum memory used throughout the entire GTOINT-calculation: 41.5 MB


           ************************************************************
           *        Program running with 16 parallel MPI-processes    *
           *              working on a common directory               *
           ************************************************************
-------------------------------------------------------------------------------
                                 ORCA SCF
-------------------------------------------------------------------------------

------------
SCF SETTINGS
------------
Hamiltonian:
 Density Functional     Method          .... DFT(GTOs)
 Exchange Functional    Exchange        .... B88
   X-Alpha parameter    XAlpha          ....  0.666667
   Becke's b parameter  XBeta           ....  0.004200
 Correlation Functional Correlation     .... LYP
 LDA part of GGA corr.  LDAOpt          .... VWN-5
 Gradients option       PostSCFGGA      .... off
 Hybrid DFT is turned on
   Fraction HF Exchange ScalHFX         ....  0.200000
   Scaling of DF-GGA-X  ScalDFX         ....  0.720000
   Scaling of DF-GGA-C  ScalDFC         ....  0.810000
   Scaling of DF-LDA-C  ScalLDAC        ....  1.000000
   Perturbative correction              ....  0.000000
   Density functional embedding theory  .... OFF
   NL short-range parameter             ....  4.800000
 RI-approximation to the Coulomb term is turned on
   Number of AuxJ basis functions       .... 3164
   RIJ-COSX (HFX calculated with COS-X)).... on


General Settings:
 Integral files         IntName         .... cc-pVDZ
 Hartree-Fock type      HFTyp           .... UHF
 Total Charge           Charge          ....    0
 Multiplicity           Mult            ....    2
 Number of Electrons    NEL             ....  169
 Basis Dimension        Dim             ....  461
 Nuclear Repulsion      ENuc            ....   1724.1079454911 Eh

Convergence Acceleration:
 DIIS                   CNVDIIS         .... on
   Start iteration      DIISMaxIt       ....    12
   Startup error        DIISStart       ....  0.200000
   # of expansion vecs  DIISMaxEq       ....     5
   Bias factor          DIISBfac        ....   1.050
   Max. coefficient     DIISMaxC        ....  10.000
 Trust-Rad. Augm. Hess. CNVTRAH         .... auto
   Auto Start mean grad. ratio tolernc. ....  1.125000
   Auto Start start iteration           ....     1
   Auto Start num. interpolation iter.  ....    10
   Max. Number of Micro iterations      ....    16
   Max. Number of Macro iterations      .... Maxiter - #DIIS iter
   Number of Davidson start vectors     ....     2
   Converg. threshold I  (grad. norm)   ....   5.000e-05
   Converg. threshold II (energy diff.) ....   1.000e-06
   Grad. Scal. Fac. for Micro threshold ....   0.100
   Minimum threshold for Micro iter.    ....   0.010
   NR start threshold (gradient norm)   ....   0.001
   Initial trust radius                 ....   0.400
   Minimum AH scaling param. (alpha)    ....   1.000
   Maximum AH scaling param. (alpha)    .... 1000.000
   Orbital update algorithm             .... Taylor
   White noise on init. David. guess    .... on
   Maximum white noise                  ....   0.010
   Quad. conv. algorithm                .... NR
 SOSCF                  CNVSOSCF        .... off
 Level Shifting         CNVShift        .... on
   Level shift para.    LevelShift      ....    0.2500
   Turn off err/grad.   ShiftErr        ....    0.0010
 Zerner damping         CNVZerner       .... off
 Static damping         CNVDamp         .... on
   Fraction old density DampFac         ....    0.7000
   Max. Damping (<1)    DampMax         ....    0.9800
   Min. Damping (>=0)   DampMin         ....    0.0000
   Turn off err/grad.   DampErr         ....    0.1000
 Fernandez-Rico         CNVRico         .... off

SCF Procedure:
 Maximum # iterations   MaxIter         ....   125
 SCF integral mode      SCFMode         .... Direct
   Integral package                     .... SHARK and LIBINT hybrid scheme
 Reset frequency        DirectResetFreq ....    20
 Integral Threshold     Thresh          ....  1.000e-10 Eh
 Primitive CutOff       TCut            ....  1.000e-11 Eh

Convergence Tolerance:
 Convergence Check Mode ConvCheckMode   .... Total+1el-Energy
 Convergence forced     ConvForced      .... 0
 Energy Change          TolE            ....  1.000e-06 Eh
 1-El. energy change                    ....  1.000e-03 Eh
 DIIS Error             TolErr          ....  1.000e-06


Diagonalization of the overlap matrix:
Smallest eigenvalue                        ... 5.108e-05
Time for diagonalization                   ...    0.053 sec
Threshold for overlap eigenvalues          ... 1.000e-08
Number of eigenvalues below threshold      ... 0
Time for construction of square roots      ...    0.046 sec
Total time needed                          ...    0.101 sec

---------------------
INITIAL GUESS: MOREAD
---------------------
Guess MOs are being read from file: cc-pVDZ.ges
Input Geometry matches current geometry (good)
Input basis set matches current basis set (good)
MOs were renormalized
MOs were reorthogonalized (Cholesky)
                      ------------------
                      INITIAL GUESS DONE (   0.2 sec)
                      ------------------
-------------------
DFT GRID GENERATION
-------------------

General Integration Accuracy     IntAcc      ... 4.388
Radial Grid Type                 RadialGrid  ... OptM3 with GC (2021)
Angular Grid (max. ang.)         AngularGrid ... 4 (Lebedev-302)
Angular grid pruning method      GridPruning ... 4 (adaptive)
Weight generation scheme         WeightScheme... Becke
Basis function cutoff            BFCut       ... 1.0000e-10
Integration weight cutoff        WCut        ... 1.0000e-14
Angular grids for H and He will be reduced by one unit
Partially contracted basis set               ... off
Rotationally invariant grid construction     ... off

Total number of grid points                  ...   223180
Total number of batches                      ...     3508
Average number of points per batch           ...       63
Average number of grid points per atom       ...     4555
Time for grid setup =    1.351 sec

--------------------
COSX GRID GENERATION
--------------------

GRIDX 1
-------
General Integration Accuracy     IntAcc      ... 3.816
Radial Grid Type                 RadialGrid  ... OptM3 with GC (2021)
Angular Grid (max. ang.)         AngularGrid ... 1 (Lebedev-50)
Angular grid pruning method      GridPruning ... 4 (adaptive)
Weight generation scheme         WeightScheme... Becke
Basis function cutoff            BFCut       ... 1.0000e-10
Integration weight cutoff        WCut        ... 1.0000e-14
Angular grids for H and He will be reduced by one unit
Partially contracted basis set               ... on
Rotationally invariant grid construction     ... off

Total number of grid points                  ...    28434
Total number of batches                      ...      470
Average number of points per batch           ...       60
Average number of grid points per atom       ...      580
UseSFitting                                  ... on

GRIDX 2
-------
General Integration Accuracy     IntAcc      ... 4.020
Radial Grid Type                 RadialGrid  ... OptM3 with GC (2021)
Angular Grid (max. ang.)         AngularGrid ... 2 (Lebedev-110)
Angular grid pruning method      GridPruning ... 4 (adaptive)
Weight generation scheme         WeightScheme... Becke
Basis function cutoff            BFCut       ... 1.0000e-10
Integration weight cutoff        WCut        ... 1.0000e-14
Angular grids for H and He will be reduced by one unit
Partially contracted basis set               ... on
Rotationally invariant grid construction     ... off

Total number of grid points                  ...    60669
Total number of batches                      ...      975
Average number of points per batch           ...       62
Average number of grid points per atom       ...     1238
UseSFitting                                  ... on

GRIDX 3
-------
General Integration Accuracy     IntAcc      ... 4.338
Radial Grid Type                 RadialGrid  ... OptM3 with GC (2021)
Angular Grid (max. ang.)         AngularGrid ... 3 (Lebedev-194)
Angular grid pruning method      GridPruning ... 4 (adaptive)
Weight generation scheme         WeightScheme... Becke
Basis function cutoff            BFCut       ... 1.0000e-10
Integration weight cutoff        WCut        ... 1.0000e-14
Angular grids for H and He will be reduced by one unit
Partially contracted basis set               ... on
Rotationally invariant grid construction     ... off

Total number of grid points                  ...   132673
Total number of batches                      ...     2100
Average number of points per batch           ...       63
Average number of grid points per atom       ...     2708
UseSFitting                                  ... on

Time for X-Grid setup             =    2.375 sec

 re-compute Schwartz prescreening matrix in partically contracted basis (1) ...done (   0.135 sec)
--------------
SCF ITERATIONS
--------------
ITER       Energy         Delta-E        Max-DP      RMS-DP      [F,P]     Damp
               ***  Starting incremental Fock matrix formation  ***
  0   -928.9016010839   0.000000000000 0.00003916  0.00000027  0.0000848 0.7000
                 **** Energy Check signals convergence ****

               *****************************************************
               *                     SUCCESS                       *
               *           SCF CONVERGED AFTER   1 CYCLES          *
               *****************************************************

Old exchange energy                            =    -26.638037881 Eh
New exchange energy                            =    -26.638163383 Eh
Exchange energy change after final integration =     -0.000125502 Eh
Total energy after final integration           =   -928.901726525 Eh
Final COS-X integration done in                =     7.347 sec

----------------
TOTAL SCF ENERGY
----------------

Total Energy       :         -928.90172652 Eh          -25276.70102 eV

Components:
Nuclear Repulsion  :         1724.10794549 Eh           46915.36233 eV
Electronic Energy  :        -2653.00967202 Eh          -72192.06335 eV
One Electron Energy:        -4677.21616815 Eh         -127273.52240 eV
Two Electron Energy:         2024.20649614 Eh           55081.45905 eV
Max COSX asymmetry :            0.00000068 Eh               0.00002 eV

Virial components:
Potential Energy   :        -1851.36825520 Eh          -50378.29141 eV
Kinetic Energy     :          922.46652868 Eh           25101.59039 eV
Virial Ratio       :            2.00697608


DFT components:
N(Alpha)           :       85.000125808716 electrons
N(Beta)            :       84.000116181958 electrons
N(Total)           :      169.000241990674 electrons
E(X)               :     -105.658645366997 Eh       
E(C)               :       -6.575596152325 Eh       
E(XC)              :     -112.234241519322 Eh       
DFET-embed. en.    :        0.000000000000 Eh       

---------------
SCF CONVERGENCE
---------------

  Last Energy change         ...    6.1037e-08  Tolerance :   1.0000e-06
  Last MAX-Density change    ...    1.3633e-05  Tolerance :   1.0000e-05
  Last RMS-Density change    ...    9.1673e-08  Tolerance :   1.0000e-06
  Last DIIS Error            ...    3.3409e-05  Tolerance :   1.0000e-06

             **** THE GBW FILE WAS UPDATED (cc-pVDZ.gbw) ****
             **** DENSITY cc-pVDZ.scfp WAS UPDATED ****
             **** ENERGY FILE WAS UPDATED (cc-pVDZ.en.tmp) ****
----------------------
UHF SPIN CONTAMINATION
----------------------

Warning: in a DFT calculation there is little theoretical justification to 
         calculate <S**2> as in Hartree-Fock theory. We will do it anyways
         but you should keep in mind that the values have only limited relevance

Expectation value of <S**2>     :     0.787388
Ideal value S*(S+1) for S=0.5   :     0.750000
Deviation                       :     0.037388

             **** THE GBW FILE WAS UPDATED (cc-pVDZ.gbw) ****
             **** DENSITY cc-pVDZ.scfp WAS UPDATED ****
----------------
ORBITAL ENERGIES
----------------
                 SPIN UP ORBITALS
  NO   OCC          E(Eh)            E(eV) 
   0   1.0000     -10.215490      -277.9776 
   1   1.0000     -10.214316      -277.9457 
   2   1.0000     -10.211653      -277.8732 
   3   1.0000     -10.202729      -277.6304 
   4   1.0000     -10.198403      -277.5127 
   5   1.0000     -10.196477      -277.4603 
   6   1.0000     -10.196214      -277.4531 
   7   1.0000     -10.195229      -277.4263 
   8   1.0000     -10.195136      -277.4238 
   9   1.0000     -10.194459      -277.4053 
  10   1.0000     -10.194279      -277.4004 
  11   1.0000     -10.192575      -277.3541 
  12   1.0000     -10.191537      -277.3258 
  13   1.0000     -10.189716      -277.2763 
  14   1.0000     -10.189305      -277.2651 
  15   1.0000     -10.188459      -277.2421 
  16   1.0000     -10.186684      -277.1938 
  17   1.0000     -10.186508      -277.1890 
  18   1.0000     -10.186026      -277.1759 
  19   1.0000     -10.184417      -277.1321 
  20   1.0000     -10.181596      -277.0553 
  21   1.0000     -10.181400      -277.0500 
  22   1.0000     -10.177410      -276.9414 
  23   1.0000     -10.175497      -276.8894 
  24   1.0000      -0.873901       -23.7801 
  25   1.0000      -0.862510       -23.4701 
  26   1.0000      -0.820087       -22.3157 
  27   1.0000      -0.799051       -21.7433 
  28   1.0000      -0.795892       -21.6573 
  29   1.0000      -0.778118       -21.1737 
  30   1.0000      -0.767736       -20.8912 
  31   1.0000      -0.750242       -20.4151 
  32   1.0000      -0.744626       -20.2623 
  33   1.0000      -0.730347       -19.8738 
  34   1.0000      -0.713549       -19.4167 
  35   1.0000      -0.697700       -18.9854 
  36   1.0000      -0.656859       -17.8740 
  37   1.0000      -0.643816       -17.5191 
  38   1.0000      -0.618030       -16.8175 
  39   1.0000      -0.612671       -16.6716 
  40   1.0000      -0.608148       -16.5486 
  41   1.0000      -0.592655       -16.1269 
  42   1.0000      -0.580368       -15.7926 
  43   1.0000      -0.562097       -15.2954 
  44   1.0000      -0.540763       -14.7149 
  45   1.0000      -0.529289       -14.4027 
  46   1.0000      -0.506714       -13.7884 
  47   1.0000      -0.491812       -13.3829 
  48   1.0000      -0.479897       -13.0587 
  49   1.0000      -0.476003       -12.9527 
  50   1.0000      -0.470385       -12.7998 
  51   1.0000      -0.462601       -12.5880 
  52   1.0000      -0.456850       -12.4315 
  53   1.0000      -0.435937       -11.8624 
  54   1.0000      -0.432326       -11.7642 
  55   1.0000      -0.429406       -11.6847 
  56   1.0000      -0.426181       -11.5970 
  57   1.0000      -0.423413       -11.5216 
  58   1.0000      -0.421621       -11.4729 
  59   1.0000      -0.411823       -11.2063 
  60   1.0000      -0.398682       -10.8487 
  61   1.0000      -0.397972       -10.8294 
  62   1.0000      -0.383905       -10.4466 
  63   1.0000      -0.378650       -10.3036 
  64   1.0000      -0.377066       -10.2605 
  65   1.0000      -0.365289        -9.9400 
  66   1.0000      -0.360997        -9.8232 
  67   1.0000      -0.356475        -9.7002 
  68   1.0000      -0.353695        -9.6245 
  69   1.0000      -0.349684        -9.5154 
  70   1.0000      -0.340420        -9.2633 
  71   1.0000      -0.332960        -9.0603 
  72   1.0000      -0.331463        -9.0196 
  73   1.0000      -0.331265        -9.0142 
  74   1.0000      -0.327530        -8.9126 
  75   1.0000      -0.324171        -8.8211 
  76   1.0000      -0.321296        -8.7429 
  77   1.0000      -0.299683        -8.1548 
  78   1.0000      -0.275103        -7.4859 
  79   1.0000      -0.273295        -7.4367 
  80   1.0000      -0.267436        -7.2773 
  81   1.0000      -0.258392        -7.0312 
  82   1.0000      -0.255329        -6.9479 
  83   1.0000      -0.216697        -5.8966 
  84   1.0000      -0.170819        -4.6482 
  85   0.0000      -0.056615        -1.5406 
  86   0.0000      -0.011566        -0.3147 
  87   0.0000      -0.009812        -0.2670 
  88   0.0000       0.013123         0.3571 
  89   0.0000       0.041640         1.1331 
  90   0.0000       0.050414         1.3718 
  91   0.0000       0.054900         1.4939 
  92   0.0000       0.062899         1.7116 
  93   0.0000       0.063921         1.7394 
  94   0.0000       0.070874         1.9286 
  95   0.0000       0.077973         2.1217 
  96   0.0000       0.084385         2.2962 
  97   0.0000       0.087178         2.3722 
  98   0.0000       0.092242         2.5100 
  99   0.0000       0.094139         2.5616 
 100   0.0000       0.095664         2.6032 
 101   0.0000       0.101674         2.7667 
 102   0.0000       0.103747         2.8231 
 103   0.0000       0.117462         3.1963 
 104   0.0000       0.119882         3.2622 
 105   0.0000       0.125707         3.4207 
 106   0.0000       0.130343         3.5468 
 107   0.0000       0.134027         3.6471 
 108   0.0000       0.144622         3.9354 
 109   0.0000       0.146263         3.9800 
 110   0.0000       0.149400         4.0654 
 111   0.0000       0.159558         4.3418 
 112   0.0000       0.159916         4.3515 
 113   0.0000       0.162485         4.4214 
 114   0.0000       0.165914         4.5147 
 115   0.0000       0.169257         4.6057 
 116   0.0000       0.170242         4.6325 
 117   0.0000       0.178891         4.8679 
 118   0.0000       0.184497         5.0204 
 119   0.0000       0.204608         5.5677 
 120   0.0000       0.212965         5.7951 
 121   0.0000       0.213692         5.8149 
 122   0.0000       0.216870         5.9013 
 123   0.0000       0.219094         5.9619 
 124   0.0000       0.226113         6.1529 
 125   0.0000       0.243802         6.6342 
 126   0.0000       0.247073         6.7232 
 127   0.0000       0.262872         7.1531 
 128   0.0000       0.279562         7.6073 
 129   0.0000       0.281158         7.6507 
 130   0.0000       0.291374         7.9287 
 131   0.0000       0.291534         7.9330 
 132   0.0000       0.310091         8.4380 
 133   0.0000       0.315585         8.5875 
 134   0.0000       0.320183         8.7126 
 135   0.0000       0.333053         9.0628 
 136   0.0000       0.342475         9.3192 
 137   0.0000       0.359432         9.7806 
 138   0.0000       0.367971        10.0130 
 139   0.0000       0.375347        10.2137 
 140   0.0000       0.397493        10.8163 
 141   0.0000       0.409823        11.1519 
 142   0.0000       0.411960        11.2100 
 143   0.0000       0.413063        11.2400 
 144   0.0000       0.419873        11.4253 
 145   0.0000       0.421364        11.4659 
 146   0.0000       0.430783        11.7222 
 147   0.0000       0.439615        11.9625 
 148   0.0000       0.440394        11.9837 
 149   0.0000       0.445113        12.1121 
 150   0.0000       0.450009        12.2454 
 151   0.0000       0.452361        12.3094 
 152   0.0000       0.464074        12.6281 
 153   0.0000       0.471625        12.8336 
 154   0.0000       0.473113        12.8741 
 155   0.0000       0.474387        12.9087 
 156   0.0000       0.477824        13.0023 
 157   0.0000       0.482353        13.1255 
 158   0.0000       0.489746        13.3267 
 159   0.0000       0.501223        13.6390 
 160   0.0000       0.503216        13.6932 
 161   0.0000       0.506048        13.7703 
 162   0.0000       0.508101        13.8261 
 163   0.0000       0.510326        13.8867 
 164   0.0000       0.514506        14.0004 
 165   0.0000       0.515374        14.0240 
 166   0.0000       0.515657        14.0317 
 167   0.0000       0.516839        14.0639 
 168   0.0000       0.525965        14.3122 
 169   0.0000       0.526181        14.3181 
 170   0.0000       0.536465        14.5979 
 171   0.0000       0.546164        14.8619 
 172   0.0000       0.558043        15.1851 
 173   0.0000       0.560502        15.2520 
 174   0.0000       0.573304        15.6004 
 175   0.0000       0.573667        15.6103 
 176   0.0000       0.587604        15.9895 
 177   0.0000       0.589040        16.0286 
 178   0.0000       0.593362        16.1462 
 179   0.0000       0.597593        16.2613 
 180   0.0000       0.606377        16.5004 
 181   0.0000       0.608725        16.5642 
 182   0.0000       0.618525        16.8309 
 183   0.0000       0.620624        16.8880 
 184   0.0000       0.626104        17.0372 
 185   0.0000       0.631642        17.1878 
 186   0.0000       0.638625        17.3779 
 187   0.0000       0.638684        17.3795 
 188   0.0000       0.642834        17.4924 
 189   0.0000       0.642992        17.4967 
 190   0.0000       0.648520        17.6471 
 191   0.0000       0.654488        17.8095 
 192   0.0000       0.655696        17.8424 
 193   0.0000       0.656185        17.8557 
 194   0.0000       0.660153        17.9637 
 195   0.0000       0.662180        18.0188 
 196   0.0000       0.665051        18.0970 
 197   0.0000       0.665759        18.1162 
 198   0.0000       0.671360        18.2686 
 199   0.0000       0.674517        18.3545 
 200   0.0000       0.678107        18.4522 
 201   0.0000       0.682694        18.5771 
 202   0.0000       0.683971        18.6118 
 203   0.0000       0.685835        18.6625 
 204   0.0000       0.689161        18.7530 
 205   0.0000       0.691857        18.8264 
 206   0.0000       0.694358        18.8944 
 207   0.0000       0.703626        19.1466 
 208   0.0000       0.707423        19.2500 
 209   0.0000       0.716290        19.4912 
 210   0.0000       0.719378        19.5753 
 211   0.0000       0.729240        19.8436 
 212   0.0000       0.729534        19.8516 
 213   0.0000       0.735559        20.0156 
 214   0.0000       0.739412        20.1204 
 215   0.0000       0.745321        20.2812 
 216   0.0000       0.750833        20.4312 
 217   0.0000       0.758917        20.6512 
 218   0.0000       0.767983        20.8979 
 219   0.0000       0.780340        21.2341 
 220   0.0000       0.784813        21.3558 
 221   0.0000       0.793859        21.6020 
 222   0.0000       0.812243        22.1022 
 223   0.0000       0.816911        22.2293 
 224   0.0000       0.833409        22.6782 
 225   0.0000       0.833832        22.6897 
 226   0.0000       0.841995        22.9119 
 227   0.0000       0.851126        23.1603 
 228   0.0000       0.866191        23.5703 
 229   0.0000       0.869641        23.6641 
 230   0.0000       0.882207        24.0061 
 231   0.0000       0.888842        24.1866 
 232   0.0000       0.900909        24.5150 
 233   0.0000       0.912453        24.8291 
 234   0.0000       0.915386        24.9089 
 235   0.0000       0.916539        24.9403 
 236   0.0000       0.928457        25.2646 
 237   0.0000       0.938477        25.5373 
 238   0.0000       0.953007        25.9326 
 239   0.0000       0.958878        26.0924 
 240   0.0000       0.974046        26.5051 
 241   0.0000       0.976166        26.5628 
 242   0.0000       0.981866        26.7179 
 243   0.0000       0.988697        26.9038 
 244   0.0000       0.994248        27.0549 
 245   0.0000       0.994822        27.0705 
 246   0.0000       1.002030        27.2666 
 247   0.0000       1.018646        27.7188 
 248   0.0000       1.026900        27.9434 
 249   0.0000       1.032539        28.0968 
 250   0.0000       1.039744        28.2929 
 251   0.0000       1.041363        28.3369 
 252   0.0000       1.041802        28.3489 
 253   0.0000       1.052041        28.6275 
 254   0.0000       1.059147        28.8208 
 255   0.0000       1.059437        28.8288 
 256   0.0000       1.071754        29.1639 
 257   0.0000       1.072341        29.1799 
 258   0.0000       1.092500        29.7284 
 259   0.0000       1.103134        30.0178 
 260   0.0000       1.116476        30.3809 
 261   0.0000       1.133497        30.8440 
 262   0.0000       1.152526        31.3618 
 263   0.0000       1.155087        31.4315 
 264   0.0000       1.171182        31.8695 
 265   0.0000       1.181636        32.1540 
 266   0.0000       1.196098        32.5475 
 267   0.0000       1.203355        32.7450 
 268   0.0000       1.207483        32.8573 
 269   0.0000       1.209953        32.9245 
 270   0.0000       1.217701        33.1353 
 271   0.0000       1.218140        33.1473 
 272   0.0000       1.221985        33.2519 
 273   0.0000       1.231915        33.5221 
 274   0.0000       1.234965        33.6051 
 275   0.0000       1.254855        34.1463 
 276   0.0000       1.279216        34.8092 
 277   0.0000       1.291543        35.1447 
 278   0.0000       1.295898        35.2632 
 279   0.0000       1.300412        35.3860 
 280   0.0000       1.315238        35.7895 
 281   0.0000       1.316079        35.8123 
 282   0.0000       1.332603        36.2620 
 283   0.0000       1.339821        36.4584 
 284   0.0000       1.340967        36.4896 
 285   0.0000       1.364696        37.1353 
 286   0.0000       1.372816        37.3562 
 287   0.0000       1.384536        37.6752 
 288   0.0000       1.389473        37.8095 
 289   0.0000       1.392391        37.8889 
 290   0.0000       1.408038        38.3147 
 291   0.0000       1.419561        38.6282 
 292   0.0000       1.421396        38.6782 
 293   0.0000       1.425170        38.7808 
 294   0.0000       1.426703        38.8226 
 295   0.0000       1.436860        39.0990 
 296   0.0000       1.446422        39.3591 
 297   0.0000       1.453764        39.5589 
 298   0.0000       1.468120        39.9496 
 299   0.0000       1.471595        40.0441 
 300   0.0000       1.479901        40.2702 
 301   0.0000       1.482724        40.3470 
 302   0.0000       1.483879        40.3784 
 303   0.0000       1.494099        40.6565 
 304   0.0000       1.500250        40.8239 
 305   0.0000       1.502521        40.8857 
 306   0.0000       1.511468        41.1291 
 307   0.0000       1.523778        41.4641 
 308   0.0000       1.529185        41.6112 
 309   0.0000       1.543852        42.0104 
 310   0.0000       1.551801        42.2266 
 311   0.0000       1.576982        42.9119 
 312   0.0000       1.583878        43.0995 
 313   0.0000       1.584617        43.1196 
 314   0.0000       1.591951        43.3192 
 315   0.0000       1.598312        43.4923 
 316   0.0000       1.601626        43.5825 
 317   0.0000       1.604842        43.6700 
 318   0.0000       1.612166        43.8693 
 319   0.0000       1.616194        43.9789 
 320   0.0000       1.623591        44.1802 
 321   0.0000       1.627369        44.2830 
 322   0.0000       1.630655        44.3724 
 323   0.0000       1.633343        44.4455 
 324   0.0000       1.638019        44.5728 
 325   0.0000       1.640182        44.6316 
 326   0.0000       1.642478        44.6941 
 327   0.0000       1.646148        44.7940 
 328   0.0000       1.648328        44.8533 
 329   0.0000       1.652168        44.9578 
 330   0.0000       1.660187        45.1760 
 331   0.0000       1.670694        45.4619 
 332   0.0000       1.671432        45.4820 
 333   0.0000       1.672942        45.5231 
 334   0.0000       1.682572        45.7851 
 335   0.0000       1.685554        45.8663 
 336   0.0000       1.688763        45.9536 
 337   0.0000       1.688794        45.9544 
 338   0.0000       1.695856        46.1466 
 339   0.0000       1.699296        46.2402 
 340   0.0000       1.703186        46.3460 
 341   0.0000       1.706767        46.4435 
 342   0.0000       1.709578        46.5200 
 343   0.0000       1.718202        46.7547 
 344   0.0000       1.719966        46.8027 
 345   0.0000       1.742160        47.4066 
 346   0.0000       1.742615        47.4190 
 347   0.0000       1.748919        47.5905 
 348   0.0000       1.750238        47.6264 
 349   0.0000       1.761804        47.9411 
 350   0.0000       1.768507        48.1235 
 351   0.0000       1.771243        48.1980 
 352   0.0000       1.781665        48.4816 
 353   0.0000       1.784648        48.5627 
 354   0.0000       1.789860        48.7046 
 355   0.0000       1.794309        48.8256 
 356   0.0000       1.800110        48.9835 
 357   0.0000       1.803600        49.0785 
 358   0.0000       1.808772        49.2192 
 359   0.0000       1.813201        49.3397 
 360   0.0000       1.826599        49.7043 
 361   0.0000       1.830305        49.8051 
 362   0.0000       1.836907        49.9848 
 363   0.0000       1.843487        50.1638 
 364   0.0000       1.847876        50.2833 
 365   0.0000       1.852657        50.4134 
 366   0.0000       1.854051        50.4513 
 367   0.0000       1.859117        50.5891 
 368   0.0000       1.877446        51.0879 
 369   0.0000       1.883022        51.2396 
 370   0.0000       1.892296        51.4920 
 371   0.0000       1.903625        51.8003 
 372   0.0000       1.921951        52.2989 
 373   0.0000       1.922733        52.3202 
 374   0.0000       1.927229        52.4426 
 375   0.0000       1.934719        52.6464 
 376   0.0000       1.943909        52.8965 
 377   0.0000       1.953150        53.1479 
 378   0.0000       1.965633        53.4876 
 379   0.0000       1.973524        53.7023 
 380   0.0000       1.985558        54.0298 
 381   0.0000       1.989660        54.1414 
 382   0.0000       1.994216        54.2654 
 383   0.0000       1.994890        54.2837 
 384   0.0000       2.015860        54.8543 
 385   0.0000       2.027924        55.1826 
 386   0.0000       2.037437        55.4415 
 387   0.0000       2.067957        56.2720 
 388   0.0000       2.071486        56.3680 
 389   0.0000       2.075065        56.4654 
 390   0.0000       2.075598        56.4799 
 391   0.0000       2.089046        56.8458 
 392   0.0000       2.101721        57.1907 
 393   0.0000       2.120928        57.7134 
 394   0.0000       2.126087        57.8538 
 395   0.0000       2.149321        58.4860 
 396   0.0000       2.155562        58.6558 
 397   0.0000       2.156093        58.6703 
 398   0.0000       2.189368        59.5757 
 399   0.0000       2.196779        59.7774 
 400   0.0000       2.198789        59.8321 
 401   0.0000       2.203902        59.9712 
 402   0.0000       2.210497        60.1507 
 403   0.0000       2.217799        60.3494 
 404   0.0000       2.225285        60.5531 
 405   0.0000       2.230106        60.6843 
 406   0.0000       2.237561        60.8871 
 407   0.0000       2.244627        61.0794 
 408   0.0000       2.270625        61.7868 
 409   0.0000       2.283103        62.1264 
 410   0.0000       2.292547        62.3834 
 411   0.0000       2.298113        62.5348 
 412   0.0000       2.302649        62.6583 
 413   0.0000       2.321577        63.1733 
 414   0.0000       2.325239        63.2730 
 415   0.0000       2.336073        63.5678 
 416   0.0000       2.352729        64.0210 
 417   0.0000       2.369321        64.4725 
 418   0.0000       2.371171        64.5229 
 419   0.0000       2.406962        65.4968 
 420   0.0000       2.409670        65.5704 
 421   0.0000       2.412292        65.6418 
 422   0.0000       2.412735        65.6538 
 423   0.0000       2.413362        65.6709 
 424   0.0000       2.417953        65.7958 
 425   0.0000       2.420463        65.8641 
 426   0.0000       2.429272        66.1038 
 427   0.0000       2.443872        66.5011 
 428   0.0000       2.451767        66.7160 
 429   0.0000       2.453784        66.7709 
 430   0.0000       2.482935        67.5641 
 431   0.0000       2.508132        68.2497 
 432   0.0000       2.529103        68.8204 
 433   0.0000       2.540327        69.1258 
 434   0.0000       2.540562        69.1322 
 435   0.0000       2.556770        69.5733 
 436   0.0000       2.581840        70.2554 
 437   0.0000       2.600842        70.7725 
 438   0.0000       2.615771        71.1787 
 439   0.0000       2.628082        71.5137 
 440   0.0000       2.635372        71.7121 
 441   0.0000       2.642089        71.8949 
 442   0.0000       2.665470        72.5311 
 443   0.0000       2.680636        72.9438 
 444   0.0000       2.705548        73.6217 
 445   0.0000       2.714189        73.8568 
 446   0.0000       2.720701        74.0340 
 447   0.0000       2.723067        74.0984 
 448   0.0000       2.732738        74.3616 
 449   0.0000       2.776240        75.5453 
 450   0.0000       2.818906        76.7063 
 451   0.0000       2.847733        77.4908 
 452   0.0000       2.860981        77.8512 
 453   0.0000       2.877020        78.2877 
 454   0.0000       2.907200        79.1089 
 455   0.0000       2.945176        80.1423 
 456   0.0000       3.088550        84.0437 
 457   0.0000       3.120904        84.9241 
 458   0.0000       3.193241        86.8925 
 459   0.0000       3.394755        92.3760 
 460   0.0000       3.584532        97.5401 

                 SPIN DOWN ORBITALS
  NO   OCC          E(Eh)            E(eV) 
   0   1.0000     -10.215840      -277.9871 
   1   1.0000     -10.213284      -277.9176 
   2   1.0000     -10.210956      -277.8542 
   3   1.0000     -10.200859      -277.5795 
   4   1.0000     -10.199326      -277.5378 
   5   1.0000     -10.196101      -277.4500 
   6   1.0000     -10.195842      -277.4430 
   7   1.0000     -10.194928      -277.4181 
   8   1.0000     -10.194618      -277.4097 
   9   1.0000     -10.194276      -277.4004 
  10   1.0000     -10.192151      -277.3425 
  11   1.0000     -10.191303      -277.3195 
  12   1.0000     -10.191150      -277.3153 
  13   1.0000     -10.189131      -277.2604 
  14   1.0000     -10.188802      -277.2514 
  15   1.0000     -10.186741      -277.1953 
  16   1.0000     -10.186709      -277.1944 
  17   1.0000     -10.186650      -277.1928 
  18   1.0000     -10.184378      -277.1310 
  19   1.0000     -10.182727      -277.0861 
  20   1.0000     -10.181594      -277.0553 
  21   1.0000     -10.181400      -277.0500 
  22   1.0000     -10.177417      -276.9416 
  23   1.0000     -10.175499      -276.8894 
  24   1.0000      -0.870593       -23.6901 
  25   1.0000      -0.862047       -23.4575 
  26   1.0000      -0.815200       -22.1827 
  27   1.0000      -0.796355       -21.6699 
  28   1.0000      -0.794691       -21.6246 
  29   1.0000      -0.777270       -21.1506 
  30   1.0000      -0.765724       -20.8364 
  31   1.0000      -0.749886       -20.4054 
  32   1.0000      -0.743508       -20.2319 
  33   1.0000      -0.726478       -19.7685 
  34   1.0000      -0.712762       -19.3952 
  35   1.0000      -0.695512       -18.9258 
  36   1.0000      -0.653838       -17.7918 
  37   1.0000      -0.642595       -17.4859 
  38   1.0000      -0.614387       -16.7183 
  39   1.0000      -0.609831       -16.5943 
  40   1.0000      -0.607914       -16.5422 
  41   1.0000      -0.591757       -16.1025 
  42   1.0000      -0.578765       -15.7490 
  43   1.0000      -0.559659       -15.2291 
  44   1.0000      -0.540219       -14.7001 
  45   1.0000      -0.528002       -14.3677 
  46   1.0000      -0.503527       -13.7017 
  47   1.0000      -0.490999       -13.3608 
  48   1.0000      -0.478658       -13.0249 
  49   1.0000      -0.475047       -12.9267 
  50   1.0000      -0.469542       -12.7769 
  51   1.0000      -0.459207       -12.4957 
  52   1.0000      -0.456642       -12.4259 
  53   1.0000      -0.435331       -11.8459 
  54   1.0000      -0.430491       -11.7143 
  55   1.0000      -0.428170       -11.6511 
  56   1.0000      -0.425018       -11.5653 
  57   1.0000      -0.423307       -11.5188 
  58   1.0000      -0.419009       -11.4018 
  59   1.0000      -0.411346       -11.1933 
  60   1.0000      -0.396900       -10.8002 
  61   1.0000      -0.391146       -10.6436 
  62   1.0000      -0.381270       -10.3749 
  63   1.0000      -0.376370       -10.2416 
  64   1.0000      -0.374446       -10.1892 
  65   1.0000      -0.364167        -9.9095 
  66   1.0000      -0.360552        -9.8111 
  67   1.0000      -0.355635        -9.6773 
  68   1.0000      -0.350722        -9.5436 
  69   1.0000      -0.349516        -9.5108 
  70   1.0000      -0.338200        -9.2029 
  71   1.0000      -0.332435        -9.0460 
  72   1.0000      -0.329876        -8.9764 
  73   1.0000      -0.329012        -8.9529 
  74   1.0000      -0.327188        -8.9032 
  75   1.0000      -0.323409        -8.8004 
  76   1.0000      -0.320649        -8.7253 
  77   1.0000      -0.296871        -8.0783 
  78   1.0000      -0.275070        -7.4850 
  79   1.0000      -0.267011        -7.2658 
  80   1.0000      -0.259951        -7.0736 
  81   1.0000      -0.257385        -7.0038 
  82   1.0000      -0.250530        -6.8173 
  83   1.0000      -0.210244        -5.7210 
  84   0.0000      -0.085884        -2.3370 
  85   0.0000      -0.048577        -1.3218 
  86   0.0000      -0.008944        -0.2434 
  87   0.0000      -0.006431        -0.1750 
  88   0.0000       0.029342         0.7984 
  89   0.0000       0.041977         1.1423 
  90   0.0000       0.050707         1.3798 
  91   0.0000       0.055345         1.5060 
  92   0.0000       0.063051         1.7157 
  93   0.0000       0.064308         1.7499 
  94   0.0000       0.075500         2.0545 
  95   0.0000       0.078846         2.1455 
  96   0.0000       0.084475         2.2987 
  97   0.0000       0.087135         2.3711 
  98   0.0000       0.092531         2.5179 
  99   0.0000       0.094578         2.5736 
 100   0.0000       0.095809         2.6071 
 101   0.0000       0.102420         2.7870 
 102   0.0000       0.103902         2.8273 
 103   0.0000       0.117591         3.1998 
 104   0.0000       0.121679         3.3110 
 105   0.0000       0.126271         3.4360 
 106   0.0000       0.130522         3.5517 
 107   0.0000       0.134710         3.6656 
 108   0.0000       0.144760         3.9391 
 109   0.0000       0.146448         3.9850 
 110   0.0000       0.150521         4.0959 
 111   0.0000       0.160273         4.3613 
 112   0.0000       0.160456         4.3662 
 113   0.0000       0.162710         4.4276 
 114   0.0000       0.167199         4.5497 
 115   0.0000       0.170984         4.6527 
 116   0.0000       0.172393         4.6910 
 117   0.0000       0.180563         4.9134 
 118   0.0000       0.186295         5.0693 
 119   0.0000       0.205879         5.6023 
 120   0.0000       0.215019         5.8510 
 121   0.0000       0.217998         5.9320 
 122   0.0000       0.219968         5.9856 
 123   0.0000       0.220081         5.9887 
 124   0.0000       0.227265         6.1842 
 125   0.0000       0.245039         6.6678 
 126   0.0000       0.249123         6.7790 
 127   0.0000       0.264737         7.2039 
 128   0.0000       0.279858         7.6153 
 129   0.0000       0.282807         7.6956 
 130   0.0000       0.291980         7.9452 
 131   0.0000       0.292809         7.9677 
 132   0.0000       0.311373         8.4729 
 133   0.0000       0.316073         8.6008 
 134   0.0000       0.321138         8.7386 
 135   0.0000       0.334635         9.1059 
 136   0.0000       0.343473         9.3464 
 137   0.0000       0.360181         9.8010 
 138   0.0000       0.368942        10.0394 
 139   0.0000       0.376229        10.2377 
 140   0.0000       0.398449        10.8423 
 141   0.0000       0.410387        11.1672 
 142   0.0000       0.412381        11.2215 
 143   0.0000       0.413560        11.2535 
 144   0.0000       0.420230        11.4350 
 145   0.0000       0.422730        11.5031 
 146   0.0000       0.432404        11.7663 
 147   0.0000       0.442803        12.0493 
 148   0.0000       0.447210        12.1692 
 149   0.0000       0.449091        12.2204 
 150   0.0000       0.451026        12.2730 
 151   0.0000       0.458828        12.4853 
 152   0.0000       0.468600        12.7512 
 153   0.0000       0.473124        12.8743 
 154   0.0000       0.474049        12.8995 
 155   0.0000       0.475301        12.9336 
 156   0.0000       0.480979        13.0881 
 157   0.0000       0.483597        13.1593 
 158   0.0000       0.491696        13.3797 
 159   0.0000       0.502342        13.6694 
 160   0.0000       0.504146        13.7185 
 161   0.0000       0.507041        13.7973 
 162   0.0000       0.508787        13.8448 
 163   0.0000       0.510959        13.9039 
 164   0.0000       0.515821        14.0362 
 165   0.0000       0.516214        14.0469 
 166   0.0000       0.516514        14.0551 
 167   0.0000       0.521066        14.1789 
 168   0.0000       0.527414        14.3517 
 169   0.0000       0.531612        14.4659 
 170   0.0000       0.539720        14.6865 
 171   0.0000       0.547449        14.8968 
 172   0.0000       0.561764        15.2864 
 173   0.0000       0.568945        15.4818 
 174   0.0000       0.574116        15.6225 
 175   0.0000       0.576576        15.6894 
 176   0.0000       0.588488        16.0136 
 177   0.0000       0.591672        16.1002 
 178   0.0000       0.594186        16.1686 
 179   0.0000       0.599221        16.3056 
 180   0.0000       0.606802        16.5119 
 181   0.0000       0.609887        16.5959 
 182   0.0000       0.618862        16.8401 
 183   0.0000       0.625162        17.0115 
 184   0.0000       0.626624        17.0513 
 185   0.0000       0.632033        17.1985 
 186   0.0000       0.638783        17.3822 
 187   0.0000       0.639138        17.3918 
 188   0.0000       0.643031        17.4978 
 189   0.0000       0.645156        17.5556 
 190   0.0000       0.649020        17.6607 
 191   0.0000       0.654894        17.8206 
[...]
  Y           0.9692859           -0.2459323            0.0014415
  Z           0.0016213            0.0005288           -0.9999985

Notes:  (1) The A matrix conforms to the "SAI" spin Hamiltonian convention.
        (2) Tensor is right-handed.

 -----------------------------------------------------------
 Nucleus  46H : A:ISTP=    1 I=  0.5 P=533.5514 MHz/au**3
                Q:ISTP=    2 I=  1.0 Q=  0.0029 barn     
 -----------------------------------------------------------
 Solving for nuclear perturbation:
Forming RHS of the CP-SCF equations         ... 
Calc. nucleus orbit integrals (SHARK)       ... done

------------------------------------------------------------------------------
                           ORCA CP-SCF CALCULATION
------------------------------------------------------------------------------

Input orbitals are from        ... cc-pVDZ.gbw
Input Perturbation             ... cc-pVDZ.pin.tmp
Wavefunction output            ... cc-pVDZ.pout.tmp
Perturbation mode              ... Imaginary perturbation
Solver                         ... POPLE
Max. number of iterations      ... 64
Convergence tolerance          ... 1.000e-03
Integral handling              ... Direct
DFT GridXC                     ... 1
COSX GridX                     ... 1
COSX IntAccX                   ... 3.067
COSX Algorithm                 ... Auto
Number of perturbations        ... 3
Number of operators            ... 2
Orbital ranges used for CP-SCF:
 Operator 0:  Orbitals   0... 84  to  85...460
 Operator 1:  Orbitals   0... 83  to  84...460
Variables per perturbation     ... 63628
DFT calculation                         ... on
XC functional terms                     ... off
Hybrid DFT                              ... on
   Exchange mixing (SCF)                ...  0.200
   Exchange mixing (CP-SCF)             ...  0.200
   GGA exch. scaling(SCF)               ...  0.720
   GGA exch. scaling (CP-SCF)           ...  0.720
   GGA corr. scaling (SCF)              ...  0.810
   GGA corr. scaling (CP-SCF)           ...  0.810

CP-SCF GRID
-----------

General Integration Accuracy     IntAcc      ... 3.467
Radial Grid Type                 RadialGrid  ... OptM3 with GC (2021)
Angular Grid (max. ang.)         AngularGrid ... 1 (Lebedev-50)
Angular grid pruning method      GridPruning ... 4 (adaptive)
Weight generation scheme         WeightScheme... Becke
Basis function cutoff            BFCut       ... 1.0000e-10
Integration weight cutoff        WCut        ... 1.0000e-14
Angular grids for H and He will be reduced by one unit
Partially contracted basis set               ... off
Rotationally invariant grid construction     ... off

Total number of grid points                  ...    31901
Total number of batches                      ...      518
Average number of points per batch           ...       61
Average number of grid points per atom       ...      651

CP-SCF GRIDX
------------

General Integration Accuracy     IntAcc      ... 3.067
Radial Grid Type                 RadialGrid  ... OptM3 with GC (2021)
Angular Grid (max. ang.)         AngularGrid ... 1 (Lebedev-50)
Angular grid pruning method      GridPruning ... 4 (adaptive)
Weight generation scheme         WeightScheme... Becke
Basis function cutoff            BFCut       ... 1.0000e-10
Integration weight cutoff        WCut        ... 1.0000e-14
Angular grids for H and He will be reduced by one unit
Partially contracted basis set               ... on
Rotationally invariant grid construction     ... off

Total number of grid points                  ...    14955
Total number of batches                      ...      263
Average number of points per batch           ...       56
Average number of grid points per atom       ...      305

Memory available               ... 875.9 MB
Memory needed per perturbation ...  13.4 MB
Perturbations treated per batch... 3
Number of batches              ... 1
     CP-SCF ITERATION   0:   4.1648e-02 (   1.9 sec   0/  3 done)
     CP-SCF ITERATION   1:   1.7123e-03 (   1.8 sec   2/  3 done)
     CP-SCF ITERATION   2:   9.0175e-05 (   1.2 sec   3/  3 done)
                    *** THE CP-SCF HAS CONVERGED ***

Forming final perturbed densities           ... done
Transforming perturbed density to AO basis  ... done

 Raw HFC matrix (all values in MHz): 
 -----------------------------------
                 1.3393              -0.2673               0.0021
                -0.2673               0.5256              -0.0005
                 0.0021              -0.0005               0.3243

 A(FC)           0.7298               0.7298               0.7298
 A(SD)          -0.4054              -0.2842               0.6896
 A(ORB+DIA)     -0.0000               0.0001              -0.0002    A(PC) =  -0.0000
 A(ORB)         -0.0000               0.0001              -0.0002    A(PC) =  -0.0000
 A(DIA)          0.0000               0.0000               0.0000    A(PC) =   0.0000
             ----------           ----------           ----------
 A(Tot)          0.3243               0.4456               1.4192    A(iso)=    0.7297
 Orientation: 
  X          -0.0021511           -0.2865494            0.9580630
  Y          -0.0004571           -0.9580649           -0.2865510
  Z           0.9999976           -0.0010543            0.0019299

Notes:  (1) The A matrix conforms to the "SAI" spin Hamiltonian convention.
        (2) Tensor is right-handed.

 -----------------------------------------------------------
 Nucleus  47H : A:ISTP=    1 I=  0.5 P=533.5514 MHz/au**3
                Q:ISTP=    2 I=  1.0 Q=  0.0029 barn     
 -----------------------------------------------------------
 Solving for nuclear perturbation:
Forming RHS of the CP-SCF equations         ... 
Calc. nucleus orbit integrals (SHARK)       ... done

------------------------------------------------------------------------------
                           ORCA CP-SCF CALCULATION
------------------------------------------------------------------------------

Input orbitals are from        ... cc-pVDZ.gbw
Input Perturbation             ... cc-pVDZ.pin.tmp
Wavefunction output            ... cc-pVDZ.pout.tmp
Perturbation mode              ... Imaginary perturbation
Solver                         ... POPLE
Max. number of iterations      ... 64
Convergence tolerance          ... 1.000e-03
Integral handling              ... Direct
DFT GridXC                     ... 1
COSX GridX                     ... 1
COSX IntAccX                   ... 3.067
COSX Algorithm                 ... Auto
Number of perturbations        ... 3
Number of operators            ... 2
Orbital ranges used for CP-SCF:
 Operator 0:  Orbitals   0... 84  to  85...460
 Operator 1:  Orbitals   0... 83  to  84...460
Variables per perturbation     ... 63628
DFT calculation                         ... on
XC functional terms                     ... off
Hybrid DFT                              ... on
   Exchange mixing (SCF)                ...  0.200
   Exchange mixing (CP-SCF)             ...  0.200
   GGA exch. scaling(SCF)               ...  0.720
   GGA exch. scaling (CP-SCF)           ...  0.720
   GGA corr. scaling (SCF)              ...  0.810
   GGA corr. scaling (CP-SCF)           ...  0.810

CP-SCF GRID
-----------

General Integration Accuracy     IntAcc      ... 3.467
Radial Grid Type                 RadialGrid  ... OptM3 with GC (2021)
Angular Grid (max. ang.)         AngularGrid ... 1 (Lebedev-50)
Angular grid pruning method      GridPruning ... 4 (adaptive)
Weight generation scheme         WeightScheme... Becke
Basis function cutoff            BFCut       ... 1.0000e-10
Integration weight cutoff        WCut        ... 1.0000e-14
Angular grids for H and He will be reduced by one unit
Partially contracted basis set               ... off
Rotationally invariant grid construction     ... off

Total number of grid points                  ...    31901
Total number of batches                      ...      518
Average number of points per batch           ...       61
Average number of grid points per atom       ...      651

CP-SCF GRIDX
------------

General Integration Accuracy     IntAcc      ... 3.067
Radial Grid Type                 RadialGrid  ... OptM3 with GC (2021)
Angular Grid (max. ang.)         AngularGrid ... 1 (Lebedev-50)
Angular grid pruning method      GridPruning ... 4 (adaptive)
Weight generation scheme         WeightScheme... Becke
Basis function cutoff            BFCut       ... 1.0000e-10
Integration weight cutoff        WCut        ... 1.0000e-14
Angular grids for H and He will be reduced by one unit
Partially contracted basis set               ... on
Rotationally invariant grid construction     ... off

Total number of grid points                  ...    14955
Total number of batches                      ...      263
Average number of points per batch           ...       56
Average number of grid points per atom       ...      305

Memory available               ... 875.3 MB
Memory needed per perturbation ...  13.4 MB
Perturbations treated per batch... 3
Number of batches              ... 1
     CP-SCF ITERATION   0:   4.1612e-02 (   1.8 sec   0/  3 done)
     CP-SCF ITERATION   1:   1.6872e-03 (   1.9 sec   2/  3 done)
     CP-SCF ITERATION   2:   7.7525e-05 (   1.2 sec   3/  3 done)
                    *** THE CP-SCF HAS CONVERGED ***

Forming final perturbed densities           ... done
Transforming perturbed density to AO basis  ... done

 Raw HFC matrix (all values in MHz): 
 -----------------------------------
                 1.1919               0.0441               0.0020
                 0.0441               0.6180               0.0004
                 0.0020               0.0004               0.3810

 A(FC)           0.7303               0.7303               0.7303
 A(SD)          -0.3493              -0.1158               0.4651
 A(ORB+DIA)      0.0000               0.0001              -0.0001    A(PC) =  -0.0000
 A(ORB)         -0.0000               0.0001              -0.0002    A(PC) =  -0.0000
 A(DIA)          0.0000              -0.0000               0.0001    A(PC) =   0.0000
             ----------           ----------           ----------
 A(Tot)          0.3810               0.6146               1.1952    A(iso)=    0.7303
 Orientation: 
  X          -0.0023538           -0.0762585           -0.9970853
  Y          -0.0013622            0.9970874           -0.0762554
  Z           0.9999963            0.0011788           -0.0024508

Notes:  (1) The A matrix conforms to the "SAI" spin Hamiltonian convention.
        (2) Tensor is right-handed.

 -----------------------------------------------------------
 Nucleus  48H : A:ISTP=    1 I=  0.5 P=533.5514 MHz/au**3
                Q:ISTP=    2 I=  1.0 Q=  0.0029 barn     
 -----------------------------------------------------------
 Solving for nuclear perturbation:
Forming RHS of the CP-SCF equations         ... 
Calc. nucleus orbit integrals (SHARK)       ... done

------------------------------------------------------------------------------
                           ORCA CP-SCF CALCULATION
------------------------------------------------------------------------------

Input orbitals are from        ... cc-pVDZ.gbw
Input Perturbation             ... cc-pVDZ.pin.tmp
Wavefunction output            ... cc-pVDZ.pout.tmp
Perturbation mode              ... Imaginary perturbation
Solver                         ... POPLE
Max. number of iterations      ... 64
Convergence tolerance          ... 1.000e-03
Integral handling              ... Direct
DFT GridXC                     ... 1
COSX GridX                     ... 1
COSX IntAccX                   ... 3.067
COSX Algorithm                 ... Auto
Number of perturbations        ... 3
Number of operators            ... 2
Orbital ranges used for CP-SCF:
 Operator 0:  Orbitals   0... 84  to  85...460
 Operator 1:  Orbitals   0... 83  to  84...460
Variables per perturbation     ... 63628
DFT calculation                         ... on
XC functional terms                     ... off
Hybrid DFT                              ... on
   Exchange mixing (SCF)                ...  0.200
   Exchange mixing (CP-SCF)             ...  0.200
   GGA exch. scaling(SCF)               ...  0.720
   GGA exch. scaling (CP-SCF)           ...  0.720
   GGA corr. scaling (SCF)              ...  0.810
   GGA corr. scaling (CP-SCF)           ...  0.810

CP-SCF GRID
-----------

General Integration Accuracy     IntAcc      ... 3.467
Radial Grid Type                 RadialGrid  ... OptM3 with GC (2021)
Angular Grid (max. ang.)         AngularGrid ... 1 (Lebedev-50)
Angular grid pruning method      GridPruning ... 4 (adaptive)
Weight generation scheme         WeightScheme... Becke
Basis function cutoff            BFCut       ... 1.0000e-10
Integration weight cutoff        WCut        ... 1.0000e-14
Angular grids for H and He will be reduced by one unit
Partially contracted basis set               ... off
Rotationally invariant grid construction     ... off

Total number of grid points                  ...    31901
Total number of batches                      ...      518
Average number of points per batch           ...       61
Average number of grid points per atom       ...      651

CP-SCF GRIDX
------------

General Integration Accuracy     IntAcc      ... 3.067
Radial Grid Type                 RadialGrid  ... OptM3 with GC (2021)
Angular Grid (max. ang.)         AngularGrid ... 1 (Lebedev-50)
Angular grid pruning method      GridPruning ... 4 (adaptive)
Weight generation scheme         WeightScheme... Becke
Basis function cutoff            BFCut       ... 1.0000e-10
Integration weight cutoff        WCut        ... 1.0000e-14
Angular grids for H and He will be reduced by one unit
Partially contracted basis set               ... on
Rotationally invariant grid construction     ... off

Total number of grid points                  ...    14955
Total number of batches                      ...      263
Average number of points per batch           ...       56
Average number of grid points per atom       ...      305

Memory available               ... 874.8 MB
Memory needed per perturbation ...  13.4 MB
Perturbations treated per batch... 3
Number of batches              ... 1
     CP-SCF ITERATION   0:   4.5832e-02 (   1.9 sec   0/  3 done)
     CP-SCF ITERATION   1:   2.0699e-03 (   1.9 sec   0/  3 done)
     CP-SCF ITERATION   2:   1.4367e-04 (   1.9 sec   3/  3 done)
                    *** THE CP-SCF HAS CONVERGED ***

Forming final perturbed densities           ... done
Transforming perturbed density to AO basis  ... done

 Raw HFC matrix (all values in MHz): 
 -----------------------------------
                -1.0452              -0.5695               0.0020
                -0.5693              -1.4654              -0.0008
                 0.0020              -0.0008              -2.5279

 A(FC)          -1.6799              -1.6799              -1.6799
 A(SD)           1.0309              -0.1831              -0.8478
 A(ORB+DIA)      0.0006               0.0008              -0.0001    A(PC) =   0.0004
 A(ORB)          0.0005               0.0006               0.0000    A(PC) =   0.0004
 A(DIA)          0.0001               0.0001              -0.0001    A(PC) =   0.0000
             ----------           ----------           ----------
 A(Tot)         -0.6484              -1.8622              -2.5279    A(iso)=   -1.6795
 Orientation: 
  X          -0.8203982            0.5717909            0.0013799
  Y           0.5717915            0.8203990            0.0000266
  Z          -0.0011169            0.0008108           -0.9999990

Notes:  (1) The A matrix conforms to the "SAI" spin Hamiltonian convention.
        (2) Tensor is right-handed.


--------------------------------------------------------------------------------
----------------------------------------------------------------------------
                           ORCA EULER ANGLE PROGRAM
----------------------------------------------------------------------------

Only g-tensor available        -->  using g-tensor as reference tensor

Reference tensor               ...  g

g-tensor ordering              ...  |g_min> --> |gx>
                                    |g_mid> --> |gy>
                                    |g_max> --> |gz>

A- and EFG-tensor ordering     ...  the axes |Ax>, |Qx>, |Ay>, etc. are assigned
                                    such that the Euler rotation is minimal. You
                                    can find the respective eigenvalues as Ax,
                                    EFGx, Ay, etc. in the tables below.
                                    The relation of |Ax>, |Ay>,  etc. to Amin, Amid, etc.
                                    (as printed in the ORCA EPR/NMR CALCULATION Output)
                                    is obtained in the detailed printout.

Euler rotation around          ...  z - y - z
   First rotation              -->  by alpha around z
   Second rotation             -->  by beta around y'
   Third rotation              -->  by gamma around z''
   Positive / Negative angle   -->  clockwise / counterclockwise rotation

Plot EFG-tensors                    (-)
Plot HFC-tensors                    (-)
Detailed Printout                   (-)

-------------------------------------------------------------------------
          Euler rotation of hyperfine tensor to g-tensor
-------------------------------------------------------------------------

-------------------------------------------------------------------
 Atom  |   Alpha    Beta    Gamma   |   Ax       Ay       Az 
       |          [degrees]         |           [MHz]         
-------------------------------------------------------------------
  9H      -90.4      3.6     90.4     -15.90    -6.97   -19.43
 10H      -89.9      6.8     90.0       4.07     4.66     9.45
 12H      -90.0     44.1     90.0     -45.60   -70.30   -17.08
 14H      -18.2     12.1      0.3      56.29    65.72    57.56
 15H     -161.7     11.8    179.5      56.03    65.46    57.31
 17H       29.2     28.1    -58.3      -3.14    -2.97     3.12
 18H      150.7     28.0   -121.4      -3.13    -2.97     3.12
 20H     -129.1     47.1    152.3      -0.10     2.21     0.03
 21H      -50.7     47.4     27.5      -0.10     2.21     0.03
 23H     -139.8     17.4   -177.3      20.10    20.67    23.73
 24H      -40.2     17.4     -2.7      20.10    20.67    23.74
 26H      -81.9     30.1     94.9      -0.96     0.95    -0.83
 27H      -98.0     30.1     84.9      -0.96     0.95    -0.83
 29H       68.4     29.5   -107.7      -0.10    -0.14     0.79
 30H      111.6     29.5    -72.3      -0.10    -0.14     0.79
 32H      -95.3     43.5     87.1      -0.12     0.37    -0.10
 33H      -84.6     43.5     92.8      -0.12     0.37    -0.10
 35H       89.9     43.8    -90.0       3.17     2.09     4.77
 36H       91.2     38.4    -89.9      -0.78    -0.80     0.74
 37H       89.8     36.8    -90.0      -0.13    -0.13     0.24
 44H       89.9     42.2    -90.0      -1.96    -0.49    -3.04
 45H       89.9     33.1    -89.9      -2.22    -1.90    -0.91
 46H       89.9     30.7    -90.0       0.32     1.42     0.45
 47H      -89.8     38.3     89.8       0.38     0.61     1.20
 48H       89.9     12.5    -90.0      -2.53    -0.65    -1.86
-------------------------------------------------------------------


Maximum memory used throughout the entire EPRNMR-calculation: 219.5 MB

Timings for individual modules:

Sum of individual times         ...     4827.880 sec (=  80.465 min)
GTO integral calculation        ...        4.814 sec (=   0.080 min)   0.1 %
Spin-Orbit-Coupling Matrices    ...        9.330 sec (=   0.155 min)   0.2 %
SCF iterations                  ...       29.977 sec (=   0.500 min)   0.6 %
EPR/NMR calculation             ...     4783.759 sec (=  79.729 min)  99.1 %
                             ****ORCA TERMINATED NORMALLY****
TOTAL RUN TIME: 0 days 1 hours 20 minutes 32 seconds 294 msec
