
                                 *****************
                                 * O   R   C   A *
                                 *****************

                                            #,                                       
                                            ###                                      
                                            ####                                     
                                            #####                                    
                                            ######                                   
                                           ########,                                 
                                     ,,################,,,,,                         
                               ,,#################################,,                 
                          ,,##########################################,,             
                       ,#########################################, ''#####,          
                    ,#############################################,,   '####,        
                  ,##################################################,,,,####,       
                ,###########''''           ''''###############################       
              ,#####''   ,,,,##########,,,,          '''####'''          '####       
            ,##' ,,,,###########################,,,                        '##       
           ' ,,###''''                  '''############,,,                           
         ,,##''                                '''############,,,,        ,,,,,,###''
      ,#''                                            '''#######################'''  
     '                                                          ''''####''''         
             ,#######,   #######,   ,#######,      ##                                
            ,#'     '#,  ##    ##  ,#'     '#,    #''#        ######   ,####,        
            ##       ##  ##   ,#'  ##            #'  '#       #        #'  '#        
            ##       ##  #######   ##           ,######,      #####,   #    #        
            '#,     ,#'  ##    ##  '#,     ,#' ,#      #,         ##   #,  ,#        
             '#######'   ##     ##  '#######'  #'      '#     #####' # '####'        



                  #######################################################
                  #                        -***-                        #
                  #          Department of theory and spectroscopy      #
                  #    Directorship and core code : Frank Neese         #
                  #        Max Planck Institute fuer Kohlenforschung    #
                  #                Kaiser Wilhelm Platz 1               #
                  #                 D-45470 Muelheim/Ruhr               #
                  #                      Germany                        #
                  #                                                     #
                  #                  All rights reserved                #
                  #                        -***-                        #
                  #######################################################


                         Program Version 5.0.4 -  RELEASE  -


 With contributions from (in alphabetic order):
   Daniel Aravena         : Magnetic Suceptibility
   Michael Atanasov       : Ab Initio Ligand Field Theory (pilot matlab implementation)
   Alexander A. Auer      : GIAO ZORA, VPT2 properties, NMR spectrum
   Ute Becker             : Parallelization
   Giovanni Bistoni       : ED, misc. LED, open-shell LED, HFLD
   Martin Brehm           : Molecular dynamics
   Dmytro Bykov           : SCF Hessian
   Vijay G. Chilkuri      : MRCI spin determinant printing, contributions to CSF-ICE
   Dipayan Datta          : RHF DLPNO-CCSD density
   Achintya Kumar Dutta   : EOM-CC, STEOM-CC
   Dmitry Ganyushin       : Spin-Orbit,Spin-Spin,Magnetic field MRCI
   Miquel Garcia          : C-PCM and meta-GGA Hessian, CC/C-PCM, Gaussian charge scheme
   Yang Guo               : DLPNO-NEVPT2, F12-NEVPT2, CIM, IAO-localization
   Andreas Hansen         : Spin unrestricted coupled pair/coupled cluster methods
   Benjamin Helmich-Paris : MC-RPA, TRAH-SCF, COSX integrals
   Lee Huntington         : MR-EOM, pCC
   Robert Izsak           : Overlap fitted RIJCOSX, COSX-SCS-MP3, EOM
   Marcus Kettner         : VPT2
   Christian Kollmar      : KDIIS, OOCD, Brueckner-CCSD(T), CCSD density, CASPT2, CASPT2-K
   Simone Kossmann        : Meta GGA functionals, TD-DFT gradient, OOMP2, MP2 Hessian
   Martin Krupicka        : Initial AUTO-CI
   Lucas Lang             : DCDCAS
   Marvin Lechner         : AUTO-CI (C++ implementation), FIC-MRCC
   Dagmar Lenk            : GEPOL surface, SMD
   Dimitrios Liakos       : Extrapolation schemes; Compound Job, initial MDCI parallelization
   Dimitrios Manganas     : Further ROCIS development; embedding schemes
   Dimitrios Pantazis     : SARC Basis sets
   Anastasios Papadopoulos: AUTO-CI, single reference methods and gradients
   Taras Petrenko         : DFT Hessian,TD-DFT gradient, ASA, ECA, R-Raman, ABS, FL, XAS/XES, NRVS
   Peter Pinski           : DLPNO-MP2, DLPNO-MP2 Gradient
   Christoph Reimann      : Effective Core Potentials
   Marius Retegan         : Local ZFS, SOC
   Christoph Riplinger    : Optimizer, TS searches, QM/MM, DLPNO-CCSD(T), (RO)-DLPNO pert. Triples
   Tobias Risthaus        : Range-separated hybrids, TD-DFT gradient, RPA, STAB
   Michael Roemelt        : Original ROCIS implementation
   Masaaki Saitow         : Open-shell DLPNO-CCSD energy and density
   Barbara Sandhoefer     : DKH picture change effects
   Avijit Sen             : IP-ROCIS
   Kantharuban Sivalingam : CASSCF convergence, NEVPT2, FIC-MRCI
   Bernardo de Souza      : ESD, SOC TD-DFT
   Georgi Stoychev        : AutoAux, RI-MP2 NMR, DLPNO-MP2 response
   Willem Van den Heuvel  : Paramagnetic NMR
   Boris Wezisla          : Elementary symmetry handling
   Frank Wennmohs         : Technical directorship


 We gratefully acknowledge several colleagues who have allowed us to
 interface, adapt or use parts of their codes:
   Stefan Grimme, W. Hujo, H. Kruse, P. Pracht,  : VdW corrections, initial TS optimization,
                  C. Bannwarth, S. Ehlert          DFT functionals, gCP, sTDA/sTD-DF
   Ed Valeev, F. Pavosevic, A. Kumar             : LibInt (2-el integral package), F12 methods
   Garnet Chan, S. Sharma, J. Yang, R. Olivares  : DMRG
   Ulf Ekstrom                                   : XCFun DFT Library
   Mihaly Kallay                                 : mrcc  (arbitrary order and MRCC methods)
   Jiri Pittner, Ondrej Demel                    : Mk-CCSD
   Frank Weinhold                                : gennbo (NPA and NBO analysis)
   Christopher J. Cramer and Donald G. Truhlar   : smd solvation model
   Lars Goerigk                                  : TD-DFT with DH, B97 family of functionals
   V. Asgeirsson, H. Jonsson                     : NEB implementation
   FAccTs GmbH                                   : IRC, NEB, NEB-TS, DLPNO-Multilevel, CI-OPT
                                                   MM, QMMM, 2- and 3-layer-ONIOM, Crystal-QMMM,
                                                   LR-CPCM, SF, NACMEs, symmetry and pop. for TD-DFT,
                                                   nearIR, NL-DFT gradient (VV10), updates on ESD,
                                                   ML-optimized integration grids
   S Lehtola, MJT Oliveira, MAL Marques          : LibXC Library
   Liviu Ungur et al                             : ANISO software


 Your calculation uses the libint2 library for the computation of 2-el integrals
 For citations please refer to: http://libint.valeyev.net

 Your ORCA version has been built with support for libXC version: 5.1.0
 For citations please refer to: https://tddft.org/programs/libxc/

 This ORCA versions uses:
   CBLAS   interface :  Fast vector & matrix operations
   LAPACKE interface :  Fast linear algebra routines
   SCALAPACK package :  Parallel linear algebra routines
   Shared memory     :  Shared parallel matrices
   BLAS/LAPACK       :  OpenBLAS 0.3.15  USE64BITINT DYNAMIC_ARCH NO_AFFINITY SkylakeX SINGLE_THREADED
        Core in use  :  SkylakeX
   Copyright (c) 2011-2014, The OpenBLAS Project




***************************************
The coordinates will be read from file: opt.xyz
***************************************


================================================================================

----- Orbital basis set information -----
Your calculation utilizes the basis: cc-pVDZ 
       H, B-Ne : Obtained from the ccRepo (grant-hill.group.shef.ac.uk/ccrepo) Feb. 2017
                 T. H. Dunning, Jr., J. Chem. Phys. 90, 1007 (1989)
            He : Obtained from the ccRepo (grant-hill.group.shef.ac.uk/ccrepo) Feb. 2017
                 D. E. Woon, T. H. Dunning, Jr., J. Chem. Phys. 100, 2975 (1994)
  Li-Be, Na-Mg : Obtained from the ccRepo (grant-hill.group.shef.ac.uk/ccrepo) Feb. 2017
                 B. P. Prascher, D. E. Woon, K. A. Peterson, T. H. Dunning, Jr., A. K. Wilson, Theor. Chem. Acc. 128, 69 (2011)
         Al-Ar : Obtained from the ccRepo (grant-hill.group.shef.ac.uk/ccrepo) Feb. 2017
                 D. E. Woon, T. H. Dunning, Jr., J. Chem. Phys. 98, 1358 (1993)
            Ca : Obtained from the Peterson Research Group Website (tyr0.chem.wsu.edu/~kipeters) Feb. 2017
                 J. Koput, K. A. Peterson, J. Phys. Chem. 106, 9595 (2002)
         Sc-Zn : Obtained from the ccRepo (grant-hill.group.shef.ac.uk/ccrepo) Feb. 2017
                 N. B. Balabanov, K. A. Peterson, J. Chem. Phys. 123, 064107 (2005)
                 N. B. Balabanov, K. A. Peterson, J. Chem. Phys. 125, 074110 (2006)
         Ga-Kr : Obtained from the ccRepo (grant-hill.group.shef.ac.uk/ccrepo) Feb. 2017
                 A. K. Wilson, D. E. Woon, K. A. Peterson, T. H. Dunning, Jr., J. Chem. Phys. 110, 7667 (1999)

----- AuxJ basis set information -----
Your calculation utilizes the AutoAux generation procedure.
  G. L. Stoychev, A. A. Auer, F. Neese, J. Chem. Theory Comput. 13, 554 (2017)

----- AuxC basis set information -----
Your calculation utilizes the AutoAux generation procedure.
  G. L. Stoychev, A. A. Auer, F. Neese, J. Chem. Theory Comput. 13, 554 (2017)

----- AuxJK basis set information -----
Your calculation utilizes the AutoAux generation procedure.
  G. L. Stoychev, A. A. Auer, F. Neese, J. Chem. Theory Comput. 13, 554 (2017)

================================================================================
                                        WARNINGS
                       Please study these warnings very carefully!
================================================================================

WARNING: Old DensityContainer found on disk!
         Will remove this file - 
         If you want to keep old densities, please start your calculation with a different basename. 


WARNING: your system is open-shell and RHF/RKS was chosen
  ===> : WILL SWITCH to UHF/UKS


INFO   : the flag for use of the SHARK integral package has been found!

================================================================================
                                       INPUT FILE
================================================================================
NAME = cc-pVDZ.inp
|  1> ! B3LYP cc-pVDZ AUTOAUX
|  2> %pal nprocs 16 end
|  3> *XYZFile 0 2 opt.xyz
|  4> %EPRNMR
|  5>         GTENSOR   TRUE
|  6>         NUCLEI    = ALL H {SHIFT, AISO, ADIP, AORB}
|  7>         ORI       CenterOfElCharge
|  8> END
|  9> 
| 10>                          ****END OF INPUT****
================================================================================

                       ****************************
                       * Single Point Calculation *
                       ****************************

---------------------------------
CARTESIAN COORDINATES (ANGSTROEM)
---------------------------------
  C      4.055651   -0.073547    0.001259
  C      2.833542   -0.006600   -0.001853
  C     -2.844938    0.019403   -0.004605
  C      1.413420    0.037578   -0.002650
  C      0.700732    1.295437   -0.002274
  C     -0.721501    1.219563   -0.002939
  C     -1.411453    0.007143   -0.003953
  C     -0.698523   -1.233355   -0.004352
  C      0.695582   -1.174421   -0.003778
  H     -1.303965    2.141141   -0.002676
  H      1.274536   -2.097754   -0.004091
  C      1.376735    2.533606   -0.001170
  H      2.469590    2.505778   -0.000846
  C      0.711209    3.877604   -0.000569
  H      0.041247    3.969721   -0.880342
  H      0.037271    3.967005    0.876408
  C      1.701375    5.049653    0.003518
  H      2.358700    4.962416    0.887902
  H      2.362825    4.965169   -0.878056
  C      1.013980    6.416414    0.004035
  H      0.370653    6.541162    0.892218
  H      0.374821    6.543928   -0.886762
  C     -1.466096   -2.538946   -0.005338
  H     -2.145195   -2.541193    0.867755
  H     -2.144376   -2.540390   -0.879069
  C     -0.640631   -3.828188   -0.005524
  H      0.023196   -3.849353   -0.889420
  H      0.022302   -3.850153    0.879024
  C     -1.515380   -5.087922   -0.006538
  H     -2.182257   -5.068236    0.875347
  H     -2.181205   -5.067554   -0.889201
  C     -0.702663   -6.385165   -0.006558
  H     -0.052972   -6.450617    0.883324
  H     -0.051766   -6.449835   -0.895614
  C     -4.060832    0.033276   -0.006062
  H     -5.133143    0.050044   -0.008099
  H      1.748932    7.237402    0.007037
  H     -1.357003   -7.272006   -0.007390
  C      8.290611   -0.349909    0.011621
  C      7.669126    0.904242    0.011288
  C      6.278191    1.001489    0.007860
  C      5.479290   -0.163666    0.004675
  C      6.117697   -1.424276    0.005036
  C      7.509166   -1.511211    0.008484
  H      9.380725   -0.422104    0.014310
  H      5.506205   -2.328550    0.002590
  H      8.273734    1.814420    0.013750
  H      7.988600   -2.493123    0.008723
  H      5.792435    1.979098    0.007626

----------------------------
CARTESIAN COORDINATES (A.U.)
----------------------------
  NO LB      ZA    FRAG     MASS         X           Y           Z
   0 C     6.0000    0    12.011    7.664069   -0.138985    0.002378
   1 C     6.0000    0    12.011    5.354619   -0.012471   -0.003501
   2 C     6.0000    0    12.011   -5.376154    0.036665   -0.008702
   3 C     6.0000    0    12.011    2.670977    0.071013   -0.005008
   4 C     6.0000    0    12.011    1.324191    2.448021   -0.004297
   5 C     6.0000    0    12.011   -1.363439    2.304641   -0.005554
   6 C     6.0000    0    12.011   -2.667259    0.013499   -0.007470
   7 C     6.0000    0    12.011   -1.320018   -2.330703   -0.008224
   8 C     6.0000    0    12.011    1.314460   -2.219334   -0.007140
   9 H     1.0000    0     1.008   -2.464137    4.046170   -0.005057
  10 H     1.0000    0     1.008    2.408523   -3.964181   -0.007732
  11 C     6.0000    0    12.011    2.601652    4.787822   -0.002211
  12 H     1.0000    0     1.008    4.666848    4.735234   -0.001598
  13 C     6.0000    0    12.011    1.343990    7.327609   -0.001076
  14 H     1.0000    0     1.008    0.077945    7.501686   -1.663605
  15 H     1.0000    0     1.008    0.070432    7.496553    1.656171
  16 C     6.0000    0    12.011    3.215133    9.542461    0.006649
  17 H     1.0000    0     1.008    4.457296    9.377607    1.677892
  18 H     1.0000    0     1.008    4.465093    9.382810   -1.659286
  19 C     6.0000    0    12.011    1.916145   12.125265    0.007625
  20 H     1.0000    0     1.008    0.700433   12.361004    1.686048
  21 H     1.0000    0     1.008    0.708310   12.366232   -1.675737
  22 C     6.0000    0    12.011   -2.770520   -4.797913   -0.010087
  23 H     1.0000    0     1.008   -4.053831   -4.802158    1.639820
  24 H     1.0000    0     1.008   -4.052284   -4.800642   -1.661199
  25 C     6.0000    0    12.011   -1.210616   -7.234226   -0.010439
  26 H     1.0000    0     1.008    0.043833   -7.274224   -1.680761
  27 H     1.0000    0     1.008    0.042145   -7.275735    1.661115
  28 C     6.0000    0    12.011   -2.863654   -9.614779   -0.012354
  29 H     1.0000    0     1.008   -4.123869   -9.577579    1.654166
  30 H     1.0000    0     1.008   -4.121881   -9.576289   -1.680347
  31 C     6.0000    0    12.011   -1.327841  -12.066213   -0.012393
  32 H     1.0000    0     1.008   -0.100103  -12.189899    1.669240
  33 H     1.0000    0     1.008   -0.097823  -12.188421   -1.692465
  34 C     6.0000    0    12.011   -7.673860    0.062882   -0.011455
  35 H     1.0000    0     1.008   -9.700235    0.094570   -0.015304
  36 H     1.0000    0     1.008    3.305003   13.676708    0.013298
  37 H     1.0000    0     1.008   -2.564364  -13.742101   -0.013965
  38 C     6.0000    0    12.011   15.666984   -0.661233    0.021961
  39 C     6.0000    0    12.011   14.492548    1.708771    0.021331
  40 C     6.0000    0    12.011   11.864061    1.892540    0.014853
  41 C     6.0000    0    12.011   10.354357   -0.309284    0.008834
  42 C     6.0000    0    12.011   11.560771   -2.691492    0.009518
  43 C     6.0000    0    12.011   14.190267   -2.855775    0.016033
  44 H     1.0000    0     1.008   17.727002   -0.797661    0.027042
  45 H     1.0000    0     1.008   10.405219   -4.400322    0.004894
  46 H     1.0000    0     1.008   15.635091    3.428758    0.025984
  47 H     1.0000    0     1.008   15.096267   -4.711320    0.016484
  48 H     1.0000    0     1.008   10.946116    3.739953    0.014412

--------------------------------
INTERNAL COORDINATES (ANGSTROEM)
--------------------------------
 C      0   0   0     0.000000000000     0.00000000     0.00000000
 C      1   0   0     1.223944647573     0.00000000     0.00000000
 C      2   1   0     5.678540645159   177.12438180     0.00000000
 C      2   1   3     1.420809202642   178.64150904     2.44431677
 C      4   2   1     1.445729165687   121.31720245   175.16981916
 C      5   4   2     1.424255516326   116.48164806   180.00937570
 C      6   5   4     1.394989894114   122.69665584     0.00000000
 C      7   6   5     1.430770475003   120.47058161     0.00000000
 C      8   7   6     1.395350618297   117.46584694     0.00000000
 H      6   5   4     1.090215457928   119.24033859   179.99914683
 H      9   8   7     1.089831121132   119.66808581   180.00213207
 C      5   4   2     1.410689310921   121.83139226     0.00000000
 H     12   5   4     1.093209149059   117.17455913     0.00000000
 C     12   5   4     1.499751794170   125.02291054   180.00687956
 H     14  12   5     1.109654846731   109.99860095   302.48920861
 H     14  12   5     1.109627295780   110.00096960    57.27566589
 C     14  12   5     1.534322662643   113.46440707   179.88223754
 H     17  14  12     1.105359701805   109.00261219   302.33851858
 H     17  14  12     1.105363205741   109.00589269    57.65414182
 C     17  14  12     1.529884878207   113.10875966   179.99715414
 H     20  17  14     1.103766676989   111.29198241    59.86978372
 H     20  17  14     1.103767437557   111.29183324   300.12562852
 C      8   7   6     1.514509309906   119.66171924   179.99490633
 H     23   8   7     1.106106678311   108.20372483   303.78115592
 H     23   8   7     1.106106781022   108.20538527    56.23236455
 C     23   8   7     1.530861214263   116.91791859   180.00823965
 H     26  23   8     1.105615802611   109.87518301   301.74434795
 H     26  23   8     1.105616679730   109.87386616    58.25609416
 C     26  23   8     1.533661703851   112.59386665   179.99982985
 H     29  26  23     1.105817474584   109.19702637   302.35381928
 H     29  26  23     1.105817815154   109.19733801    57.66053976
 C     29  26  23     1.530800214028   113.15720454   180.00717205
 H     32  29  26     1.103753255283   111.26888837    59.86068768
 H     32  29  26     1.103752736605   111.26897896   300.15022909
 C      3   2   1     1.215973833186   179.60651930   183.61387337
 H     35   3   7     1.072444113162   179.75450435   354.82602579
 H     20  17  14     1.101900589981   111.46543257   179.99758572
 H     32  29  26     1.102111274406   111.51194430   180.00532062
 C      1   2   4     4.243980477130   179.40186820     5.34062787
 C     39   1   2     1.399692572308    59.90605783   179.51424035
 C     40  39   1     1.394335108547   120.35957136     0.00000000
 C     41  40  39     1.412741592642   120.43777592     0.00000000
 C     42  41  40     1.413046831520   118.70410868     0.00000000
 C     43  42  41     1.394186399331   120.43384454     0.00000000
 H     39   1   2     1.092506054340   179.94468773   358.29790612
 H     43  42  41     1.091622658465   119.07348878   179.99981101
 H     40  39   1     1.092694147880   120.04448756   179.99673554
 H     44  43  42     1.092707315883   119.59966557   179.99984571
 H     41  40  39     1.091639988254   120.42115855   179.99816908

---------------------------
INTERNAL COORDINATES (A.U.)
---------------------------
 C      0   0   0     0.000000000000     0.00000000     0.00000000
 C      1   0   0     2.312920186992     0.00000000     0.00000000
 C      2   1   0    10.730886659691   177.12438180     0.00000000
 C      2   1   3     2.684940281549   178.64150904     2.44431677
 C      4   2   1     2.732032186971   121.31720245   175.16981916
 C      5   4   2     2.691452870583   116.48164806   180.00937570
 C      6   5   4     2.636148859463   122.69665584     0.00000000
 C      7   6   5     2.703764358257   120.47058161     0.00000000
 C      8   7   6     2.636830529379   117.46584694     0.00000000
 H      6   5   4     2.060208642452   119.24033859   179.99914683
 H      9   8   7     2.059482351164   119.66808581   180.00213207
 C      5   4   2     2.665816457691   121.83139226     0.00000000
 H     12   5   4     2.065865898819   117.17455913     0.00000000
 C     12   5   4     2.834120159839   125.02291054   180.00687956
 H     14  12   5     2.096943763500   109.99860095   302.48920861
 H     14  12   5     2.096891699747   110.00096960    57.27566589
 C     14  12   5     2.899449633465   113.46440707   179.88223754
 H     17  14  12     2.088827115885   109.00261219   302.33851858
 H     17  14  12     2.088833737364   109.00589269    57.65414182
 C     17  14  12     2.891063436239   113.10875966   179.99715414
 H     20  17  14     2.085816735257   111.29198241    59.86978372
 H     20  17  14     2.085818172524   111.29183324   300.12562852
 C      8   7   6     2.862007822996   119.66171924   179.99490633
 H     23   8   7     2.090238696909   108.20372483   303.78115592
 H     23   8   7     2.090238891006   108.20538527    56.23236455
 C     23   8   7     2.892908444000   116.91791859   180.00823965
 H     26  23   8     2.089311076270   109.87518301   301.74434795
 H     26  23   8     2.089312733785   109.87386616    58.25609416
 C     26  23   8     2.898200602362   112.59386665   179.99982985
 H     29  26  23     2.089692181069   109.19702637   302.35381928
 H     29  26  23     2.089692824652   109.19733801    57.66053976
 C     29  26  23     2.892793170261   113.15720454   180.00717205
 H     32  29  26     2.085791371908   111.26888837    59.86068768
 H     32  29  26     2.085790391750   111.26897896   300.15022909
 C      3   2   1     2.297857530736   179.60651930   183.61387337
 H     35   3   7     2.026625667811   179.75450435   354.82602579
 H     20  17  14     2.082290341871   111.46543257   179.99758572
 H     32  29  26     2.082688477735   111.51194430   180.00532062
 C      1   2   4     8.019960819483   179.40186820     5.34062787
 C     39   1   2     2.645035633346    59.90605783   179.51424035
 C     40  39   1     2.634911494065   120.35957136     0.00000000
 C     41  40  39     2.669694708093   120.43777592     0.00000000
 C     42  41  40     2.670271525978   118.70410868     0.00000000
 C     43  42  41     2.634630474374   120.43384454     0.00000000
 H     39   1   2     2.064537242353   179.94468773   358.29790612
 H     43  42  41     2.062867866083   119.07348878   179.99981101
 H     40  39   1     2.064892687631   120.04448756   179.99673554
 H     44  43  42     2.064917571551   119.59966557   179.99984571
 H     41  40  39     2.062900614636   120.42115855   179.99816908

---------------------
BASIS SET INFORMATION
---------------------
There are 2 groups of distinct atoms

 Group   1 Type C   : 17s4p1d contracted to 3s2p1d pattern {881/31/1}
 Group   2 Type H   : 4s1p contracted to 2s1p pattern {31/1}

Atom   0C    basis set group =>   1
Atom   1C    basis set group =>   1
Atom   2C    basis set group =>   1
Atom   3C    basis set group =>   1
Atom   4C    basis set group =>   1
Atom   5C    basis set group =>   1
Atom   6C    basis set group =>   1
Atom   7C    basis set group =>   1
Atom   8C    basis set group =>   1
Atom   9H    basis set group =>   2
Atom  10H    basis set group =>   2
Atom  11C    basis set group =>   1
Atom  12H    basis set group =>   2
Atom  13C    basis set group =>   1
Atom  14H    basis set group =>   2
Atom  15H    basis set group =>   2
Atom  16C    basis set group =>   1
Atom  17H    basis set group =>   2
Atom  18H    basis set group =>   2
Atom  19C    basis set group =>   1
Atom  20H    basis set group =>   2
Atom  21H    basis set group =>   2
Atom  22C    basis set group =>   1
Atom  23H    basis set group =>   2
Atom  24H    basis set group =>   2
Atom  25C    basis set group =>   1
Atom  26H    basis set group =>   2
Atom  27H    basis set group =>   2
Atom  28C    basis set group =>   1
Atom  29H    basis set group =>   2
Atom  30H    basis set group =>   2
Atom  31C    basis set group =>   1
Atom  32H    basis set group =>   2
Atom  33H    basis set group =>   2
Atom  34C    basis set group =>   1
Atom  35H    basis set group =>   2
Atom  36H    basis set group =>   2
Atom  37H    basis set group =>   2
Atom  38C    basis set group =>   1
Atom  39C    basis set group =>   1
Atom  40C    basis set group =>   1
Atom  41C    basis set group =>   1
Atom  42C    basis set group =>   1
Atom  43C    basis set group =>   1
Atom  44H    basis set group =>   2
Atom  45H    basis set group =>   2
Atom  46H    basis set group =>   2
Atom  47H    basis set group =>   2
Atom  48H    basis set group =>   2
---------------------------------
AUXILIARY/J BASIS SET INFORMATION
---------------------------------
There are 2 groups of distinct atoms

 Group   1 Type C   : 14s11p10d2f contracted to 14s11p10d2f pattern {11111111111111/11111111111/1111111111/11}
 Group   2 Type H   : 9s2p1d contracted to 9s2p1d pattern {111111111/11/1}

Atom   0C    basis set group =>   1
Atom   1C    basis set group =>   1
Atom   2C    basis set group =>   1
Atom   3C    basis set group =>   1
Atom   4C    basis set group =>   1
Atom   5C    basis set group =>   1
Atom   6C    basis set group =>   1
Atom   7C    basis set group =>   1
Atom   8C    basis set group =>   1
Atom   9H    basis set group =>   2
Atom  10H    basis set group =>   2
Atom  11C    basis set group =>   1
Atom  12H    basis set group =>   2
Atom  13C    basis set group =>   1
Atom  14H    basis set group =>   2
Atom  15H    basis set group =>   2
Atom  16C    basis set group =>   1
Atom  17H    basis set group =>   2
Atom  18H    basis set group =>   2
Atom  19C    basis set group =>   1
Atom  20H    basis set group =>   2
Atom  21H    basis set group =>   2
Atom  22C    basis set group =>   1
Atom  23H    basis set group =>   2
Atom  24H    basis set group =>   2
Atom  25C    basis set group =>   1
Atom  26H    basis set group =>   2
Atom  27H    basis set group =>   2
Atom  28C    basis set group =>   1
Atom  29H    basis set group =>   2
Atom  30H    basis set group =>   2
Atom  31C    basis set group =>   1
Atom  32H    basis set group =>   2
Atom  33H    basis set group =>   2
Atom  34C    basis set group =>   1
Atom  35H    basis set group =>   2
Atom  36H    basis set group =>   2
Atom  37H    basis set group =>   2
Atom  38C    basis set group =>   1
Atom  39C    basis set group =>   1
Atom  40C    basis set group =>   1
Atom  41C    basis set group =>   1
Atom  42C    basis set group =>   1
Atom  43C    basis set group =>   1
Atom  44H    basis set group =>   2
Atom  45H    basis set group =>   2
Atom  46H    basis set group =>   2
Atom  47H    basis set group =>   2
Atom  48H    basis set group =>   2
---------------------------------
AUXILIARY/C BASIS SET INFORMATION
---------------------------------
There are 2 groups of distinct atoms

 Group   1 Type C   : 14s11p10d2f contracted to 14s11p10d2f pattern {11111111111111/11111111111/1111111111/11}
 Group   2 Type H   : 9s2p1d contracted to 9s2p1d pattern {111111111/11/1}

Atom   0C    basis set group =>   1
Atom   1C    basis set group =>   1
Atom   2C    basis set group =>   1
Atom   3C    basis set group =>   1
Atom   4C    basis set group =>   1
Atom   5C    basis set group =>   1
Atom   6C    basis set group =>   1
Atom   7C    basis set group =>   1
Atom   8C    basis set group =>   1
Atom   9H    basis set group =>   2
Atom  10H    basis set group =>   2
Atom  11C    basis set group =>   1
Atom  12H    basis set group =>   2
Atom  13C    basis set group =>   1
Atom  14H    basis set group =>   2
Atom  15H    basis set group =>   2
Atom  16C    basis set group =>   1
Atom  17H    basis set group =>   2
Atom  18H    basis set group =>   2
Atom  19C    basis set group =>   1
Atom  20H    basis set group =>   2
Atom  21H    basis set group =>   2
Atom  22C    basis set group =>   1
Atom  23H    basis set group =>   2
Atom  24H    basis set group =>   2
Atom  25C    basis set group =>   1
Atom  26H    basis set group =>   2
Atom  27H    basis set group =>   2
Atom  28C    basis set group =>   1
Atom  29H    basis set group =>   2
Atom  30H    basis set group =>   2
Atom  31C    basis set group =>   1
Atom  32H    basis set group =>   2
Atom  33H    basis set group =>   2
Atom  34C    basis set group =>   1
Atom  35H    basis set group =>   2
Atom  36H    basis set group =>   2
Atom  37H    basis set group =>   2
Atom  38C    basis set group =>   1
Atom  39C    basis set group =>   1
Atom  40C    basis set group =>   1
Atom  41C    basis set group =>   1
Atom  42C    basis set group =>   1
Atom  43C    basis set group =>   1
Atom  44H    basis set group =>   2
Atom  45H    basis set group =>   2
Atom  46H    basis set group =>   2
Atom  47H    basis set group =>   2
Atom  48H    basis set group =>   2
----------------------------------
AUXILIARY/JK BASIS SET INFORMATION
----------------------------------
There are 2 groups of distinct atoms

 Group   1 Type C   : 14s11p10d2f contracted to 14s11p10d2f pattern {11111111111111/11111111111/1111111111/11}
 Group   2 Type H   : 9s2p1d contracted to 9s2p1d pattern {111111111/11/1}

Atom   0C    basis set group =>   1
Atom   1C    basis set group =>   1
Atom   2C    basis set group =>   1
Atom   3C    basis set group =>   1
Atom   4C    basis set group =>   1
Atom   5C    basis set group =>   1
Atom   6C    basis set group =>   1
Atom   7C    basis set group =>   1
Atom   8C    basis set group =>   1
Atom   9H    basis set group =>   2
Atom  10H    basis set group =>   2
Atom  11C    basis set group =>   1
Atom  12H    basis set group =>   2
Atom  13C    basis set group =>   1
Atom  14H    basis set group =>   2
Atom  15H    basis set group =>   2
Atom  16C    basis set group =>   1
Atom  17H    basis set group =>   2
Atom  18H    basis set group =>   2
Atom  19C    basis set group =>   1
Atom  20H    basis set group =>   2
Atom  21H    basis set group =>   2
Atom  22C    basis set group =>   1
Atom  23H    basis set group =>   2
Atom  24H    basis set group =>   2
Atom  25C    basis set group =>   1
Atom  26H    basis set group =>   2
Atom  27H    basis set group =>   2
Atom  28C    basis set group =>   1
Atom  29H    basis set group =>   2
Atom  30H    basis set group =>   2
Atom  31C    basis set group =>   1
Atom  32H    basis set group =>   2
Atom  33H    basis set group =>   2
Atom  34C    basis set group =>   1
Atom  35H    basis set group =>   2
Atom  36H    basis set group =>   2
Atom  37H    basis set group =>   2
Atom  38C    basis set group =>   1
Atom  39C    basis set group =>   1
Atom  40C    basis set group =>   1
Atom  41C    basis set group =>   1
Atom  42C    basis set group =>   1
Atom  43C    basis set group =>   1
Atom  44H    basis set group =>   2
Atom  45H    basis set group =>   2
Atom  46H    basis set group =>   2
Atom  47H    basis set group =>   2
Atom  48H    basis set group =>   2

Checking for AutoStart:
The File: cc-pVDZ.gbw exists
Trying to determine its content:
     ... Fine, the file contains calculation information
     ... Fine, the calculation information was read
     ... Fine, the file contains a basis set
     ... Fine, the basis set was read
     ... Fine, the file contains a geometry
     ... Fine, the geometry was read
     ... Fine, the file contains a set of orbitals
     ... Fine, the orbitals can be read
     => possible old guess file was deleted
     => GBW file was renamed to GES file
     => GES file is set as startup file
     => Guess is set to MORead
     ... now leaving AutoStart



           ************************************************************
           *        Program running with 16 parallel MPI-processes    *
           *              working on a common directory               *
           ************************************************************
------------------------------------------------------------------------------
                           ORCA GTO INTEGRAL CALCULATION
                           -- RI-GTO INTEGRALS CHOSEN --
------------------------------------------------------------------------------
------------------------------------------------------------------------------
                   ___                                                        
                  /   \      - P O W E R E D   B Y -                         
                 /     \                                                     
                 |  |  |   _    _      __       _____    __    __             
                 |  |  |  | |  | |    /  \     |  _  \  |  |  /  |          
                  \  \/   | |  | |   /    \    | | | |  |  | /  /          
                 / \  \   | |__| |  /  /\  \   | |_| |  |  |/  /          
                |  |  |   |  __  | /  /__\  \  |    /   |      \           
                |  |  |   | |  | | |   __   |  |    \   |  |\   \          
                \     /   | |  | | |  |  |  |  | |\  \  |  | \   \       
                 \___/    |_|  |_| |__|  |__|  |_| \__\ |__|  \__/        
                                                                              
                      - O R C A' S   B I G   F R I E N D -                    
                                      &                                       
                       - I N T E G R A L  F E E D E R -                       
                                                                              
 v1 FN, 2020, v2 2021                                                         
------------------------------------------------------------------------------


Reading SHARK input file cc-pVDZ.SHARKINP.tmp ... ok
----------------------
SHARK INTEGRAL PACKAGE
----------------------

Number of atoms                             ...     49
Number of basis functions                   ...    605
Number of shells                            ...    363
Maximum angular momentum                    ...      2
Integral batch strategy                     ... SHARK/LIBINT Hybrid
RI-J (if used) integral strategy            ... SPLIT-RIJ (Revised 2003 algorithm where possible)
Printlevel                                  ...      1
Contraction scheme used                     ... PARTIAL GENERAL contraction
Coulomb Range Separation                    ... NOT USED
Exchange Range Separation                   ... NOT USED
Finite Nucleus Model                        ... NOT USED
Auxiliary Coulomb fitting basis             ... AVAILABLE
   # of basis functions in Aux-J            ...   3164
   # of shells in Aux-J                     ...   1188
   Maximum angular momentum in Aux-J        ...      3
Auxiliary J/K fitting basis                 ... AVAILABLE
   # of basis functions in Aux-JK           ...   3164
   # of shells in Aux-JK                    ...   1188
   Maximum angular momentum in Aux-JK       ...      3
Auxiliary Correlation fitting basis         ... AVAILABLE
   # of basis functions in Aux-C            ...   3164
   # of shells in Aux-C                     ...   1188
   Maximum angular momentum in Aux-C        ...      3
Auxiliary 'external' fitting basis          ... NOT available
Integral threshold                          ...     1.000000e-10
Primitive cut-off                           ...     1.000000e-11
Primitive pair pre-selection threshold      ...     1.000000e-11

Calculating pre-screening integrals         ... done (  0.0 sec) Dimension = 363
Calculating pre-screening integrals (ORCA)  ... done (  0.1 sec) Dimension = 219
Organizing shell pair data                  ... done (  0.2 sec)
Shell pair information
Total number of shell pairs                 ...     66066
Shell pairs after pre-screening             ...     25393
Total number of primitive shell pairs       ...    106638
Primitive shell pairs kept                  ...     34205
          la=0 lb=0:  10957 shell pairs
          la=1 lb=0:   9002 shell pairs
          la=1 lb=1:   1599 shell pairs
          la=2 lb=0:   2700 shell pairs
          la=2 lb=1:    972 shell pairs
          la=2 lb=2:    163 shell pairs

Calculating one electron integrals          ... done (  0.0 sec)
Calculating RI/J V-Matrix + Cholesky decomp.... done (  0.8 sec)
Calculating RI/JK V-Matrix + Cholesky decomp... done (  0.7 sec)
Calculating RI/C V-Matrix + Cholesky decomp.... done (  1.1 sec)
Calculating Nuclear repulsion               ... done (  0.0 sec) ENN=   1724.107945491061 Eh

SHARK setup successfully completed in   3.7 seconds

Maximum memory used throughout the entire GTOINT-calculation: 41.5 MB


           ************************************************************
           *        Program running with 16 parallel MPI-processes    *
           *              working on a common directory               *
           ************************************************************
-------------------------------------------------------------------------------
                                 ORCA SCF
-------------------------------------------------------------------------------

------------
SCF SETTINGS
------------
Hamiltonian:
 Density Functional     Method          .... DFT(GTOs)
 Exchange Functional    Exchange        .... B88
   X-Alpha parameter    XAlpha          ....  0.666667
   Becke's b parameter  XBeta           ....  0.004200
 Correlation Functional Correlation     .... LYP
 LDA part of GGA corr.  LDAOpt          .... VWN-5
 Gradients option       PostSCFGGA      .... off
 Hybrid DFT is turned on
   Fraction HF Exchange ScalHFX         ....  0.200000
   Scaling of DF-GGA-X  ScalDFX         ....  0.720000
   Scaling of DF-GGA-C  ScalDFC         ....  0.810000
   Scaling of DF-LDA-C  ScalLDAC        ....  1.000000
   Perturbative correction              ....  0.000000
   Density functional embedding theory  .... OFF
   NL short-range parameter             ....  4.800000
 RI-approximation to the Coulomb term is turned on
   Number of AuxJ basis functions       .... 3164
   RIJ-COSX (HFX calculated with COS-X)).... on


General Settings:
 Integral files         IntName         .... cc-pVDZ
 Hartree-Fock type      HFTyp           .... UHF
 Total Charge           Charge          ....    0
 Multiplicity           Mult            ....    2
 Number of Electrons    NEL             ....  169
 Basis Dimension        Dim             ....  461
 Nuclear Repulsion      ENuc            ....   1724.1079454911 Eh

Convergence Acceleration:
 DIIS                   CNVDIIS         .... on
   Start iteration      DIISMaxIt       ....    12
   Startup error        DIISStart       ....  0.200000
   # of expansion vecs  DIISMaxEq       ....     5
   Bias factor          DIISBfac        ....   1.050
   Max. coefficient     DIISMaxC        ....  10.000
 Trust-Rad. Augm. Hess. CNVTRAH         .... auto
   Auto Start mean grad. ratio tolernc. ....  1.125000
   Auto Start start iteration           ....     1
   Auto Start num. interpolation iter.  ....    10
   Max. Number of Micro iterations      ....    16
   Max. Number of Macro iterations      .... Maxiter - #DIIS iter
   Number of Davidson start vectors     ....     2
   Converg. threshold I  (grad. norm)   ....   5.000e-05
   Converg. threshold II (energy diff.) ....   1.000e-06
   Grad. Scal. Fac. for Micro threshold ....   0.100
   Minimum threshold for Micro iter.    ....   0.010
   NR start threshold (gradient norm)   ....   0.001
   Initial trust radius                 ....   0.400
   Minimum AH scaling param. (alpha)    ....   1.000
   Maximum AH scaling param. (alpha)    .... 1000.000
   Orbital update algorithm             .... Taylor
   White noise on init. David. guess    .... on
   Maximum white noise                  ....   0.010
   Quad. conv. algorithm                .... NR
 SOSCF                  CNVSOSCF        .... off
 Level Shifting         CNVShift        .... on
   Level shift para.    LevelShift      ....    0.2500
   Turn off err/grad.   ShiftErr        ....    0.0010
 Zerner damping         CNVZerner       .... off
 Static damping         CNVDamp         .... on
   Fraction old density DampFac         ....    0.7000
   Max. Damping (<1)    DampMax         ....    0.9800
   Min. Damping (>=0)   DampMin         ....    0.0000
   Turn off err/grad.   DampErr         ....    0.1000
 Fernandez-Rico         CNVRico         .... off

SCF Procedure:
 Maximum # iterations   MaxIter         ....   125
 SCF integral mode      SCFMode         .... Direct
   Integral package                     .... SHARK and LIBINT hybrid scheme
 Reset frequency        DirectResetFreq ....    20
 Integral Threshold     Thresh          ....  1.000e-10 Eh
 Primitive CutOff       TCut            ....  1.000e-11 Eh

Convergence Tolerance:
 Convergence Check Mode ConvCheckMode   .... Total+1el-Energy
 Convergence forced     ConvForced      .... 0
 Energy Change          TolE            ....  1.000e-06 Eh
 1-El. energy change                    ....  1.000e-03 Eh
 DIIS Error             TolErr          ....  1.000e-06


Diagonalization of the overlap matrix:
Smallest eigenvalue                        ... 5.108e-05
Time for diagonalization                   ...    0.041 sec
Threshold for overlap eigenvalues          ... 1.000e-08
Number of eigenvalues below threshold      ... 0
Time for construction of square roots      ...    0.035 sec
Total time needed                          ...    0.076 sec

---------------------
INITIAL GUESS: MOREAD
---------------------
Guess MOs are being read from file: cc-pVDZ.ges
Input Geometry matches current geometry (good)
Input basis set matches current basis set (good)
MOs were renormalized
MOs were reorthogonalized (Cholesky)
                      ------------------
                      INITIAL GUESS DONE (   0.2 sec)
                      ------------------
-------------------
DFT GRID GENERATION
-------------------

General Integration Accuracy     IntAcc      ... 4.388
Radial Grid Type                 RadialGrid  ... OptM3 with GC (2021)
Angular Grid (max. ang.)         AngularGrid ... 4 (Lebedev-302)
Angular grid pruning method      GridPruning ... 4 (adaptive)
Weight generation scheme         WeightScheme... Becke
Basis function cutoff            BFCut       ... 1.0000e-10
Integration weight cutoff        WCut        ... 1.0000e-14
Angular grids for H and He will be reduced by one unit
Partially contracted basis set               ... off
Rotationally invariant grid construction     ... off

Total number of grid points                  ...   223180
Total number of batches                      ...     3508
Average number of points per batch           ...       63
Average number of grid points per atom       ...     4555
Time for grid setup =    1.412 sec

--------------------
COSX GRID GENERATION
--------------------

GRIDX 1
-------
General Integration Accuracy     IntAcc      ... 3.816
Radial Grid Type                 RadialGrid  ... OptM3 with GC (2021)
Angular Grid (max. ang.)         AngularGrid ... 1 (Lebedev-50)
Angular grid pruning method      GridPruning ... 4 (adaptive)
Weight generation scheme         WeightScheme... Becke
Basis function cutoff            BFCut       ... 1.0000e-10
Integration weight cutoff        WCut        ... 1.0000e-14
Angular grids for H and He will be reduced by one unit
Partially contracted basis set               ... on
Rotationally invariant grid construction     ... off

Total number of grid points                  ...    28434
Total number of batches                      ...      470
Average number of points per batch           ...       60
Average number of grid points per atom       ...      580
UseSFitting                                  ... on

GRIDX 2
-------
General Integration Accuracy     IntAcc      ... 4.020
Radial Grid Type                 RadialGrid  ... OptM3 with GC (2021)
Angular Grid (max. ang.)         AngularGrid ... 2 (Lebedev-110)
Angular grid pruning method      GridPruning ... 4 (adaptive)
Weight generation scheme         WeightScheme... Becke
Basis function cutoff            BFCut       ... 1.0000e-10
Integration weight cutoff        WCut        ... 1.0000e-14
Angular grids for H and He will be reduced by one unit
Partially contracted basis set               ... on
Rotationally invariant grid construction     ... off

Total number of grid points                  ...    60669
Total number of batches                      ...      975
Average number of points per batch           ...       62
Average number of grid points per atom       ...     1238
UseSFitting                                  ... on

GRIDX 3
-------
General Integration Accuracy     IntAcc      ... 4.338
Radial Grid Type                 RadialGrid  ... OptM3 with GC (2021)
Angular Grid (max. ang.)         AngularGrid ... 3 (Lebedev-194)
Angular grid pruning method      GridPruning ... 4 (adaptive)
Weight generation scheme         WeightScheme... Becke
Basis function cutoff            BFCut       ... 1.0000e-10
Integration weight cutoff        WCut        ... 1.0000e-14
Angular grids for H and He will be reduced by one unit
Partially contracted basis set               ... on
Rotationally invariant grid construction     ... off

Total number of grid points                  ...   132673
Total number of batches                      ...     2100
Average number of points per batch           ...       63
Average number of grid points per atom       ...     2708
UseSFitting                                  ... on

Time for X-Grid setup             =    2.554 sec

 re-compute Schwartz prescreening matrix in partically contracted basis (1) ...done (   0.119 sec)
--------------
SCF ITERATIONS
--------------
ITER       Energy         Delta-E        Max-DP      RMS-DP      [F,P]     Damp
               ***  Starting incremental Fock matrix formation  ***
  0   -928.9016010832   0.000000000000 0.00003764  0.00000028  0.0001042 0.7000
                 **** Energy Check signals convergence ****

               *****************************************************
               *                     SUCCESS                       *
               *           SCF CONVERGED AFTER   1 CYCLES          *
               *****************************************************

Old exchange energy                            =    -26.638041778 Eh
New exchange energy                            =    -26.638161346 Eh
Exchange energy change after final integration =     -0.000119568 Eh
Total energy after final integration           =   -928.901720756 Eh
Final COS-X integration done in                =     7.685 sec

----------------
TOTAL SCF ENERGY
----------------

Total Energy       :         -928.90172076 Eh          -25276.70086 eV

Components:
Nuclear Repulsion  :         1724.10794549 Eh           46915.36233 eV
Electronic Energy  :        -2653.00966625 Eh          -72192.06319 eV
One Electron Energy:        -4677.21635962 Eh         -127273.52761 eV
Two Electron Energy:         2024.20669337 Eh           55081.46441 eV
Max COSX asymmetry :            0.00000068 Eh               0.00002 eV

Virial components:
Potential Energy   :        -1851.36814762 Eh          -50378.28848 eV
Kinetic Energy     :          922.46642686 Eh           25101.58761 eV
Virial Ratio       :            2.00697618


DFT components:
N(Alpha)           :       85.000125807721 electrons
N(Beta)            :       84.000116181328 electrons
N(Total)           :      169.000241989049 electrons
E(X)               :     -105.658685140609 Eh       
E(C)               :       -6.575597819702 Eh       
E(XC)              :     -112.234282960311 Eh       
DFET-embed. en.    :        0.000000000000 Eh       

---------------
SCF CONVERGENCE
---------------

  Last Energy change         ...   -1.0442e-07  Tolerance :   1.0000e-06
  Last MAX-Density change    ...    1.5414e-05  Tolerance :   1.0000e-05
  Last RMS-Density change    ...    1.0805e-07  Tolerance :   1.0000e-06
  Last DIIS Error            ...    3.6270e-05  Tolerance :   1.0000e-06

             **** THE GBW FILE WAS UPDATED (cc-pVDZ.gbw) ****
             **** DENSITY cc-pVDZ.scfp WAS UPDATED ****
             **** ENERGY FILE WAS UPDATED (cc-pVDZ.en.tmp) ****
----------------------
UHF SPIN CONTAMINATION
----------------------

Warning: in a DFT calculation there is little theoretical justification to 
         calculate <S**2> as in Hartree-Fock theory. We will do it anyways
         but you should keep in mind that the values have only limited relevance

Expectation value of <S**2>     :     0.787420
Ideal value S*(S+1) for S=0.5   :     0.750000
Deviation                       :     0.037420

             **** THE GBW FILE WAS UPDATED (cc-pVDZ.gbw) ****
             **** DENSITY cc-pVDZ.scfp WAS UPDATED ****
----------------
ORBITAL ENERGIES
----------------
                 SPIN UP ORBITALS
  NO   OCC          E(Eh)            E(eV) 
   0   1.0000     -10.215267      -277.9715 
   1   1.0000     -10.214541      -277.9518 
   2   1.0000     -10.211701      -277.8745 
   3   1.0000     -10.202651      -277.6283 
   4   1.0000     -10.198429      -277.5134 
   5   1.0000     -10.196432      -277.4590 
   6   1.0000     -10.196191      -277.4525 
   7   1.0000     -10.195176      -277.4248 
   8   1.0000     -10.195131      -277.4236 
   9   1.0000     -10.194466      -277.4055 
  10   1.0000     -10.194291      -277.4008 
  11   1.0000     -10.192589      -277.3544 
  12   1.0000     -10.191613      -277.3279 
  13   1.0000     -10.189784      -277.2781 
  14   1.0000     -10.189092      -277.2593 
  15   1.0000     -10.188441      -277.2416 
  16   1.0000     -10.186839      -277.1980 
  17   1.0000     -10.186460      -277.1877 
  18   1.0000     -10.186031      -277.1760 
  19   1.0000     -10.184408      -277.1318 
  20   1.0000     -10.181554      -277.0542 
  21   1.0000     -10.181366      -277.0491 
  22   1.0000     -10.177388      -276.9408 
  23   1.0000     -10.175461      -276.8884 
  24   1.0000      -0.873938       -23.7811 
  25   1.0000      -0.862454       -23.4686 
  26   1.0000      -0.820102       -22.3161 
  27   1.0000      -0.799080       -21.7441 
  28   1.0000      -0.795883       -21.6571 
  29   1.0000      -0.778067       -21.1723 
  30   1.0000      -0.767737       -20.8912 
  31   1.0000      -0.750220       -20.4145 
  32   1.0000      -0.744646       -20.2628 
  33   1.0000      -0.730346       -19.8737 
  34   1.0000      -0.713546       -19.4166 
  35   1.0000      -0.697697       -18.9853 
  36   1.0000      -0.656863       -17.8741 
  37   1.0000      -0.643832       -17.5195 
  38   1.0000      -0.618023       -16.8173 
  39   1.0000      -0.612651       -16.6711 
  40   1.0000      -0.608107       -16.5474 
  41   1.0000      -0.592665       -16.1272 
  42   1.0000      -0.580364       -15.7925 
  43   1.0000      -0.562110       -15.2958 
  44   1.0000      -0.540741       -14.7143 
  45   1.0000      -0.529285       -14.4026 
  46   1.0000      -0.506751       -13.7894 
  47   1.0000      -0.491833       -13.3835 
  48   1.0000      -0.479901       -13.0588 
  49   1.0000      -0.475999       -12.9526 
  50   1.0000      -0.470371       -12.7994 
  51   1.0000      -0.462598       -12.5879 
  52   1.0000      -0.456806       -12.4303 
  53   1.0000      -0.435912       -11.8618 
  54   1.0000      -0.432325       -11.7642 
  55   1.0000      -0.429414       -11.6849 
  56   1.0000      -0.426177       -11.5969 
  57   1.0000      -0.423393       -11.5211 
  58   1.0000      -0.421616       -11.4728 
  59   1.0000      -0.411823       -11.2063 
  60   1.0000      -0.398691       -10.8489 
  61   1.0000      -0.397981       -10.8296 
  62   1.0000      -0.383882       -10.4460 
  63   1.0000      -0.378660       -10.3039 
  64   1.0000      -0.377051       -10.2601 
  65   1.0000      -0.365287        -9.9400 
  66   1.0000      -0.360977        -9.8227 
  67   1.0000      -0.356474        -9.7001 
  68   1.0000      -0.353701        -9.6247 
  69   1.0000      -0.349652        -9.5145 
  70   1.0000      -0.340423        -9.2634 
  71   1.0000      -0.332957        -9.0602 
  72   1.0000      -0.331482        -9.0201 
  73   1.0000      -0.331263        -9.0141 
  74   1.0000      -0.327521        -8.9123 
  75   1.0000      -0.324160        -8.8208 
  76   1.0000      -0.321288        -8.7427 
  77   1.0000      -0.299664        -8.1543 
  78   1.0000      -0.275122        -7.4864 
  79   1.0000      -0.273309        -7.4371 
  80   1.0000      -0.267421        -7.2769 
  81   1.0000      -0.258372        -7.0307 
  82   1.0000      -0.255335        -6.9480 
  83   1.0000      -0.216694        -5.8965 
  84   1.0000      -0.170830        -4.6485 
  85   0.0000      -0.056619        -1.5407 
  86   0.0000      -0.011555        -0.3144 
  87   0.0000      -0.009788        -0.2663 
  88   0.0000       0.013102         0.3565 
  89   0.0000       0.041635         1.1330 
  90   0.0000       0.050412         1.3718 
  91   0.0000       0.054910         1.4942 
  92   0.0000       0.062901         1.7116 
  93   0.0000       0.063922         1.7394 
  94   0.0000       0.070869         1.9284 
  95   0.0000       0.077975         2.1218 
  96   0.0000       0.084385         2.2962 
  97   0.0000       0.087176         2.3722 
  98   0.0000       0.092245         2.5101 
  99   0.0000       0.094140         2.5617 
 100   0.0000       0.095667         2.6032 
 101   0.0000       0.101675         2.7667 
 102   0.0000       0.103752         2.8232 
 103   0.0000       0.117468         3.1965 
 104   0.0000       0.119872         3.2619 
 105   0.0000       0.125706         3.4206 
 106   0.0000       0.130344         3.5468 
 107   0.0000       0.134032         3.6472 
 108   0.0000       0.144628         3.9355 
 109   0.0000       0.146266         3.9801 
 110   0.0000       0.149404         4.0655 
 111   0.0000       0.159553         4.3417 
 112   0.0000       0.159918         4.3516 
 113   0.0000       0.162489         4.4215 
 114   0.0000       0.165931         4.5152 
 115   0.0000       0.169258         4.6057 
 116   0.0000       0.170241         4.6325 
 117   0.0000       0.178892         4.8679 
 118   0.0000       0.184503         5.0206 
 119   0.0000       0.204605         5.5676 
 120   0.0000       0.212952         5.7947 
 121   0.0000       0.213695         5.8149 
 122   0.0000       0.216866         5.9012 
 123   0.0000       0.219119         5.9625 
 124   0.0000       0.226130         6.1533 
 125   0.0000       0.243804         6.6342 
 126   0.0000       0.247073         6.7232 
 127   0.0000       0.262866         7.1529 
 128   0.0000       0.279569         7.6075 
 129   0.0000       0.281146         7.6504 
 130   0.0000       0.291374         7.9287 
 131   0.0000       0.291561         7.9338 
 132   0.0000       0.310076         8.4376 
 133   0.0000       0.315606         8.5881 
 134   0.0000       0.320207         8.7133 
 135   0.0000       0.333060         9.0630 
 136   0.0000       0.342466         9.3190 
 137   0.0000       0.359421         9.7803 
 138   0.0000       0.367954        10.0125 
 139   0.0000       0.375344        10.2136 
 140   0.0000       0.397499        10.8165 
 141   0.0000       0.409822        11.1518 
 142   0.0000       0.411964        11.2101 
 143   0.0000       0.413065        11.2401 
 144   0.0000       0.419878        11.4255 
 145   0.0000       0.421352        11.4656 
 146   0.0000       0.430783        11.7222 
 147   0.0000       0.439608        11.9623 
 148   0.0000       0.440387        11.9835 
 149   0.0000       0.445125        12.1125 
 150   0.0000       0.450021        12.2457 
 151   0.0000       0.452387        12.3101 
 152   0.0000       0.464066        12.6279 
 153   0.0000       0.471624        12.8335 
 154   0.0000       0.473097        12.8736 
 155   0.0000       0.474408        12.9093 
 156   0.0000       0.477824        13.0023 
 157   0.0000       0.482358        13.1256 
 158   0.0000       0.489759        13.3270 
 159   0.0000       0.501230        13.6392 
 160   0.0000       0.503234        13.6937 
 161   0.0000       0.506037        13.7700 
 162   0.0000       0.508123        13.8267 
 163   0.0000       0.510326        13.8867 
 164   0.0000       0.514508        14.0005 
 165   0.0000       0.515378        14.0242 
 166   0.0000       0.515674        14.0322 
 167   0.0000       0.516841        14.0640 
 168   0.0000       0.525951        14.3118 
 169   0.0000       0.526181        14.3181 
 170   0.0000       0.536456        14.5977 
 171   0.0000       0.546163        14.8619 
 172   0.0000       0.558029        15.1847 
 173   0.0000       0.560500        15.2520 
 174   0.0000       0.573310        15.6005 
 175   0.0000       0.573670        15.6104 
 176   0.0000       0.587615        15.9898 
 177   0.0000       0.589040        16.0286 
 178   0.0000       0.593366        16.1463 
 179   0.0000       0.597597        16.2614 
 180   0.0000       0.606376        16.5003 
 181   0.0000       0.608720        16.5641 
 182   0.0000       0.618529        16.8310 
 183   0.0000       0.620621        16.8880 
 184   0.0000       0.626102        17.0371 
 185   0.0000       0.631657        17.1883 
 186   0.0000       0.638632        17.3781 
 187   0.0000       0.638694        17.3798 
 188   0.0000       0.642835        17.4924 
 189   0.0000       0.642998        17.4969 
 190   0.0000       0.648519        17.6471 
 191   0.0000       0.654491        17.8096 
 192   0.0000       0.655701        17.8425 
 193   0.0000       0.656197        17.8560 
 194   0.0000       0.660161        17.9639 
 195   0.0000       0.662185        18.0190 
 196   0.0000       0.665051        18.0970 
 197   0.0000       0.665764        18.1164 
 198   0.0000       0.671365        18.2688 
 199   0.0000       0.674521        18.3547 
 200   0.0000       0.678121        18.4526 
 201   0.0000       0.682718        18.5777 
 202   0.0000       0.684013        18.6129 
 203   0.0000       0.685847        18.6628 
 204   0.0000       0.689168        18.7532 
 205   0.0000       0.691860        18.8265 
 206   0.0000       0.694361        18.8945 
 207   0.0000       0.703636        19.1469 
 208   0.0000       0.707423        19.2500 
 209   0.0000       0.716297        19.4914 
 210   0.0000       0.719386        19.5755 
 211   0.0000       0.729228        19.8433 
 212   0.0000       0.729526        19.8514 
 213   0.0000       0.735559        20.0156 
 214   0.0000       0.739405        20.1202 
 215   0.0000       0.745322        20.2812 
 216   0.0000       0.750822        20.4309 
 217   0.0000       0.758910        20.6510 
 218   0.0000       0.767978        20.8977 
 219   0.0000       0.780338        21.2341 
 220   0.0000       0.784777        21.3549 
 221   0.0000       0.793862        21.6021 
 222   0.0000       0.812243        22.1023 
 223   0.0000       0.816919        22.2295 
 224   0.0000       0.833415        22.6784 
 225   0.0000       0.833829        22.6896 
 226   0.0000       0.841985        22.9116 
 227   0.0000       0.851128        23.1604 
 228   0.0000       0.866193        23.5703 
 229   0.0000       0.869640        23.6641 
 230   0.0000       0.882194        24.0057 
 231   0.0000       0.888844        24.1867 
 232   0.0000       0.900957        24.5163 
 233   0.0000       0.912448        24.8290 
 234   0.0000       0.915377        24.9087 
 235   0.0000       0.916563        24.9410 
 236   0.0000       0.928460        25.2647 
 237   0.0000       0.938476        25.5372 
 238   0.0000       0.953014        25.9328 
 239   0.0000       0.958880        26.0925 
 240   0.0000       0.974047        26.5052 
 241   0.0000       0.976171        26.5630 
 242   0.0000       0.981860        26.7178 
 243   0.0000       0.988705        26.9040 
 244   0.0000       0.994245        27.0548 
 245   0.0000       0.994806        27.0701 
 246   0.0000       1.002043        27.2670 
 247   0.0000       1.018653        27.7190 
 248   0.0000       1.026917        27.9438 
 249   0.0000       1.032539        28.0968 
 250   0.0000       1.039757        28.2932 
 251   0.0000       1.041360        28.3369 
 252   0.0000       1.041791        28.3486 
 253   0.0000       1.052037        28.6274 
 254   0.0000       1.059142        28.8207 
 255   0.0000       1.059453        28.8292 
 256   0.0000       1.071745        29.1637 
 257   0.0000       1.072329        29.1796 
 258   0.0000       1.092516        29.7289 
 259   0.0000       1.103141        30.0180 
 260   0.0000       1.116506        30.3817 
 261   0.0000       1.133504        30.8442 
 262   0.0000       1.152515        31.3615 
 263   0.0000       1.155083        31.4314 
 264   0.0000       1.171177        31.8694 
 265   0.0000       1.181643        32.1542 
 266   0.0000       1.196093        32.5473 
 267   0.0000       1.203364        32.7452 
 268   0.0000       1.207488        32.8574 
 269   0.0000       1.209957        32.9246 
 270   0.0000       1.217709        33.1355 
 271   0.0000       1.218142        33.1473 
 272   0.0000       1.221993        33.2521 
 273   0.0000       1.231920        33.5222 
 274   0.0000       1.234960        33.6050 
 275   0.0000       1.254849        34.1462 
 276   0.0000       1.279231        34.8096 
 277   0.0000       1.291538        35.1445 
 278   0.0000       1.295905        35.2634 
 279   0.0000       1.300421        35.3863 
 280   0.0000       1.315246        35.7897 
 281   0.0000       1.316067        35.8120 
 282   0.0000       1.332599        36.2619 
 283   0.0000       1.339816        36.4582 
 284   0.0000       1.340955        36.4892 
 285   0.0000       1.364691        37.1351 
 286   0.0000       1.372812        37.3561 
 287   0.0000       1.384532        37.6750 
 288   0.0000       1.389468        37.8093 
 289   0.0000       1.392386        37.8887 
 290   0.0000       1.408040        38.3147 
 291   0.0000       1.419553        38.6280 
 292   0.0000       1.421394        38.6781 
 293   0.0000       1.425172        38.7809 
 294   0.0000       1.426706        38.8227 
 295   0.0000       1.436856        39.0988 
 296   0.0000       1.446410        39.3588 
 297   0.0000       1.453760        39.5588 
 298   0.0000       1.468123        39.9497 
 299   0.0000       1.471591        40.0440 
 300   0.0000       1.479915        40.2705 
 301   0.0000       1.482729        40.3471 
 302   0.0000       1.483893        40.3788 
 303   0.0000       1.494097        40.6564 
 304   0.0000       1.500259        40.8241 
 305   0.0000       1.502524        40.8858 
 306   0.0000       1.511468        41.1291 
 307   0.0000       1.523765        41.4638 
 308   0.0000       1.529175        41.6110 
 309   0.0000       1.543842        42.0101 
 310   0.0000       1.551789        42.2263 
 311   0.0000       1.576978        42.9117 
 312   0.0000       1.583881        43.0996 
 313   0.0000       1.584623        43.1198 
 314   0.0000       1.591952        43.3192 
 315   0.0000       1.598333        43.4928 
 316   0.0000       1.601628        43.5825 
 317   0.0000       1.604849        43.6702 
 318   0.0000       1.612179        43.8696 
 319   0.0000       1.616198        43.9790 
 320   0.0000       1.623595        44.1803 
 321   0.0000       1.627378        44.2832 
 322   0.0000       1.630665        44.3726 
 323   0.0000       1.633343        44.4455 
 324   0.0000       1.638021        44.5728 
 325   0.0000       1.640195        44.6320 
 326   0.0000       1.642489        44.6944 
 327   0.0000       1.646151        44.7940 
 328   0.0000       1.648340        44.8536 
 329   0.0000       1.652173        44.9579 
 330   0.0000       1.660200        45.1763 
 331   0.0000       1.670692        45.4619 
 332   0.0000       1.671433        45.4820 
 333   0.0000       1.672938        45.5230 
 334   0.0000       1.682589        45.7856 
 335   0.0000       1.685558        45.8664 
 336   0.0000       1.688762        45.9535 
 337   0.0000       1.688798        45.9545 
 338   0.0000       1.695856        46.1466 
 339   0.0000       1.699300        46.2403 
 340   0.0000       1.703190        46.3462 
 341   0.0000       1.706767        46.4435 
 342   0.0000       1.709580        46.5200 
 343   0.0000       1.718202        46.7547 
 344   0.0000       1.719970        46.8028 
 345   0.0000       1.742159        47.4066 
 346   0.0000       1.742620        47.4191 
 347   0.0000       1.748912        47.5903 
 348   0.0000       1.750265        47.6271 
 349   0.0000       1.761816        47.9414 
 350   0.0000       1.768499        48.1233 
 351   0.0000       1.771257        48.1984 
 352   0.0000       1.781670        48.4817 
 353   0.0000       1.784645        48.5627 
 354   0.0000       1.789860        48.7046 
 355   0.0000       1.794321        48.8260 
 356   0.0000       1.800106        48.9834 
 357   0.0000       1.803606        49.0786 
 358   0.0000       1.808770        49.2191 
 359   0.0000       1.813197        49.3396 
 360   0.0000       1.826580        49.7038 
 361   0.0000       1.830306        49.8052 
 362   0.0000       1.836921        49.9852 
 363   0.0000       1.843489        50.1639 
 364   0.0000       1.847884        50.2835 
 365   0.0000       1.852669        50.4137 
 366   0.0000       1.854070        50.4518 
 367   0.0000       1.859128        50.5894 
 368   0.0000       1.877443        51.0878 
 369   0.0000       1.883015        51.2394 
 370   0.0000       1.892302        51.4922 
 371   0.0000       1.903628        51.8003 
 372   0.0000       1.921948        52.2989 
 373   0.0000       1.922731        52.3202 
 374   0.0000       1.927242        52.4429 
 375   0.0000       1.934729        52.6467 
 376   0.0000       1.943911        52.8965 
 377   0.0000       1.953153        53.1480 
 378   0.0000       1.965634        53.4876 
 379   0.0000       1.973546        53.7029 
 380   0.0000       1.985573        54.0302 
 381   0.0000       1.989668        54.1416 
 382   0.0000       1.994209        54.2652 
 383   0.0000       1.994888        54.2837 
 384   0.0000       2.015860        54.8543 
 385   0.0000       2.027922        55.1826 
 386   0.0000       2.037437        55.4415 
 387   0.0000       2.067955        56.2719 
 388   0.0000       2.071482        56.3679 
 389   0.0000       2.075066        56.4654 
 390   0.0000       2.075612        56.4803 
 391   0.0000       2.089049        56.8459 
 392   0.0000       2.101723        57.1908 
 393   0.0000       2.120934        57.7136 
 394   0.0000       2.126087        57.8538 
 395   0.0000       2.149317        58.4859 
 396   0.0000       2.155557        58.6557 
 397   0.0000       2.156092        58.6702 
 398   0.0000       2.189364        59.5756 
 399   0.0000       2.196814        59.7783 
 400   0.0000       2.198792        59.8322 
 401   0.0000       2.203911        59.9715 
 402   0.0000       2.210498        60.1507 
 403   0.0000       2.217799        60.3494 
 404   0.0000       2.225280        60.5529 
 405   0.0000       2.230103        60.6842 
 406   0.0000       2.237569        60.8873 
 407   0.0000       2.244622        61.0793 
 408   0.0000       2.270627        61.7869 
 409   0.0000       2.283105        62.1264 
 410   0.0000       2.292551        62.3835 
 411   0.0000       2.298118        62.5350 
 412   0.0000       2.302650        62.6583 
 413   0.0000       2.321586        63.1736 
 414   0.0000       2.325228        63.2727 
 415   0.0000       2.336064        63.5675 
 416   0.0000       2.352730        64.0210 
 417   0.0000       2.369319        64.4724 
 418   0.0000       2.371169        64.5228 
 419   0.0000       2.406964        65.4968 
 420   0.0000       2.409674        65.5706 
 421   0.0000       2.412298        65.6420 
 422   0.0000       2.412740        65.6540 
 423   0.0000       2.413370        65.6711 
 424   0.0000       2.417975        65.7964 
 425   0.0000       2.420475        65.8645 
 426   0.0000       2.429276        66.1040 
 427   0.0000       2.443876        66.5013 
 428   0.0000       2.451774        66.7162 
 429   0.0000       2.453783        66.7708 
 430   0.0000       2.482942        67.5643 
 431   0.0000       2.508133        68.2498 
 432   0.0000       2.529112        68.8206 
 433   0.0000       2.540331        69.1259 
 434   0.0000       2.540562        69.1322 
 435   0.0000       2.556773        69.5733 
 436   0.0000       2.581841        70.2555 
 437   0.0000       2.600847        70.7727 
 438   0.0000       2.615798        71.1795 
 439   0.0000       2.628074        71.5135 
 440   0.0000       2.635377        71.7122 
 441   0.0000       2.642093        71.8950 
 442   0.0000       2.665458        72.5308 
 443   0.0000       2.680639        72.9439 
 444   0.0000       2.705558        73.6220 
 445   0.0000       2.714202        73.8572 
 446   0.0000       2.720723        74.0346 
 447   0.0000       2.723081        74.0988 
 448   0.0000       2.732739        74.3616 
 449   0.0000       2.776232        75.5451 
 450   0.0000       2.818905        76.7063 
 451   0.0000       2.847740        77.4909 
 452   0.0000       2.860968        77.8509 
 453   0.0000       2.877020        78.2877 
 454   0.0000       2.907191        79.1087 
 455   0.0000       2.945169        80.1421 
 456   0.0000       3.088558        84.0439 
 457   0.0000       3.120902        84.9241 
 458   0.0000       3.193226        86.8921 
 459   0.0000       3.394723        92.3751 
 460   0.0000       3.584567        97.5410 

                 SPIN DOWN ORBITALS
  NO   OCC          E(Eh)            E(eV) 
   0   1.0000     -10.215618      -277.9811 
   1   1.0000     -10.213334      -277.9190 
   2   1.0000     -10.211179      -277.8603 
   3   1.0000     -10.200887      -277.5802 
   4   1.0000     -10.199247      -277.5356 
   5   1.0000     -10.196055      -277.4488 
   6   1.0000     -10.195819      -277.4423 
   7   1.0000     -10.194929      -277.4181 
   8   1.0000     -10.194629      -277.4100 
   9   1.0000     -10.194278      -277.4004 
  10   1.0000     -10.192096      -277.3410 
  11   1.0000     -10.191372      -277.3213 
  12   1.0000     -10.191222      -277.3172 
  13   1.0000     -10.189113      -277.2599 
  14   1.0000     -10.188910      -277.2543 
  15   1.0000     -10.186662      -277.1932 
  16   1.0000     -10.186659      -277.1931 
  17   1.0000     -10.186575      -277.1908 
  18   1.0000     -10.184370      -277.1308 
  19   1.0000     -10.182743      -277.0865 
  20   1.0000     -10.181551      -277.0541 
  21   1.0000     -10.181365      -277.0490 
  22   1.0000     -10.177396      -276.9410 
  23   1.0000     -10.175462      -276.8884 
  24   1.0000      -0.870629       -23.6910 
  25   1.0000      -0.861992       -23.4560 
  26   1.0000      -0.815218       -22.1832 
  27   1.0000      -0.796379       -21.6706 
  28   1.0000      -0.794681       -21.6244 
  29   1.0000      -0.777219       -21.1492 
  30   1.0000      -0.765726       -20.8365 
  31   1.0000      -0.749864       -20.4048 
  32   1.0000      -0.743530       -20.2325 
  33   1.0000      -0.726476       -19.7684 
  34   1.0000      -0.712763       -19.3953 
  35   1.0000      -0.695509       -18.9258 
  36   1.0000      -0.653840       -17.7919 
  37   1.0000      -0.642609       -17.4863 
  38   1.0000      -0.614371       -16.7179 
  39   1.0000      -0.609824       -16.5942 
  40   1.0000      -0.607873       -16.5411 
  41   1.0000      -0.591767       -16.1028 
  42   1.0000      -0.578760       -15.7489 
  43   1.0000      -0.559674       -15.2295 
  44   1.0000      -0.540194       -14.6994 
  45   1.0000      -0.528000       -14.3676 
  46   1.0000      -0.503562       -13.7026 
  47   1.0000      -0.491020       -13.3613 
  48   1.0000      -0.478656       -13.0249 
  49   1.0000      -0.475049       -12.9267 
  50   1.0000      -0.469528       -12.7765 
  51   1.0000      -0.459203       -12.4956 
  52   1.0000      -0.456599       -12.4247 
  53   1.0000      -0.435298       -11.8451 
  54   1.0000      -0.430502       -11.7146 
  55   1.0000      -0.428172       -11.6512 
  56   1.0000      -0.425013       -11.5652 
  57   1.0000      -0.423288       -11.5182 
  58   1.0000      -0.419001       -11.4016 
  59   1.0000      -0.411348       -11.1933 
  60   1.0000      -0.396910       -10.8005 
  61   1.0000      -0.391153       -10.6438 
  62   1.0000      -0.381235       -10.3739 
  63   1.0000      -0.376381       -10.2418 
  64   1.0000      -0.374441       -10.1891 
  65   1.0000      -0.364165        -9.9094 
  66   1.0000      -0.360530        -9.8105 
  67   1.0000      -0.355635        -9.6773 
  68   1.0000      -0.350728        -9.5438 
  69   1.0000      -0.349484        -9.5100 
  70   1.0000      -0.338200        -9.2029 
  71   1.0000      -0.332433        -9.0460 
  72   1.0000      -0.329888        -8.9767 
  73   1.0000      -0.329017        -8.9530 
  74   1.0000      -0.327179        -8.9030 
  75   1.0000      -0.323399        -8.8001 
  76   1.0000      -0.320643        -8.7252 
  77   1.0000      -0.296852        -8.0777 
  78   1.0000      -0.275090        -7.4856 
  79   1.0000      -0.266999        -7.2654 
  80   1.0000      -0.259968        -7.0741 
  81   1.0000      -0.257365        -7.0033 
  82   1.0000      -0.250537        -6.8174 
  83   1.0000      -0.210249        -5.7212 
  84   0.0000      -0.085895        -2.3373 
  85   0.0000      -0.048576        -1.3218 
  86   0.0000      -0.008919        -0.2427 
  87   0.0000      -0.006424        -0.1748 
  88   0.0000       0.029324         0.7979 
  89   0.0000       0.041973         1.1422 
  90   0.0000       0.050705         1.3797 
  91   0.0000       0.055356         1.5063 
  92   0.0000       0.063054         1.7158 
  93   0.0000       0.064309         1.7499 
  94   0.0000       0.075497         2.0544 
  95   0.0000       0.078848         2.1456 
  96   0.0000       0.084474         2.2987 
  97   0.0000       0.087132         2.3710 
  98   0.0000       0.092533         2.5179 
  99   0.0000       0.094579         2.5736 
 100   0.0000       0.095812         2.6072 
 101   0.0000       0.102421         2.7870 
 102   0.0000       0.103908         2.8275 
 103   0.0000       0.117598         3.2000 
 104   0.0000       0.121671         3.3108 
 105   0.0000       0.126270         3.4360 
 106   0.0000       0.130523         3.5517 
 107   0.0000       0.134716         3.6658 
 108   0.0000       0.144767         3.9393 
 109   0.0000       0.146451         3.9851 
 110   0.0000       0.150525         4.0960 
 111   0.0000       0.160268         4.3611 
 112   0.0000       0.160459         4.3663 
 113   0.0000       0.162715         4.4277 
 114   0.0000       0.167215         4.5502 
 115   0.0000       0.170982         4.6527 
 116   0.0000       0.172396         4.6911 
 117   0.0000       0.180565         4.9134 
 118   0.0000       0.186301         5.0695 
 119   0.0000       0.205880         5.6023 
 120   0.0000       0.215025         5.8511 
 121   0.0000       0.217993         5.9319 
 122   0.0000       0.219972         5.9857 
 123   0.0000       0.220084         5.9888 
 124   0.0000       0.227281         6.1846 
 125   0.0000       0.245039         6.6678 
 126   0.0000       0.249122         6.7790 
 127   0.0000       0.264731         7.2037 
 128   0.0000       0.279872         7.6157 
 129   0.0000       0.282787         7.6950 
 130   0.0000       0.292008         7.9459 
 131   0.0000       0.292810         7.9678 
 132   0.0000       0.311358         8.4725 
 133   0.0000       0.316094         8.6014 
 134   0.0000       0.321158         8.7392 
 135   0.0000       0.334645         9.1062 
 136   0.0000       0.343464         9.3461 
 137   0.0000       0.360170         9.8007 
 138   0.0000       0.368925        10.0390 
 139   0.0000       0.376228        10.2377 
 140   0.0000       0.398454        10.8425 
 141   0.0000       0.410386        11.1672 
 142   0.0000       0.412384        11.2216 
 143   0.0000       0.413562        11.2536 
 144   0.0000       0.420234        11.4351 
 145   0.0000       0.422717        11.5027 
 146   0.0000       0.432407        11.7664 
 147   0.0000       0.442795        12.0491 
 148   0.0000       0.447220        12.1695 
 149   0.0000       0.449107        12.2208 
 150   0.0000       0.451040        12.2734 
 151   0.0000       0.458830        12.4854 
 152   0.0000       0.468594        12.7511 
 153   0.0000       0.473126        12.8744 
 154   0.0000       0.474031        12.8990 
 155   0.0000       0.475314        12.9340 
 156   0.0000       0.480989        13.0884 
 157   0.0000       0.483601        13.1594 
 158   0.0000       0.491702        13.3799 
 159   0.0000       0.502351        13.6697 
 160   0.0000       0.504166        13.7190 
 161   0.0000       0.507030        13.7970 
 162   0.0000       0.508810        13.8454 
 163   0.0000       0.510960        13.9039 
 164   0.0000       0.515828        14.0364 
 165   0.0000       0.516232        14.0474 
 166   0.0000       0.516514        14.0551 
 167   0.0000       0.521065        14.1789 
 168   0.0000       0.527398        14.3512 
 169   0.0000       0.531608        14.4658 
 170   0.0000       0.539712        14.6863 
 171   0.0000       0.547446        14.8968 
 172   0.0000       0.561761        15.2863 
 173   0.0000       0.568928        15.4813 
 174   0.0000       0.574122        15.6226 
 175   0.0000       0.576578        15.6895 
 176   0.0000       0.588508        16.0141 
 177   0.0000       0.591664        16.1000 
 178   0.0000       0.594190        16.1687 
 179   0.0000       0.599223        16.3057 
 180   0.0000       0.606800        16.5119 
 181   0.0000       0.609887        16.5959 
 182   0.0000       0.618866        16.8402 
 183   0.0000       0.625161        17.0115 
 184   0.0000       0.626621        17.0512 
 185   0.0000       0.632048        17.1989 
 186   0.0000       0.638793        17.3824 
 187   0.0000       0.639146        17.3920 
 188   0.0000       0.643032        17.4978 
 189   0.0000       0.645161        17.5557 
 190   0.0000       0.649019        17.6607 
[...]
  Y           0.9690390           -0.2469036            0.0014439
  Z           0.0016230            0.0005217           -0.9999985

Notes:  (1) The A matrix conforms to the "SAI" spin Hamiltonian convention.
        (2) Tensor is right-handed.

 -----------------------------------------------------------
 Nucleus  46H : A:ISTP=    1 I=  0.5 P=533.5514 MHz/au**3
                Q:ISTP=    2 I=  1.0 Q=  0.0029 barn     
 -----------------------------------------------------------
 Solving for nuclear perturbation:
Forming RHS of the CP-SCF equations         ... 
Calc. nucleus orbit integrals (SHARK)       ... done

------------------------------------------------------------------------------
                           ORCA CP-SCF CALCULATION
------------------------------------------------------------------------------

Input orbitals are from        ... cc-pVDZ.gbw
Input Perturbation             ... cc-pVDZ.pin.tmp
Wavefunction output            ... cc-pVDZ.pout.tmp
Perturbation mode              ... Imaginary perturbation
Solver                         ... POPLE
Max. number of iterations      ... 64
Convergence tolerance          ... 1.000e-03
Integral handling              ... Direct
DFT GridXC                     ... 1
COSX GridX                     ... 1
COSX IntAccX                   ... 3.067
COSX Algorithm                 ... Auto
Number of perturbations        ... 3
Number of operators            ... 2
Orbital ranges used for CP-SCF:
 Operator 0:  Orbitals   0... 84  to  85...460
 Operator 1:  Orbitals   0... 83  to  84...460
Variables per perturbation     ... 63628
DFT calculation                         ... on
XC functional terms                     ... off
Hybrid DFT                              ... on
   Exchange mixing (SCF)                ...  0.200
   Exchange mixing (CP-SCF)             ...  0.200
   GGA exch. scaling(SCF)               ...  0.720
   GGA exch. scaling (CP-SCF)           ...  0.720
   GGA corr. scaling (SCF)              ...  0.810
   GGA corr. scaling (CP-SCF)           ...  0.810

CP-SCF GRID
-----------

General Integration Accuracy     IntAcc      ... 3.467
Radial Grid Type                 RadialGrid  ... OptM3 with GC (2021)
Angular Grid (max. ang.)         AngularGrid ... 1 (Lebedev-50)
Angular grid pruning method      GridPruning ... 4 (adaptive)
Weight generation scheme         WeightScheme... Becke
Basis function cutoff            BFCut       ... 1.0000e-10
Integration weight cutoff        WCut        ... 1.0000e-14
Angular grids for H and He will be reduced by one unit
Partially contracted basis set               ... off
Rotationally invariant grid construction     ... off

Total number of grid points                  ...    31901
Total number of batches                      ...      518
Average number of points per batch           ...       61
Average number of grid points per atom       ...      651

CP-SCF GRIDX
------------

General Integration Accuracy     IntAcc      ... 3.067
Radial Grid Type                 RadialGrid  ... OptM3 with GC (2021)
Angular Grid (max. ang.)         AngularGrid ... 1 (Lebedev-50)
Angular grid pruning method      GridPruning ... 4 (adaptive)
Weight generation scheme         WeightScheme... Becke
Basis function cutoff            BFCut       ... 1.0000e-10
Integration weight cutoff        WCut        ... 1.0000e-14
Angular grids for H and He will be reduced by one unit
Partially contracted basis set               ... on
Rotationally invariant grid construction     ... off

Total number of grid points                  ...    14955
Total number of batches                      ...      263
Average number of points per batch           ...       56
Average number of grid points per atom       ...      305

Memory available               ... 876.1 MB
Memory needed per perturbation ...  13.4 MB
Perturbations treated per batch... 3
Number of batches              ... 1
     CP-SCF ITERATION   0:   4.1648e-02 (   1.9 sec   0/  3 done)
     CP-SCF ITERATION   1:   1.7123e-03 (   1.9 sec   2/  3 done)
     CP-SCF ITERATION   2:   9.0172e-05 (   1.2 sec   3/  3 done)
                    *** THE CP-SCF HAS CONVERGED ***

Forming final perturbed densities           ... done
Transforming perturbed density to AO basis  ... done

 Raw HFC matrix (all values in MHz): 
 -----------------------------------
                 1.3458              -0.2688               0.0021
                -0.2687               0.5308              -0.0005
                 0.0021              -0.0005               0.3303

 A(FC)           0.7357               0.7357               0.7357
 A(SD)          -0.4054              -0.2856               0.6910
 A(ORB+DIA)     -0.0000               0.0001              -0.0002    A(PC) =  -0.0000
 A(ORB)         -0.0000               0.0001              -0.0002    A(PC) =  -0.0000
 A(DIA)          0.0000               0.0000               0.0000    A(PC) =   0.0000
             ----------           ----------           ----------
 A(Tot)          0.3303               0.4501               1.4265    A(iso)=    0.7356
 Orientation: 
  X          -0.0021481           -0.2874021            0.9578076
  Y          -0.0004480           -0.9578094           -0.2874037
  Z           0.9999976           -0.0010464            0.0019287

Notes:  (1) The A matrix conforms to the "SAI" spin Hamiltonian convention.
        (2) Tensor is right-handed.

 -----------------------------------------------------------
 Nucleus  47H : A:ISTP=    1 I=  0.5 P=533.5514 MHz/au**3
                Q:ISTP=    2 I=  1.0 Q=  0.0029 barn     
 -----------------------------------------------------------
 Solving for nuclear perturbation:
Forming RHS of the CP-SCF equations         ... 
Calc. nucleus orbit integrals (SHARK)       ... done

------------------------------------------------------------------------------
                           ORCA CP-SCF CALCULATION
------------------------------------------------------------------------------

Input orbitals are from        ... cc-pVDZ.gbw
Input Perturbation             ... cc-pVDZ.pin.tmp
Wavefunction output            ... cc-pVDZ.pout.tmp
Perturbation mode              ... Imaginary perturbation
Solver                         ... POPLE
Max. number of iterations      ... 64
Convergence tolerance          ... 1.000e-03
Integral handling              ... Direct
DFT GridXC                     ... 1
COSX GridX                     ... 1
COSX IntAccX                   ... 3.067
COSX Algorithm                 ... Auto
Number of perturbations        ... 3
Number of operators            ... 2
Orbital ranges used for CP-SCF:
 Operator 0:  Orbitals   0... 84  to  85...460
 Operator 1:  Orbitals   0... 83  to  84...460
Variables per perturbation     ... 63628
DFT calculation                         ... on
XC functional terms                     ... off
Hybrid DFT                              ... on
   Exchange mixing (SCF)                ...  0.200
   Exchange mixing (CP-SCF)             ...  0.200
   GGA exch. scaling(SCF)               ...  0.720
   GGA exch. scaling (CP-SCF)           ...  0.720
   GGA corr. scaling (SCF)              ...  0.810
   GGA corr. scaling (CP-SCF)           ...  0.810

CP-SCF GRID
-----------

General Integration Accuracy     IntAcc      ... 3.467
Radial Grid Type                 RadialGrid  ... OptM3 with GC (2021)
Angular Grid (max. ang.)         AngularGrid ... 1 (Lebedev-50)
Angular grid pruning method      GridPruning ... 4 (adaptive)
Weight generation scheme         WeightScheme... Becke
Basis function cutoff            BFCut       ... 1.0000e-10
Integration weight cutoff        WCut        ... 1.0000e-14
Angular grids for H and He will be reduced by one unit
Partially contracted basis set               ... off
Rotationally invariant grid construction     ... off

Total number of grid points                  ...    31901
Total number of batches                      ...      518
Average number of points per batch           ...       61
Average number of grid points per atom       ...      651

CP-SCF GRIDX
------------

General Integration Accuracy     IntAcc      ... 3.067
Radial Grid Type                 RadialGrid  ... OptM3 with GC (2021)
Angular Grid (max. ang.)         AngularGrid ... 1 (Lebedev-50)
Angular grid pruning method      GridPruning ... 4 (adaptive)
Weight generation scheme         WeightScheme... Becke
Basis function cutoff            BFCut       ... 1.0000e-10
Integration weight cutoff        WCut        ... 1.0000e-14
Angular grids for H and He will be reduced by one unit
Partially contracted basis set               ... on
Rotationally invariant grid construction     ... off

Total number of grid points                  ...    14955
Total number of batches                      ...      263
Average number of points per batch           ...       56
Average number of grid points per atom       ...      305

Memory available               ... 875.6 MB
Memory needed per perturbation ...  13.4 MB
Perturbations treated per batch... 3
Number of batches              ... 1
     CP-SCF ITERATION   0:   4.1612e-02 (   1.9 sec   0/  3 done)
     CP-SCF ITERATION   1:   1.6871e-03 (   1.9 sec   2/  3 done)
     CP-SCF ITERATION   2:   7.7519e-05 (   1.4 sec   3/  3 done)
                    *** THE CP-SCF HAS CONVERGED ***

Forming final perturbed densities           ... done
Transforming perturbed density to AO basis  ... done

 Raw HFC matrix (all values in MHz): 
 -----------------------------------
                 1.1987               0.0454               0.0020
                 0.0453               0.6228               0.0004
                 0.0020               0.0004               0.3870

 A(FC)           0.7362               0.7362               0.7362
 A(SD)          -0.3493              -0.1170               0.4663
 A(ORB+DIA)      0.0000               0.0001              -0.0001    A(PC) =  -0.0000
 A(ORB)         -0.0000               0.0001              -0.0002    A(PC) =  -0.0000
 A(DIA)          0.0000              -0.0000               0.0001    A(PC) =   0.0000
             ----------           ----------           ----------
 A(Tot)          0.3869               0.6193               1.2023    A(iso)=    0.7362
 Orientation: 
  X          -0.0023534           -0.0781125           -0.9969418
  Y          -0.0013652            0.9969439           -0.0781094
  Z           0.9999963            0.0011772           -0.0024528

Notes:  (1) The A matrix conforms to the "SAI" spin Hamiltonian convention.
        (2) Tensor is right-handed.

 -----------------------------------------------------------
 Nucleus  48H : A:ISTP=    1 I=  0.5 P=533.5514 MHz/au**3
                Q:ISTP=    2 I=  1.0 Q=  0.0029 barn     
 -----------------------------------------------------------
 Solving for nuclear perturbation:
Forming RHS of the CP-SCF equations         ... 
Calc. nucleus orbit integrals (SHARK)       ... done

------------------------------------------------------------------------------
                           ORCA CP-SCF CALCULATION
------------------------------------------------------------------------------

Input orbitals are from        ... cc-pVDZ.gbw
Input Perturbation             ... cc-pVDZ.pin.tmp
Wavefunction output            ... cc-pVDZ.pout.tmp
Perturbation mode              ... Imaginary perturbation
Solver                         ... POPLE
Max. number of iterations      ... 64
Convergence tolerance          ... 1.000e-03
Integral handling              ... Direct
DFT GridXC                     ... 1
COSX GridX                     ... 1
COSX IntAccX                   ... 3.067
COSX Algorithm                 ... Auto
Number of perturbations        ... 3
Number of operators            ... 2
Orbital ranges used for CP-SCF:
 Operator 0:  Orbitals   0... 84  to  85...460
 Operator 1:  Orbitals   0... 83  to  84...460
Variables per perturbation     ... 63628
DFT calculation                         ... on
XC functional terms                     ... off
Hybrid DFT                              ... on
   Exchange mixing (SCF)                ...  0.200
   Exchange mixing (CP-SCF)             ...  0.200
   GGA exch. scaling(SCF)               ...  0.720
   GGA exch. scaling (CP-SCF)           ...  0.720
   GGA corr. scaling (SCF)              ...  0.810
   GGA corr. scaling (CP-SCF)           ...  0.810

CP-SCF GRID
-----------

General Integration Accuracy     IntAcc      ... 3.467
Radial Grid Type                 RadialGrid  ... OptM3 with GC (2021)
Angular Grid (max. ang.)         AngularGrid ... 1 (Lebedev-50)
Angular grid pruning method      GridPruning ... 4 (adaptive)
Weight generation scheme         WeightScheme... Becke
Basis function cutoff            BFCut       ... 1.0000e-10
Integration weight cutoff        WCut        ... 1.0000e-14
Angular grids for H and He will be reduced by one unit
Partially contracted basis set               ... off
Rotationally invariant grid construction     ... off

Total number of grid points                  ...    31901
Total number of batches                      ...      518
Average number of points per batch           ...       61
Average number of grid points per atom       ...      651

CP-SCF GRIDX
------------

General Integration Accuracy     IntAcc      ... 3.067
Radial Grid Type                 RadialGrid  ... OptM3 with GC (2021)
Angular Grid (max. ang.)         AngularGrid ... 1 (Lebedev-50)
Angular grid pruning method      GridPruning ... 4 (adaptive)
Weight generation scheme         WeightScheme... Becke
Basis function cutoff            BFCut       ... 1.0000e-10
Integration weight cutoff        WCut        ... 1.0000e-14
Angular grids for H and He will be reduced by one unit
Partially contracted basis set               ... on
Rotationally invariant grid construction     ... off

Total number of grid points                  ...    14955
Total number of batches                      ...      263
Average number of points per batch           ...       56
Average number of grid points per atom       ...      305

Memory available               ... 875.0 MB
Memory needed per perturbation ...  13.4 MB
Perturbations treated per batch... 3
Number of batches              ... 1
     CP-SCF ITERATION   0:   4.5831e-02 (   1.8 sec   0/  3 done)
     CP-SCF ITERATION   1:   2.0698e-03 (   1.8 sec   0/  3 done)
     CP-SCF ITERATION   2:   1.4366e-04 (   1.9 sec   3/  3 done)
                    *** THE CP-SCF HAS CONVERGED ***

Forming final perturbed densities           ... done
Transforming perturbed density to AO basis  ... done

 Raw HFC matrix (all values in MHz): 
 -----------------------------------
                -1.0536              -0.5708               0.0020
                -0.5706              -1.4712              -0.0008
                 0.0020              -0.0008              -2.5356

 A(FC)          -1.6872              -1.6872              -1.6872
 A(SD)           1.0319              -0.1836              -0.8482
 A(ORB+DIA)      0.0006               0.0008              -0.0001    A(PC) =   0.0004
 A(ORB)          0.0005               0.0006               0.0000    A(PC) =   0.0004
 A(DIA)          0.0001               0.0001              -0.0001    A(PC) =   0.0000
             ----------           ----------           ----------
 A(Tot)         -0.6547              -1.8701              -2.5356    A(iso)=   -1.6868
 Orientation: 
  X          -0.8196090            0.5729216            0.0013782
  Y           0.5729222            0.8196098            0.0000258
  Z          -0.0011148            0.0008107           -0.9999990

Notes:  (1) The A matrix conforms to the "SAI" spin Hamiltonian convention.
        (2) Tensor is right-handed.


--------------------------------------------------------------------------------
----------------------------------------------------------------------------
                           ORCA EULER ANGLE PROGRAM
----------------------------------------------------------------------------

Only g-tensor available        -->  using g-tensor as reference tensor

Reference tensor               ...  g

g-tensor ordering              ...  |g_min> --> |gx>
                                    |g_mid> --> |gy>
                                    |g_max> --> |gz>

A- and EFG-tensor ordering     ...  the axes |Ax>, |Qx>, |Ay>, etc. are assigned
                                    such that the Euler rotation is minimal. You
                                    can find the respective eigenvalues as Ax,
                                    EFGx, Ay, etc. in the tables below.
                                    The relation of |Ax>, |Ay>,  etc. to Amin, Amid, etc.
                                    (as printed in the ORCA EPR/NMR CALCULATION Output)
                                    is obtained in the detailed printout.

Euler rotation around          ...  z - y - z
   First rotation              -->  by alpha around z
   Second rotation             -->  by beta around y'
   Third rotation              -->  by gamma around z''
   Positive / Negative angle   -->  clockwise / counterclockwise rotation

Plot EFG-tensors                    (-)
Plot HFC-tensors                    (-)
Detailed Printout                   (-)

-------------------------------------------------------------------------
          Euler rotation of hyperfine tensor to g-tensor
-------------------------------------------------------------------------

-------------------------------------------------------------------
 Atom  |   Alpha    Beta    Gamma   |   Ax       Ay       Az 
       |          [degrees]         |           [MHz]         
-------------------------------------------------------------------
  9H      -90.1     20.5     90.1     -15.92    -6.98   -19.45
 10H      -90.0     23.7     90.0       4.08     4.66     9.46
 12H       90.0     29.1    -90.0     -45.59   -17.07   -70.29
 14H      -73.4     20.7     53.7      56.29    65.72    57.56
 15H     -105.9     20.6    125.5      56.02    65.45    57.30
 17H       -3.9     16.2    -27.4      -3.14    -2.97     3.12
 18H     -176.1     16.0   -152.5      -3.13    -2.97     3.12
 20H      118.6     39.0    -74.0      -0.10     0.03     2.21
 21H       61.0     38.9   -105.9      -0.10     0.03     2.21
 23H      176.8     23.5    138.6      20.67    20.10    23.74
 24H        3.1     23.5     41.4      20.67    20.11    23.74
 26H       79.4     44.0    -72.0      -0.96    -0.83     0.95
 27H      100.5     44.0   -108.0      -0.96    -0.83     0.95
 29H       89.5     14.3   -127.4      -0.10    -0.14     0.79
 30H       90.7     14.3    -52.7      -0.10    -0.14     0.79
 32H      100.8     30.3   -104.8      -0.12    -0.10     0.37
 33H       79.1     30.3    -75.3      -0.12    -0.10     0.37
 35H       89.9     26.9    -90.0       3.20     2.11     4.79
 36H       91.2     21.6    -89.9      -0.78    -0.80     0.74
 37H       89.8     19.9    -90.1      -0.13    -0.13     0.24
 44H       89.8     25.3    -90.0      -1.97    -0.50    -3.05
 45H       89.8     16.2    -89.9      -2.23    -1.91    -0.91
 46H       89.9     13.8    -90.0       0.33     1.43     0.45
 47H       89.9     35.0    -90.0       0.39     1.20     0.62
 48H      -90.2      4.5     90.1      -2.54    -0.65    -1.87
-------------------------------------------------------------------


Maximum memory used throughout the entire EPRNMR-calculation: 219.2 MB

Timings for individual modules:

Sum of individual times         ...     4784.191 sec (=  79.737 min)
GTO integral calculation        ...        6.274 sec (=   0.105 min)   0.1 %
Spin-Orbit-Coupling Matrices    ...        9.660 sec (=   0.161 min)   0.2 %
SCF iterations                  ...       31.735 sec (=   0.529 min)   0.7 %
EPR/NMR calculation             ...     4736.523 sec (=  78.942 min)  99.0 %
                             ****ORCA TERMINATED NORMALLY****
TOTAL RUN TIME: 0 days 1 hours 19 minutes 48 seconds 771 msec
