
                                 *****************
                                 * O   R   C   A *
                                 *****************

                                            #,                                       
                                            ###                                      
                                            ####                                     
                                            #####                                    
                                            ######                                   
                                           ########,                                 
                                     ,,################,,,,,                         
                               ,,#################################,,                 
                          ,,##########################################,,             
                       ,#########################################, ''#####,          
                    ,#############################################,,   '####,        
                  ,##################################################,,,,####,       
                ,###########''''           ''''###############################       
              ,#####''   ,,,,##########,,,,          '''####'''          '####       
            ,##' ,,,,###########################,,,                        '##       
           ' ,,###''''                  '''############,,,                           
         ,,##''                                '''############,,,,        ,,,,,,###''
      ,#''                                            '''#######################'''  
     '                                                          ''''####''''         
             ,#######,   #######,   ,#######,      ##                                
            ,#'     '#,  ##    ##  ,#'     '#,    #''#        ######   ,####,        
            ##       ##  ##   ,#'  ##            #'  '#       #        #'  '#        
            ##       ##  #######   ##           ,######,      #####,   #    #        
            '#,     ,#'  ##    ##  '#,     ,#' ,#      #,         ##   #,  ,#        
             '#######'   ##     ##  '#######'  #'      '#     #####' # '####'        



                  #######################################################
                  #                        -***-                        #
                  #          Department of theory and spectroscopy      #
                  #    Directorship and core code : Frank Neese         #
                  #        Max Planck Institute fuer Kohlenforschung    #
                  #                Kaiser Wilhelm Platz 1               #
                  #                 D-45470 Muelheim/Ruhr               #
                  #                      Germany                        #
                  #                                                     #
                  #                  All rights reserved                #
                  #                        -***-                        #
                  #######################################################


                         Program Version 5.0.4 -  RELEASE  -


 With contributions from (in alphabetic order):
   Daniel Aravena         : Magnetic Suceptibility
   Michael Atanasov       : Ab Initio Ligand Field Theory (pilot matlab implementation)
   Alexander A. Auer      : GIAO ZORA, VPT2 properties, NMR spectrum
   Ute Becker             : Parallelization
   Giovanni Bistoni       : ED, misc. LED, open-shell LED, HFLD
   Martin Brehm           : Molecular dynamics
   Dmytro Bykov           : SCF Hessian
   Vijay G. Chilkuri      : MRCI spin determinant printing, contributions to CSF-ICE
   Dipayan Datta          : RHF DLPNO-CCSD density
   Achintya Kumar Dutta   : EOM-CC, STEOM-CC
   Dmitry Ganyushin       : Spin-Orbit,Spin-Spin,Magnetic field MRCI
   Miquel Garcia          : C-PCM and meta-GGA Hessian, CC/C-PCM, Gaussian charge scheme
   Yang Guo               : DLPNO-NEVPT2, F12-NEVPT2, CIM, IAO-localization
   Andreas Hansen         : Spin unrestricted coupled pair/coupled cluster methods
   Benjamin Helmich-Paris : MC-RPA, TRAH-SCF, COSX integrals
   Lee Huntington         : MR-EOM, pCC
   Robert Izsak           : Overlap fitted RIJCOSX, COSX-SCS-MP3, EOM
   Marcus Kettner         : VPT2
   Christian Kollmar      : KDIIS, OOCD, Brueckner-CCSD(T), CCSD density, CASPT2, CASPT2-K
   Simone Kossmann        : Meta GGA functionals, TD-DFT gradient, OOMP2, MP2 Hessian
   Martin Krupicka        : Initial AUTO-CI
   Lucas Lang             : DCDCAS
   Marvin Lechner         : AUTO-CI (C++ implementation), FIC-MRCC
   Dagmar Lenk            : GEPOL surface, SMD
   Dimitrios Liakos       : Extrapolation schemes; Compound Job, initial MDCI parallelization
   Dimitrios Manganas     : Further ROCIS development; embedding schemes
   Dimitrios Pantazis     : SARC Basis sets
   Anastasios Papadopoulos: AUTO-CI, single reference methods and gradients
   Taras Petrenko         : DFT Hessian,TD-DFT gradient, ASA, ECA, R-Raman, ABS, FL, XAS/XES, NRVS
   Peter Pinski           : DLPNO-MP2, DLPNO-MP2 Gradient
   Christoph Reimann      : Effective Core Potentials
   Marius Retegan         : Local ZFS, SOC
   Christoph Riplinger    : Optimizer, TS searches, QM/MM, DLPNO-CCSD(T), (RO)-DLPNO pert. Triples
   Tobias Risthaus        : Range-separated hybrids, TD-DFT gradient, RPA, STAB
   Michael Roemelt        : Original ROCIS implementation
   Masaaki Saitow         : Open-shell DLPNO-CCSD energy and density
   Barbara Sandhoefer     : DKH picture change effects
   Avijit Sen             : IP-ROCIS
   Kantharuban Sivalingam : CASSCF convergence, NEVPT2, FIC-MRCI
   Bernardo de Souza      : ESD, SOC TD-DFT
   Georgi Stoychev        : AutoAux, RI-MP2 NMR, DLPNO-MP2 response
   Willem Van den Heuvel  : Paramagnetic NMR
   Boris Wezisla          : Elementary symmetry handling
   Frank Wennmohs         : Technical directorship


 We gratefully acknowledge several colleagues who have allowed us to
 interface, adapt or use parts of their codes:
   Stefan Grimme, W. Hujo, H. Kruse, P. Pracht,  : VdW corrections, initial TS optimization,
                  C. Bannwarth, S. Ehlert          DFT functionals, gCP, sTDA/sTD-DF
   Ed Valeev, F. Pavosevic, A. Kumar             : LibInt (2-el integral package), F12 methods
   Garnet Chan, S. Sharma, J. Yang, R. Olivares  : DMRG
   Ulf Ekstrom                                   : XCFun DFT Library
   Mihaly Kallay                                 : mrcc  (arbitrary order and MRCC methods)
   Jiri Pittner, Ondrej Demel                    : Mk-CCSD
   Frank Weinhold                                : gennbo (NPA and NBO analysis)
   Christopher J. Cramer and Donald G. Truhlar   : smd solvation model
   Lars Goerigk                                  : TD-DFT with DH, B97 family of functionals
   V. Asgeirsson, H. Jonsson                     : NEB implementation
   FAccTs GmbH                                   : IRC, NEB, NEB-TS, DLPNO-Multilevel, CI-OPT
                                                   MM, QMMM, 2- and 3-layer-ONIOM, Crystal-QMMM,
                                                   LR-CPCM, SF, NACMEs, symmetry and pop. for TD-DFT,
                                                   nearIR, NL-DFT gradient (VV10), updates on ESD,
                                                   ML-optimized integration grids
   S Lehtola, MJT Oliveira, MAL Marques          : LibXC Library
   Liviu Ungur et al                             : ANISO software


 Your calculation uses the libint2 library for the computation of 2-el integrals
 For citations please refer to: http://libint.valeyev.net

 Your ORCA version has been built with support for libXC version: 5.1.0
 For citations please refer to: https://tddft.org/programs/libxc/

 This ORCA versions uses:
   CBLAS   interface :  Fast vector & matrix operations
   LAPACKE interface :  Fast linear algebra routines
   SCALAPACK package :  Parallel linear algebra routines
   Shared memory     :  Shared parallel matrices
   BLAS/LAPACK       :  OpenBLAS 0.3.15  USE64BITINT DYNAMIC_ARCH NO_AFFINITY SkylakeX SINGLE_THREADED
        Core in use  :  SkylakeX
   Copyright (c) 2011-2014, The OpenBLAS Project




***************************************
The coordinates will be read from file: opt_cc-pVDZ.xyz
***************************************


================================================================================

----- Orbital basis set information -----
Your calculation utilizes the basis: cc-pVDZ 
       H, B-Ne : Obtained from the ccRepo (grant-hill.group.shef.ac.uk/ccrepo) Feb. 2017
                 T. H. Dunning, Jr., J. Chem. Phys. 90, 1007 (1989)
            He : Obtained from the ccRepo (grant-hill.group.shef.ac.uk/ccrepo) Feb. 2017
                 D. E. Woon, T. H. Dunning, Jr., J. Chem. Phys. 100, 2975 (1994)
  Li-Be, Na-Mg : Obtained from the ccRepo (grant-hill.group.shef.ac.uk/ccrepo) Feb. 2017
                 B. P. Prascher, D. E. Woon, K. A. Peterson, T. H. Dunning, Jr., A. K. Wilson, Theor. Chem. Acc. 128, 69 (2011)
         Al-Ar : Obtained from the ccRepo (grant-hill.group.shef.ac.uk/ccrepo) Feb. 2017
                 D. E. Woon, T. H. Dunning, Jr., J. Chem. Phys. 98, 1358 (1993)
            Ca : Obtained from the Peterson Research Group Website (tyr0.chem.wsu.edu/~kipeters) Feb. 2017
                 J. Koput, K. A. Peterson, J. Phys. Chem. 106, 9595 (2002)
         Sc-Zn : Obtained from the ccRepo (grant-hill.group.shef.ac.uk/ccrepo) Feb. 2017
                 N. B. Balabanov, K. A. Peterson, J. Chem. Phys. 123, 064107 (2005)
                 N. B. Balabanov, K. A. Peterson, J. Chem. Phys. 125, 074110 (2006)
         Ga-Kr : Obtained from the ccRepo (grant-hill.group.shef.ac.uk/ccrepo) Feb. 2017
                 A. K. Wilson, D. E. Woon, K. A. Peterson, T. H. Dunning, Jr., J. Chem. Phys. 110, 7667 (1999)

----- AuxJ basis set information -----
Your calculation utilizes the AutoAux generation procedure.
  G. L. Stoychev, A. A. Auer, F. Neese, J. Chem. Theory Comput. 13, 554 (2017)

----- AuxC basis set information -----
Your calculation utilizes the AutoAux generation procedure.
  G. L. Stoychev, A. A. Auer, F. Neese, J. Chem. Theory Comput. 13, 554 (2017)

----- AuxJK basis set information -----
Your calculation utilizes the AutoAux generation procedure.
  G. L. Stoychev, A. A. Auer, F. Neese, J. Chem. Theory Comput. 13, 554 (2017)

================================================================================
                                        WARNINGS
                       Please study these warnings very carefully!
================================================================================

WARNING: Old DensityContainer found on disk!
         Will remove this file - 
         If you want to keep old densities, please start your calculation with a different basename. 


WARNING: your system is open-shell and RHF/RKS was chosen
  ===> : WILL SWITCH to UHF/UKS


INFO   : the flag for use of the SHARK integral package has been found!

================================================================================
                                       INPUT FILE
================================================================================
NAME = cc-pVDZ_i.inp
|  1> ! B3LYP cc-pVDZ AUTOAUX
|  2> %pal nprocs 16 end
|  3> *XYZFile 0 2 opt_cc-pVDZ.xyz
|  4> %EPRNMR
|  5>         GTENSOR   TRUE
|  6>         NUCLEI    = ALL H {SHIFT, AISO, ADIP, AORB}
|  7>         ORI       GIAO
|  8> END
|  9> 
| 10>                          ****END OF INPUT****
================================================================================

                       ****************************
                       * Single Point Calculation *
                       ****************************

---------------------------------
CARTESIAN COORDINATES (ANGSTROEM)
---------------------------------
  C      4.055706   -0.073371    0.001296
  C      2.833589   -0.006538   -0.001788
  C     -2.844896    0.019441   -0.004853
  C      1.413452    0.037492   -0.002626
  C      0.700746    1.295345   -0.002276
  C     -0.721463    1.219527   -0.003060
  C     -1.411403    0.007110   -0.004114
  C     -0.698475   -1.233396   -0.004423
  C      0.695638   -1.174525   -0.003765
  H     -1.303846    2.141153   -0.002844
  H      1.274517   -2.097895   -0.004026
  C      1.376832    2.533498   -0.001126
  H      2.469694    2.505632   -0.000730
  C      0.711306    3.877473   -0.000581
  H      0.041481    3.969632   -0.880471
  H      0.037166    3.966822    0.876259
  C      1.701380    5.049569    0.003759
  H      2.358533    4.962282    0.888281
  H      2.362997    4.965135   -0.877712
  C      1.013977    6.416298    0.004221
  H      0.370441    6.540985    0.892269
  H      0.374953    6.543854   -0.886675
  C     -1.466173   -2.538927   -0.005427
  H     -2.145358   -2.541094    0.867612
  H     -2.144360   -2.540372   -0.879243
  C     -0.640808   -3.828219   -0.005469
  H      0.023102   -3.849434   -0.889318
  H      0.022055   -3.850135    0.879151
  C     -1.515522   -5.087936   -0.006485
  H     -2.182461   -5.068245    0.875368
  H     -2.181282   -5.067647   -0.889215
  C     -0.702818   -6.385152   -0.006382
  H     -0.053167   -6.450604    0.883538
  H     -0.051837   -6.449911   -0.895380
  C     -4.060788    0.033376   -0.006353
  H     -5.133102    0.050110   -0.008357
  H      1.748939    7.237269    0.007413
  H     -1.357157   -7.271992   -0.007216
  C      8.290695   -0.349767    0.011455
  C      7.669171    0.904370    0.011023
  C      6.278250    1.001632    0.007668
  C      5.479338   -0.163533    0.004673
  C      6.117761   -1.424109    0.005135
  C      7.509230   -1.511054    0.008499
  H      9.380814   -0.421986    0.014080
  H      5.506311   -2.328412    0.002815
  H      8.273777    1.814555    0.013324
  H      7.988698   -2.492952    0.008817
  H      5.792544    1.979267    0.007327

----------------------------
CARTESIAN COORDINATES (A.U.)
----------------------------
  NO LB      ZA    FRAG     MASS         X           Y           Z
   0 C     6.0000    0    12.011    7.664174   -0.138651    0.002448
   1 C     6.0000    0    12.011    5.354707   -0.012356   -0.003380
   2 C     6.0000    0    12.011   -5.376074    0.036738   -0.009171
   3 C     6.0000    0    12.011    2.671037    0.070849   -0.004963
   4 C     6.0000    0    12.011    1.324219    2.447847   -0.004302
   5 C     6.0000    0    12.011   -1.363368    2.304572   -0.005782
   6 C     6.0000    0    12.011   -2.667164    0.013436   -0.007775
   7 C     6.0000    0    12.011   -1.319926   -2.330782   -0.008359
   8 C     6.0000    0    12.011    1.314564   -2.219531   -0.007116
   9 H     1.0000    0     1.008   -2.463912    4.046192   -0.005374
  10 H     1.0000    0     1.008    2.408488   -3.964447   -0.007608
  11 C     6.0000    0    12.011    2.601835    4.787618   -0.002128
  12 H     1.0000    0     1.008    4.667046    4.734957   -0.001379
  13 C     6.0000    0    12.011    1.344173    7.327362   -0.001099
  14 H     1.0000    0     1.008    0.078388    7.501517   -1.663850
  15 H     1.0000    0     1.008    0.070233    7.496208    1.655890
  16 C     6.0000    0    12.011    3.215143    9.542302    0.007104
  17 H     1.0000    0     1.008    4.456981    9.377354    1.678607
  18 H     1.0000    0     1.008    4.465418    9.382746   -1.658635
  19 C     6.0000    0    12.011    1.916139   12.125045    0.007976
  20 H     1.0000    0     1.008    0.700032   12.360670    1.686143
  21 H     1.0000    0     1.008    0.708559   12.366092   -1.675573
  22 C     6.0000    0    12.011   -2.770665   -4.797876   -0.010255
  23 H     1.0000    0     1.008   -4.054140   -4.801972    1.639549
  24 H     1.0000    0     1.008   -4.052252   -4.800607   -1.661529
  25 C     6.0000    0    12.011   -1.210952   -7.234285   -0.010334
  26 H     1.0000    0     1.008    0.043656   -7.274376   -1.680568
  27 H     1.0000    0     1.008    0.041678   -7.275701    1.661354
  28 C     6.0000    0    12.011   -2.863921   -9.614805   -0.012254
  29 H     1.0000    0     1.008   -4.124254   -9.577595    1.654207
  30 H     1.0000    0     1.008   -4.122026   -9.576465   -1.680373
  31 C     6.0000    0    12.011   -1.328134  -12.066189   -0.012061
  32 H     1.0000    0     1.008   -0.100471  -12.189876    1.669644
  33 H     1.0000    0     1.008   -0.097959  -12.188565   -1.692023
  34 C     6.0000    0    12.011   -7.673778    0.063072   -0.012006
  35 H     1.0000    0     1.008   -9.700157    0.094694   -0.015793
  36 H     1.0000    0     1.008    3.305016   13.676456    0.014009
  37 H     1.0000    0     1.008   -2.564654  -13.742073   -0.013636
  38 C     6.0000    0    12.011   15.667143   -0.660963    0.021646
  39 C     6.0000    0    12.011   14.492633    1.709011    0.020831
  40 C     6.0000    0    12.011   11.864172    1.892811    0.014490
  41 C     6.0000    0    12.011   10.354449   -0.309033    0.008831
  42 C     6.0000    0    12.011   11.560893   -2.691176    0.009703
  43 C     6.0000    0    12.011   14.190387   -2.855479    0.016061
  44 H     1.0000    0     1.008   17.727169   -0.797437    0.026607
  45 H     1.0000    0     1.008   10.405420   -4.400061    0.005319
  46 H     1.0000    0     1.008   15.635173    3.429012    0.025179
  47 H     1.0000    0     1.008   15.096452   -4.710996    0.016661
  48 H     1.0000    0     1.008   10.946322    3.740272    0.013845

--------------------------------
INTERNAL COORDINATES (ANGSTROEM)
--------------------------------
 C      0   0   0     0.000000000000     0.00000000     0.00000000
 C      1   0   0     1.223946882634     0.00000000     0.00000000
 C      2   1   0     5.678544956369   177.12974599     0.00000000
 C      2   1   3     1.420819652391   178.64119642     2.40392378
 C      4   2   1     1.445733200903   121.31193284   175.29474453
 C      5   4   2     1.424229211359   116.48454727   180.00587029
 C      6   5   4     1.394981358237   122.69406955     0.00000000
 C      7   6   5     1.430776833144   120.47119923     0.00000000
 C      8   7   6     1.395354882278   117.46819732     0.00000000
 H      6   5   4     1.090212565534   119.23758069   180.00056531
 H      9   8   7     1.089822483249   119.66635948   180.00313963
 C      5   4   2     1.410714650476   121.82744209     0.00000000
 H     12   5   4     1.093217878193   117.17580392     0.00000000
 C     12   5   4     1.499730835395   125.01928806   180.00536219
 H     14  12   5     1.109668689597   109.99904260   302.48324833
 H     14  12   5     1.109638383152   110.00159254    57.26646048
 C     14  12   5     1.534299692345   113.46776737   179.87478735
 H     17  14  12     1.105371845017   109.00023731   302.33912435
 H     17  14  12     1.105376392048   109.00370599    57.65376323
 C     17  14  12     1.529860039133   113.11167505   179.99729558
 H     20  17  14     1.103772944215   111.29271195    59.86753312
 H     20  17  14     1.103773973162   111.29261759   300.12738996
 C      8   7   6     1.514519816258   119.65667809   179.99366733
 H     23   8   7     1.106116755633   108.20463236   303.78193936
 H     23   8   7     1.106117060866   108.20618361    56.23545884
 C     23   8   7     1.530849620024   116.91684955   180.01015604
 H     26  23   8     1.105629626198   109.87290444   301.74450868
 H     26  23   8     1.105630659798   109.87166264    58.25385354
 C     26  23   8     1.533627145382   112.59881168   179.99868825
 H     29  26  23     1.105830406727   109.19803290   302.35156748
 H     29  26  23     1.105830635359   109.19833116    57.66089805
 C     29  26  23     1.530770276739   113.15786175   180.00630127
 H     32  29  26     1.103761091883   111.27160614    59.86044914
 H     32  29  26     1.103760446244   111.27156263   300.15000118
 C      3   2   1     1.215973371854   179.60349814   183.48963410
 H     35   3   7     1.072446082057   179.75981430   354.60669803
 H     20  17  14     1.101895561493   111.46358437   179.99725868
 H     32  29  26     1.102108751518   111.51186237   180.00515766
 C      1   2   4     4.244011006523   179.39600038     5.34981364
 C     39   1   2     1.399696285702    59.90388528   179.37415414
 C     40  39   1     1.394322052105   120.36200653     0.00000000
 C     41  40  39     1.412755895477   120.43717729     0.00000000
 C     42  41  40     1.413023230811   118.70278376     0.00000000
 C     43  42  41     1.394186303919   120.43550020     0.00000000
 H     39   1   2     1.092511412737   179.94386600   358.77075424
 H     43  42  41     1.091622877178   119.07494798   180.00101811
 H     40  39   1     1.092698880675   120.04305326   179.99871315
 H     44  43  42     1.092708960816   119.60203421   179.99986093
 H     41  40  39     1.091640834056   120.41892804   180.00011553

---------------------------
INTERNAL COORDINATES (A.U.)
---------------------------
 C      0   0   0     0.000000000000     0.00000000     0.00000000
 C      1   0   0     2.312924410645     0.00000000     0.00000000
 C      2   1   0    10.730894806698   177.12974599     0.00000000
 C      2   1   3     2.684960028712   178.64119642     2.40392378
 C      4   2   1     2.732039812425   121.31193284   175.29474453
 C      5   4   2     2.691403161400   116.48454727   180.00587029
 C      6   5   4     2.636132728994   122.69406955     0.00000000
 C      7   6   5     2.703776373401   120.47119923     0.00000000
 C      8   7   6     2.636838587135   117.46819732     0.00000000
 H      6   5   4     2.060203176619   119.23758069   180.00056531
 H      9   8   7     2.059466027931   119.66635948   180.00313963
 C      5   4   2     2.665864342510   121.82744209     0.00000000
 H     12   5   4     2.065882394491   117.17580392     0.00000000
 C     12   5   4     2.834080553494   125.01928806   180.00536219
 H     14  12   5     2.096969922726   109.99904260   302.48324833
 H     14  12   5     2.096912651845   110.00159254    57.26646048
 C     14  12   5     2.899406225891   113.46776737   179.87478735
 H     17  14  12     2.088850063229   109.00023731   302.33912435
 H     17  14  12     2.088858655873   109.00370599    57.65376323
 C     17  14  12     2.891016497192   113.11167505   179.99729558
 H     20  17  14     2.085828578599   111.29271195    59.86753312
 H     20  17  14     2.085830523026   111.29261759   300.12738996
 C      8   7   6     2.862027677125   119.65667809   179.99366733
 H     23   8   7     2.090257740288   108.20463236   303.78193936
 H     23   8   7     2.090258317095   108.20618361    56.23545884
 C     23   8   7     2.892886534063   116.91684955   180.01015604
 H     26  23   8     2.089337199064   109.87290444   301.74450868
 H     26  23   8     2.089339152284   109.87166264    58.25385354
 C     26  23   8     2.898135296320   112.59881168   179.99868825
 H     29  26  23     2.089716619276   109.19803290   302.35156748
 H     29  26  23     2.089717051328   109.19833116    57.66089805
 C     29  26  23     2.892736596984   113.15786175   180.00630127
 H     32  29  26     2.085806180937   111.27160614    59.86044914
 H     32  29  26     2.085804960856   111.27156263   300.15000118
 C      3   2   1     2.297856658945   179.60349814   183.48963410
 H     35   3   7     2.026629388484   179.75981430   354.60669803
 H     20  17  14     2.082280839404   111.46358437   179.99725868
 H     32  29  26     2.082683710166   111.51186237   180.00515766
 C      1   2   4     8.020018511675   179.39600038     5.34981364
 C     39   1   2     2.645042650643    59.90388528   179.37415414
 C     40  39   1     2.634886820966   120.36200653     0.00000000
 C     41  40  39     2.669721736534   120.43717729     0.00000000
 C     42  41  40     2.670226927101   118.70278376     0.00000000
 C     43  42  41     2.634630294071   120.43550020     0.00000000
 H     39   1   2     2.064547368256   179.94386600   358.77075424
 H     43  42  41     2.062868279390   119.07494798   180.00101811
 H     40  39   1     2.064901631318   120.04305326   179.99871315
 H     44  43  42     2.064920680024   119.60203421   179.99986093
 H     41  40  39     2.062902212972   120.41892804   180.00011553

---------------------
BASIS SET INFORMATION
---------------------
There are 2 groups of distinct atoms

 Group   1 Type C   : 17s4p1d contracted to 3s2p1d pattern {881/31/1}
 Group   2 Type H   : 4s1p contracted to 2s1p pattern {31/1}

Atom   0C    basis set group =>   1
Atom   1C    basis set group =>   1
Atom   2C    basis set group =>   1
Atom   3C    basis set group =>   1
Atom   4C    basis set group =>   1
Atom   5C    basis set group =>   1
Atom   6C    basis set group =>   1
Atom   7C    basis set group =>   1
Atom   8C    basis set group =>   1
Atom   9H    basis set group =>   2
Atom  10H    basis set group =>   2
Atom  11C    basis set group =>   1
Atom  12H    basis set group =>   2
Atom  13C    basis set group =>   1
Atom  14H    basis set group =>   2
Atom  15H    basis set group =>   2
Atom  16C    basis set group =>   1
Atom  17H    basis set group =>   2
Atom  18H    basis set group =>   2
Atom  19C    basis set group =>   1
Atom  20H    basis set group =>   2
Atom  21H    basis set group =>   2
Atom  22C    basis set group =>   1
Atom  23H    basis set group =>   2
Atom  24H    basis set group =>   2
Atom  25C    basis set group =>   1
Atom  26H    basis set group =>   2
Atom  27H    basis set group =>   2
Atom  28C    basis set group =>   1
Atom  29H    basis set group =>   2
Atom  30H    basis set group =>   2
Atom  31C    basis set group =>   1
Atom  32H    basis set group =>   2
Atom  33H    basis set group =>   2
Atom  34C    basis set group =>   1
Atom  35H    basis set group =>   2
Atom  36H    basis set group =>   2
Atom  37H    basis set group =>   2
Atom  38C    basis set group =>   1
Atom  39C    basis set group =>   1
Atom  40C    basis set group =>   1
Atom  41C    basis set group =>   1
Atom  42C    basis set group =>   1
Atom  43C    basis set group =>   1
Atom  44H    basis set group =>   2
Atom  45H    basis set group =>   2
Atom  46H    basis set group =>   2
Atom  47H    basis set group =>   2
Atom  48H    basis set group =>   2
---------------------------------
AUXILIARY/J BASIS SET INFORMATION
---------------------------------
There are 2 groups of distinct atoms

 Group   1 Type C   : 14s11p10d2f contracted to 14s11p10d2f pattern {11111111111111/11111111111/1111111111/11}
 Group   2 Type H   : 9s2p1d contracted to 9s2p1d pattern {111111111/11/1}

Atom   0C    basis set group =>   1
Atom   1C    basis set group =>   1
Atom   2C    basis set group =>   1
Atom   3C    basis set group =>   1
Atom   4C    basis set group =>   1
Atom   5C    basis set group =>   1
Atom   6C    basis set group =>   1
Atom   7C    basis set group =>   1
Atom   8C    basis set group =>   1
Atom   9H    basis set group =>   2
Atom  10H    basis set group =>   2
Atom  11C    basis set group =>   1
Atom  12H    basis set group =>   2
Atom  13C    basis set group =>   1
Atom  14H    basis set group =>   2
Atom  15H    basis set group =>   2
Atom  16C    basis set group =>   1
Atom  17H    basis set group =>   2
Atom  18H    basis set group =>   2
Atom  19C    basis set group =>   1
Atom  20H    basis set group =>   2
Atom  21H    basis set group =>   2
Atom  22C    basis set group =>   1
Atom  23H    basis set group =>   2
Atom  24H    basis set group =>   2
Atom  25C    basis set group =>   1
Atom  26H    basis set group =>   2
Atom  27H    basis set group =>   2
Atom  28C    basis set group =>   1
Atom  29H    basis set group =>   2
Atom  30H    basis set group =>   2
Atom  31C    basis set group =>   1
Atom  32H    basis set group =>   2
Atom  33H    basis set group =>   2
Atom  34C    basis set group =>   1
Atom  35H    basis set group =>   2
Atom  36H    basis set group =>   2
Atom  37H    basis set group =>   2
Atom  38C    basis set group =>   1
Atom  39C    basis set group =>   1
Atom  40C    basis set group =>   1
Atom  41C    basis set group =>   1
Atom  42C    basis set group =>   1
Atom  43C    basis set group =>   1
Atom  44H    basis set group =>   2
Atom  45H    basis set group =>   2
Atom  46H    basis set group =>   2
Atom  47H    basis set group =>   2
Atom  48H    basis set group =>   2
---------------------------------
AUXILIARY/C BASIS SET INFORMATION
---------------------------------
There are 2 groups of distinct atoms

 Group   1 Type C   : 14s11p10d2f contracted to 14s11p10d2f pattern {11111111111111/11111111111/1111111111/11}
 Group   2 Type H   : 9s2p1d contracted to 9s2p1d pattern {111111111/11/1}

Atom   0C    basis set group =>   1
Atom   1C    basis set group =>   1
Atom   2C    basis set group =>   1
Atom   3C    basis set group =>   1
Atom   4C    basis set group =>   1
Atom   5C    basis set group =>   1
Atom   6C    basis set group =>   1
Atom   7C    basis set group =>   1
Atom   8C    basis set group =>   1
Atom   9H    basis set group =>   2
Atom  10H    basis set group =>   2
Atom  11C    basis set group =>   1
Atom  12H    basis set group =>   2
Atom  13C    basis set group =>   1
Atom  14H    basis set group =>   2
Atom  15H    basis set group =>   2
Atom  16C    basis set group =>   1
Atom  17H    basis set group =>   2
Atom  18H    basis set group =>   2
Atom  19C    basis set group =>   1
Atom  20H    basis set group =>   2
Atom  21H    basis set group =>   2
Atom  22C    basis set group =>   1
Atom  23H    basis set group =>   2
Atom  24H    basis set group =>   2
Atom  25C    basis set group =>   1
Atom  26H    basis set group =>   2
Atom  27H    basis set group =>   2
Atom  28C    basis set group =>   1
Atom  29H    basis set group =>   2
Atom  30H    basis set group =>   2
Atom  31C    basis set group =>   1
Atom  32H    basis set group =>   2
Atom  33H    basis set group =>   2
Atom  34C    basis set group =>   1
Atom  35H    basis set group =>   2
Atom  36H    basis set group =>   2
Atom  37H    basis set group =>   2
Atom  38C    basis set group =>   1
Atom  39C    basis set group =>   1
Atom  40C    basis set group =>   1
Atom  41C    basis set group =>   1
Atom  42C    basis set group =>   1
Atom  43C    basis set group =>   1
Atom  44H    basis set group =>   2
Atom  45H    basis set group =>   2
Atom  46H    basis set group =>   2
Atom  47H    basis set group =>   2
Atom  48H    basis set group =>   2
----------------------------------
AUXILIARY/JK BASIS SET INFORMATION
----------------------------------
There are 2 groups of distinct atoms

 Group   1 Type C   : 14s11p10d2f contracted to 14s11p10d2f pattern {11111111111111/11111111111/1111111111/11}
 Group   2 Type H   : 9s2p1d contracted to 9s2p1d pattern {111111111/11/1}

Atom   0C    basis set group =>   1
Atom   1C    basis set group =>   1
Atom   2C    basis set group =>   1
Atom   3C    basis set group =>   1
Atom   4C    basis set group =>   1
Atom   5C    basis set group =>   1
Atom   6C    basis set group =>   1
Atom   7C    basis set group =>   1
Atom   8C    basis set group =>   1
Atom   9H    basis set group =>   2
Atom  10H    basis set group =>   2
Atom  11C    basis set group =>   1
Atom  12H    basis set group =>   2
Atom  13C    basis set group =>   1
Atom  14H    basis set group =>   2
Atom  15H    basis set group =>   2
Atom  16C    basis set group =>   1
Atom  17H    basis set group =>   2
Atom  18H    basis set group =>   2
Atom  19C    basis set group =>   1
Atom  20H    basis set group =>   2
Atom  21H    basis set group =>   2
Atom  22C    basis set group =>   1
Atom  23H    basis set group =>   2
Atom  24H    basis set group =>   2
Atom  25C    basis set group =>   1
Atom  26H    basis set group =>   2
Atom  27H    basis set group =>   2
Atom  28C    basis set group =>   1
Atom  29H    basis set group =>   2
Atom  30H    basis set group =>   2
Atom  31C    basis set group =>   1
Atom  32H    basis set group =>   2
Atom  33H    basis set group =>   2
Atom  34C    basis set group =>   1
Atom  35H    basis set group =>   2
Atom  36H    basis set group =>   2
Atom  37H    basis set group =>   2
Atom  38C    basis set group =>   1
Atom  39C    basis set group =>   1
Atom  40C    basis set group =>   1
Atom  41C    basis set group =>   1
Atom  42C    basis set group =>   1
Atom  43C    basis set group =>   1
Atom  44H    basis set group =>   2
Atom  45H    basis set group =>   2
Atom  46H    basis set group =>   2
Atom  47H    basis set group =>   2
Atom  48H    basis set group =>   2

Checking for AutoStart:
The File: cc-pVDZ_i.gbw exists
Trying to determine its content:
     ... Fine, the file contains calculation information
     ... Fine, the calculation information was read
     ... Fine, the file contains a basis set
     ... Fine, the basis set was read
     ... Fine, the file contains a geometry
     ... Fine, the geometry was read
     ... Fine, the file contains a set of orbitals
     ... Fine, the orbitals can be read
     => possible old guess file was deleted
     => GBW file was renamed to GES file
     => GES file is set as startup file
     => Guess is set to MORead
     ... now leaving AutoStart



           ************************************************************
           *        Program running with 16 parallel MPI-processes    *
           *              working on a common directory               *
           ************************************************************
------------------------------------------------------------------------------
                           ORCA GTO INTEGRAL CALCULATION
                           -- RI-GTO INTEGRALS CHOSEN --
------------------------------------------------------------------------------
------------------------------------------------------------------------------
                   ___                                                        
                  /   \      - P O W E R E D   B Y -                         
                 /     \                                                     
                 |  |  |   _    _      __       _____    __    __             
                 |  |  |  | |  | |    /  \     |  _  \  |  |  /  |          
                  \  \/   | |  | |   /    \    | | | |  |  | /  /          
                 / \  \   | |__| |  /  /\  \   | |_| |  |  |/  /          
                |  |  |   |  __  | /  /__\  \  |    /   |      \           
                |  |  |   | |  | | |   __   |  |    \   |  |\   \          
                \     /   | |  | | |  |  |  |  | |\  \  |  | \   \       
                 \___/    |_|  |_| |__|  |__|  |_| \__\ |__|  \__/        
                                                                              
                      - O R C A' S   B I G   F R I E N D -                    
                                      &                                       
                       - I N T E G R A L  F E E D E R -                       
                                                                              
 v1 FN, 2020, v2 2021                                                         
------------------------------------------------------------------------------


Reading SHARK input file cc-pVDZ_i.SHARKINP.tmp ... ok
----------------------
SHARK INTEGRAL PACKAGE
----------------------

Number of atoms                             ...     49
Number of basis functions                   ...    605
Number of shells                            ...    363
Maximum angular momentum                    ...      2
Integral batch strategy                     ... SHARK/LIBINT Hybrid
RI-J (if used) integral strategy            ... SPLIT-RIJ (Revised 2003 algorithm where possible)
Printlevel                                  ...      1
Contraction scheme used                     ... PARTIAL GENERAL contraction
Coulomb Range Separation                    ... NOT USED
Exchange Range Separation                   ... NOT USED
Finite Nucleus Model                        ... NOT USED
Auxiliary Coulomb fitting basis             ... AVAILABLE
   # of basis functions in Aux-J            ...   3164
   # of shells in Aux-J                     ...   1188
   Maximum angular momentum in Aux-J        ...      3
Auxiliary J/K fitting basis                 ... AVAILABLE
   # of basis functions in Aux-JK           ...   3164
   # of shells in Aux-JK                    ...   1188
   Maximum angular momentum in Aux-JK       ...      3
Auxiliary Correlation fitting basis         ... AVAILABLE
   # of basis functions in Aux-C            ...   3164
   # of shells in Aux-C                     ...   1188
   Maximum angular momentum in Aux-C        ...      3
Auxiliary 'external' fitting basis          ... NOT available
Integral threshold                          ...     1.000000e-10
Primitive cut-off                           ...     1.000000e-11
Primitive pair pre-selection threshold      ...     1.000000e-11

Calculating pre-screening integrals         ... done (  0.0 sec) Dimension = 363
Calculating pre-screening integrals (ORCA)  ... done (  0.1 sec) Dimension = 219
Organizing shell pair data                  ... done (  0.2 sec)
Shell pair information
Total number of shell pairs                 ...     66066
Shell pairs after pre-screening             ...     25393
Total number of primitive shell pairs       ...    106638
Primitive shell pairs kept                  ...     34205
          la=0 lb=0:  10957 shell pairs
          la=1 lb=0:   9002 shell pairs
          la=1 lb=1:   1599 shell pairs
          la=2 lb=0:   2700 shell pairs
          la=2 lb=1:    972 shell pairs
          la=2 lb=2:    163 shell pairs

Calculating one electron integrals          ... done (  0.0 sec)
Calculating RI/J V-Matrix + Cholesky decomp.... done (  0.6 sec)
Calculating RI/JK V-Matrix + Cholesky decomp... done (  0.6 sec)
Calculating RI/C V-Matrix + Cholesky decomp.... done (  0.6 sec)
Calculating Nuclear repulsion               ... done (  0.0 sec) ENN=   1724.111401027512 Eh

SHARK setup successfully completed in   2.5 seconds

Maximum memory used throughout the entire GTOINT-calculation: 41.5 MB


           ************************************************************
           *        Program running with 16 parallel MPI-processes    *
           *              working on a common directory               *
           ************************************************************
-------------------------------------------------------------------------------
                                 ORCA SCF
-------------------------------------------------------------------------------

------------
SCF SETTINGS
------------
Hamiltonian:
 Density Functional     Method          .... DFT(GTOs)
 Exchange Functional    Exchange        .... B88
   X-Alpha parameter    XAlpha          ....  0.666667
   Becke's b parameter  XBeta           ....  0.004200
 Correlation Functional Correlation     .... LYP
 LDA part of GGA corr.  LDAOpt          .... VWN-5
 Gradients option       PostSCFGGA      .... off
 Hybrid DFT is turned on
   Fraction HF Exchange ScalHFX         ....  0.200000
   Scaling of DF-GGA-X  ScalDFX         ....  0.720000
   Scaling of DF-GGA-C  ScalDFC         ....  0.810000
   Scaling of DF-LDA-C  ScalLDAC        ....  1.000000
   Perturbative correction              ....  0.000000
   Density functional embedding theory  .... OFF
   NL short-range parameter             ....  4.800000
 RI-approximation to the Coulomb term is turned on
   Number of AuxJ basis functions       .... 3164
   RIJ-COSX (HFX calculated with COS-X)).... on


General Settings:
 Integral files         IntName         .... cc-pVDZ_i
 Hartree-Fock type      HFTyp           .... UHF
 Total Charge           Charge          ....    0
 Multiplicity           Mult            ....    2
 Number of Electrons    NEL             ....  169
 Basis Dimension        Dim             ....  461
 Nuclear Repulsion      ENuc            ....   1724.1114010275 Eh

Convergence Acceleration:
 DIIS                   CNVDIIS         .... on
   Start iteration      DIISMaxIt       ....    12
   Startup error        DIISStart       ....  0.200000
   # of expansion vecs  DIISMaxEq       ....     5
   Bias factor          DIISBfac        ....   1.050
   Max. coefficient     DIISMaxC        ....  10.000
 Trust-Rad. Augm. Hess. CNVTRAH         .... auto
   Auto Start mean grad. ratio tolernc. ....  1.125000
   Auto Start start iteration           ....     1
   Auto Start num. interpolation iter.  ....    10
   Max. Number of Micro iterations      ....    16
   Max. Number of Macro iterations      .... Maxiter - #DIIS iter
   Number of Davidson start vectors     ....     2
   Converg. threshold I  (grad. norm)   ....   5.000e-05
   Converg. threshold II (energy diff.) ....   1.000e-06
   Grad. Scal. Fac. for Micro threshold ....   0.100
   Minimum threshold for Micro iter.    ....   0.010
   NR start threshold (gradient norm)   ....   0.001
   Initial trust radius                 ....   0.400
   Minimum AH scaling param. (alpha)    ....   1.000
   Maximum AH scaling param. (alpha)    .... 1000.000
   Orbital update algorithm             .... Taylor
   White noise on init. David. guess    .... on
   Maximum white noise                  ....   0.010
   Quad. conv. algorithm                .... NR
 SOSCF                  CNVSOSCF        .... off
 Level Shifting         CNVShift        .... on
   Level shift para.    LevelShift      ....    0.2500
   Turn off err/grad.   ShiftErr        ....    0.0010
 Zerner damping         CNVZerner       .... off
 Static damping         CNVDamp         .... on
   Fraction old density DampFac         ....    0.7000
   Max. Damping (<1)    DampMax         ....    0.9800
   Min. Damping (>=0)   DampMin         ....    0.0000
   Turn off err/grad.   DampErr         ....    0.1000
 Fernandez-Rico         CNVRico         .... off

SCF Procedure:
 Maximum # iterations   MaxIter         ....   125
 SCF integral mode      SCFMode         .... Direct
   Integral package                     .... SHARK and LIBINT hybrid scheme
 Reset frequency        DirectResetFreq ....    20
 Integral Threshold     Thresh          ....  1.000e-10 Eh
 Primitive CutOff       TCut            ....  1.000e-11 Eh

Convergence Tolerance:
 Convergence Check Mode ConvCheckMode   .... Total+1el-Energy
 Convergence forced     ConvForced      .... 0
 Energy Change          TolE            ....  1.000e-06 Eh
 1-El. energy change                    ....  1.000e-03 Eh
 DIIS Error             TolErr          ....  1.000e-06


Diagonalization of the overlap matrix:
Smallest eigenvalue                        ... 5.108e-05
Time for diagonalization                   ...    0.054 sec
Threshold for overlap eigenvalues          ... 1.000e-08
Number of eigenvalues below threshold      ... 0
Time for construction of square roots      ...    0.043 sec
Total time needed                          ...    0.098 sec

---------------------
INITIAL GUESS: MOREAD
---------------------
Guess MOs are being read from file: cc-pVDZ_i.ges
Input Geometry matches current geometry (good)
Input basis set matches current basis set (good)
MOs were renormalized
MOs were reorthogonalized (Cholesky)
                      ------------------
                      INITIAL GUESS DONE (   0.2 sec)
                      ------------------
-------------------
DFT GRID GENERATION
-------------------

General Integration Accuracy     IntAcc      ... 4.388
Radial Grid Type                 RadialGrid  ... OptM3 with GC (2021)
Angular Grid (max. ang.)         AngularGrid ... 4 (Lebedev-302)
Angular grid pruning method      GridPruning ... 4 (adaptive)
Weight generation scheme         WeightScheme... Becke
Basis function cutoff            BFCut       ... 1.0000e-10
Integration weight cutoff        WCut        ... 1.0000e-14
Angular grids for H and He will be reduced by one unit
Partially contracted basis set               ... off
Rotationally invariant grid construction     ... off

Total number of grid points                  ...   223179
Total number of batches                      ...     3505
Average number of points per batch           ...       63
Average number of grid points per atom       ...     4555
Time for grid setup =    1.389 sec

--------------------
COSX GRID GENERATION
--------------------

GRIDX 1
-------
General Integration Accuracy     IntAcc      ... 3.816
Radial Grid Type                 RadialGrid  ... OptM3 with GC (2021)
Angular Grid (max. ang.)         AngularGrid ... 1 (Lebedev-50)
Angular grid pruning method      GridPruning ... 4 (adaptive)
Weight generation scheme         WeightScheme... Becke
Basis function cutoff            BFCut       ... 1.0000e-10
Integration weight cutoff        WCut        ... 1.0000e-14
Angular grids for H and He will be reduced by one unit
Partially contracted basis set               ... on
Rotationally invariant grid construction     ... off

Total number of grid points                  ...    28434
Total number of batches                      ...      470
Average number of points per batch           ...       60
Average number of grid points per atom       ...      580
UseSFitting                                  ... on

GRIDX 2
-------
General Integration Accuracy     IntAcc      ... 4.020
Radial Grid Type                 RadialGrid  ... OptM3 with GC (2021)
Angular Grid (max. ang.)         AngularGrid ... 2 (Lebedev-110)
Angular grid pruning method      GridPruning ... 4 (adaptive)
Weight generation scheme         WeightScheme... Becke
Basis function cutoff            BFCut       ... 1.0000e-10
Integration weight cutoff        WCut        ... 1.0000e-14
Angular grids for H and He will be reduced by one unit
Partially contracted basis set               ... on
Rotationally invariant grid construction     ... off

Total number of grid points                  ...    60668
Total number of batches                      ...      975
Average number of points per batch           ...       62
Average number of grid points per atom       ...     1238
UseSFitting                                  ... on

GRIDX 3
-------
General Integration Accuracy     IntAcc      ... 4.338
Radial Grid Type                 RadialGrid  ... OptM3 with GC (2021)
Angular Grid (max. ang.)         AngularGrid ... 3 (Lebedev-194)
Angular grid pruning method      GridPruning ... 4 (adaptive)
Weight generation scheme         WeightScheme... Becke
Basis function cutoff            BFCut       ... 1.0000e-10
Integration weight cutoff        WCut        ... 1.0000e-14
Angular grids for H and He will be reduced by one unit
Partially contracted basis set               ... on
Rotationally invariant grid construction     ... off

Total number of grid points                  ...   132673
Total number of batches                      ...     2100
Average number of points per batch           ...       63
Average number of grid points per atom       ...     2708
UseSFitting                                  ... on

Time for X-Grid setup             =    2.443 sec

 re-compute Schwartz prescreening matrix in partically contracted basis (1) ...done (   0.122 sec)
--------------
SCF ITERATIONS
--------------
ITER       Energy         Delta-E        Max-DP      RMS-DP      [F,P]     Damp
               ***  Starting incremental Fock matrix formation  ***
  0   -928.9016010950   0.000000000000 0.00004309  0.00000055  0.0001032 0.7000
                 **** Energy Check signals convergence ****

               *****************************************************
               *                     SUCCESS                       *
               *           SCF CONVERGED AFTER   1 CYCLES          *
               *****************************************************

Old exchange energy                            =    -26.638042786 Eh
New exchange energy                            =    -26.638161873 Eh
Exchange energy change after final integration =     -0.000119087 Eh
Total energy after final integration           =   -928.901720292 Eh
Final COS-X integration done in                =     7.881 sec

----------------
TOTAL SCF ENERGY
----------------

Total Energy       :         -928.90172029 Eh          -25276.70085 eV

Components:
Nuclear Repulsion  :         1724.11140103 Eh           46915.45636 eV
Electronic Energy  :        -2653.01312132 Eh          -72192.15721 eV
One Electron Energy:        -4677.22326595 Eh         -127273.71554 eV
Two Electron Energy:         2024.21014463 Eh           55081.55833 eV
Max COSX asymmetry :            0.00000068 Eh               0.00002 eV

Virial components:
Potential Energy   :        -1851.36817539 Eh          -50378.28924 eV
Kinetic Energy     :          922.46645510 Eh           25101.58838 eV
Virial Ratio       :            2.00697615


DFT components:
N(Alpha)           :       85.000125857253 electrons
N(Beta)            :       84.000116234172 electrons
N(Total)           :      169.000242091425 electrons
E(X)               :     -105.658690024002 Eh       
E(C)               :       -6.575599578008 Eh       
E(XC)              :     -112.234289602010 Eh       
DFET-embed. en.    :        0.000000000000 Eh       

---------------
SCF CONVERGENCE
---------------

  Last Energy change         ...   -1.0914e-07  Tolerance :   1.0000e-06
  Last MAX-Density change    ...    1.5658e-05  Tolerance :   1.0000e-05
  Last RMS-Density change    ...    1.8575e-07  Tolerance :   1.0000e-06
  Last DIIS Error            ...    3.7480e-05  Tolerance :   1.0000e-06

             **** THE GBW FILE WAS UPDATED (cc-pVDZ_i.gbw) ****
             **** DENSITY cc-pVDZ_i.scfp WAS UPDATED ****
             **** ENERGY FILE WAS UPDATED (cc-pVDZ_i.en.tmp) ****
----------------------
UHF SPIN CONTAMINATION
----------------------

Warning: in a DFT calculation there is little theoretical justification to 
         calculate <S**2> as in Hartree-Fock theory. We will do it anyways
         but you should keep in mind that the values have only limited relevance

Expectation value of <S**2>     :     0.787421
Ideal value S*(S+1) for S=0.5   :     0.750000
Deviation                       :     0.037421

             **** THE GBW FILE WAS UPDATED (cc-pVDZ_i.gbw) ****
             **** DENSITY cc-pVDZ_i.scfp WAS UPDATED ****
----------------
ORBITAL ENERGIES
----------------
                 SPIN UP ORBITALS
  NO   OCC          E(Eh)            E(eV) 
   0   1.0000     -10.215271      -277.9717 
   1   1.0000     -10.214542      -277.9518 
   2   1.0000     -10.211702      -277.8745 
   3   1.0000     -10.202657      -277.6284 
   4   1.0000     -10.198420      -277.5131 
   5   1.0000     -10.196430      -277.4590 
   6   1.0000     -10.196194      -277.4525 
   7   1.0000     -10.195179      -277.4249 
   8   1.0000     -10.195130      -277.4236 
   9   1.0000     -10.194463      -277.4054 
  10   1.0000     -10.194288      -277.4007 
  11   1.0000     -10.192579      -277.3542 
  12   1.0000     -10.191613      -277.3279 
  13   1.0000     -10.189801      -277.2786 
  14   1.0000     -10.189093      -277.2593 
  15   1.0000     -10.188435      -277.2414 
  16   1.0000     -10.186838      -277.1980 
  17   1.0000     -10.186456      -277.1876 
  18   1.0000     -10.186032      -277.1760 
  19   1.0000     -10.184407      -277.1318 
  20   1.0000     -10.181553      -277.0541 
  21   1.0000     -10.181367      -277.0491 
  22   1.0000     -10.177389      -276.9408 
  23   1.0000     -10.175459      -276.8883 
  24   1.0000      -0.873940       -23.7811 
  25   1.0000      -0.862456       -23.4686 
  26   1.0000      -0.820100       -22.3161 
  27   1.0000      -0.799080       -21.7441 
  28   1.0000      -0.795887       -21.6572 
  29   1.0000      -0.778068       -21.1723 
  30   1.0000      -0.767741       -20.8913 
  31   1.0000      -0.750220       -20.4145 
  32   1.0000      -0.744646       -20.2628 
  33   1.0000      -0.730347       -19.8738 
  34   1.0000      -0.713548       -19.4166 
  35   1.0000      -0.697697       -18.9853 
  36   1.0000      -0.656859       -17.8741 
  37   1.0000      -0.643835       -17.5196 
  38   1.0000      -0.618021       -16.8172 
  39   1.0000      -0.612652       -16.6711 
  40   1.0000      -0.608105       -16.5474 
  41   1.0000      -0.592663       -16.1272 
  42   1.0000      -0.580357       -15.7923 
  43   1.0000      -0.562105       -15.2957 
  44   1.0000      -0.540741       -14.7143 
  45   1.0000      -0.529283       -14.4025 
  46   1.0000      -0.506752       -13.7894 
  47   1.0000      -0.491831       -13.3834 
  48   1.0000      -0.479901       -13.0588 
  49   1.0000      -0.475999       -12.9526 
  50   1.0000      -0.470372       -12.7995 
  51   1.0000      -0.462595       -12.5879 
  52   1.0000      -0.456808       -12.4304 
  53   1.0000      -0.435912       -11.8618 
  54   1.0000      -0.432322       -11.7641 
  55   1.0000      -0.429423       -11.6852 
  56   1.0000      -0.426180       -11.5969 
  57   1.0000      -0.423390       -11.5210 
  58   1.0000      -0.421615       -11.4727 
  59   1.0000      -0.411828       -11.2064 
  60   1.0000      -0.398686       -10.8488 
  61   1.0000      -0.397983       -10.8297 
  62   1.0000      -0.383880       -10.4459 
  63   1.0000      -0.378666       -10.3040 
  64   1.0000      -0.377050       -10.2601 
  65   1.0000      -0.365290        -9.9400 
  66   1.0000      -0.360981        -9.8228 
  67   1.0000      -0.356478        -9.7003 
  68   1.0000      -0.353697        -9.6246 
  69   1.0000      -0.349648        -9.5144 
  70   1.0000      -0.340423        -9.2634 
  71   1.0000      -0.332954        -9.0601 
  72   1.0000      -0.331480        -9.0200 
  73   1.0000      -0.331256        -9.0139 
  74   1.0000      -0.327519        -8.9123 
  75   1.0000      -0.324162        -8.8209 
  76   1.0000      -0.321282        -8.7425 
  77   1.0000      -0.299663        -8.1542 
  78   1.0000      -0.275122        -7.4865 
  79   1.0000      -0.273308        -7.4371 
  80   1.0000      -0.267420        -7.2769 
  81   1.0000      -0.258372        -7.0307 
  82   1.0000      -0.255337        -6.9481 
  83   1.0000      -0.216695        -5.8966 
  84   1.0000      -0.170829        -4.6485 
  85   0.0000      -0.056621        -1.5407 
  86   0.0000      -0.011557        -0.3145 
  87   0.0000      -0.009785        -0.2663 
  88   0.0000       0.013099         0.3564 
  89   0.0000       0.041633         1.1329 
  90   0.0000       0.050413         1.3718 
  91   0.0000       0.054910         1.4942 
  92   0.0000       0.062902         1.7116 
  93   0.0000       0.063922         1.7394 
  94   0.0000       0.070869         1.9285 
  95   0.0000       0.077975         2.1218 
  96   0.0000       0.084384         2.2962 
  97   0.0000       0.087177         2.3722 
  98   0.0000       0.092245         2.5101 
  99   0.0000       0.094140         2.5617 
 100   0.0000       0.095665         2.6032 
 101   0.0000       0.101673         2.7667 
 102   0.0000       0.103751         2.8232 
 103   0.0000       0.117467         3.1964 
 104   0.0000       0.119871         3.2618 
 105   0.0000       0.125707         3.4207 
 106   0.0000       0.130343         3.5468 
 107   0.0000       0.134033         3.6472 
 108   0.0000       0.144629         3.9356 
 109   0.0000       0.146266         3.9801 
 110   0.0000       0.149403         4.0655 
 111   0.0000       0.159554         4.3417 
 112   0.0000       0.159917         4.3516 
 113   0.0000       0.162485         4.4214 
 114   0.0000       0.165929         4.5152 
 115   0.0000       0.169256         4.6057 
 116   0.0000       0.170243         4.6326 
 117   0.0000       0.178891         4.8679 
 118   0.0000       0.184501         5.0205 
 119   0.0000       0.204607         5.5676 
 120   0.0000       0.212951         5.7947 
 121   0.0000       0.213695         5.8149 
 122   0.0000       0.216873         5.9014 
 123   0.0000       0.219123         5.9626 
 124   0.0000       0.226133         6.1534 
 125   0.0000       0.243816         6.6346 
 126   0.0000       0.247085         6.7235 
 127   0.0000       0.262867         7.1530 
 128   0.0000       0.279569         7.6075 
 129   0.0000       0.281146         7.6504 
 130   0.0000       0.291374         7.9287 
 131   0.0000       0.291567         7.9339 
 132   0.0000       0.310071         8.4375 
 133   0.0000       0.315611         8.5882 
 134   0.0000       0.320205         8.7132 
 135   0.0000       0.333059         9.0630 
 136   0.0000       0.342474         9.3192 
 137   0.0000       0.359419         9.7803 
 138   0.0000       0.367952        10.0125 
 139   0.0000       0.375342        10.2136 
 140   0.0000       0.397496        10.8164 
 141   0.0000       0.409816        11.1517 
 142   0.0000       0.411966        11.2102 
 143   0.0000       0.413065        11.2401 
 144   0.0000       0.419882        11.4256 
 145   0.0000       0.421351        11.4655 
 146   0.0000       0.430779        11.7221 
 147   0.0000       0.439608        11.9624 
 148   0.0000       0.440389        11.9836 
 149   0.0000       0.445120        12.1123 
 150   0.0000       0.450024        12.2458 
 151   0.0000       0.452387        12.3101 
 152   0.0000       0.464066        12.6279 
 153   0.0000       0.471628        12.8337 
 154   0.0000       0.473096        12.8736 
 155   0.0000       0.474413        12.9094 
 156   0.0000       0.477830        13.0024 
 157   0.0000       0.482360        13.1257 
 158   0.0000       0.489758        13.3270 
 159   0.0000       0.501229        13.6391 
 160   0.0000       0.503232        13.6936 
 161   0.0000       0.506035        13.7699 
 162   0.0000       0.508123        13.8267 
 163   0.0000       0.510329        13.8868 
 164   0.0000       0.514512        14.0006 
 165   0.0000       0.515377        14.0241 
 166   0.0000       0.515674        14.0322 
 167   0.0000       0.516842        14.0640 
 168   0.0000       0.525949        14.3118 
 169   0.0000       0.526180        14.3181 
 170   0.0000       0.536452        14.5976 
 171   0.0000       0.546169        14.8620 
 172   0.0000       0.558028        15.1847 
 173   0.0000       0.560504        15.2521 
 174   0.0000       0.573318        15.6008 
 175   0.0000       0.573670        15.6104 
 176   0.0000       0.587615        15.9898 
 177   0.0000       0.589040        16.0286 
 178   0.0000       0.593370        16.1464 
 179   0.0000       0.597603        16.2616 
 180   0.0000       0.606377        16.5004 
 181   0.0000       0.608717        16.5640 
 182   0.0000       0.618534        16.8312 
 183   0.0000       0.620619        16.8879 
 184   0.0000       0.626101        17.0371 
 185   0.0000       0.631659        17.1883 
 186   0.0000       0.638629        17.3780 
 187   0.0000       0.638693        17.3797 
 188   0.0000       0.642842        17.4926 
 189   0.0000       0.642995        17.4968 
 190   0.0000       0.648517        17.6471 
 191   0.0000       0.654491        17.8096 
 192   0.0000       0.655701        17.8425 
 193   0.0000       0.656196        17.8560 
 194   0.0000       0.660159        17.9639 
 195   0.0000       0.662187        18.0190 
 196   0.0000       0.665045        18.0968 
 197   0.0000       0.665763        18.1163 
 198   0.0000       0.671364        18.2687 
 199   0.0000       0.674523        18.3547 
 200   0.0000       0.678120        18.4526 
 201   0.0000       0.682716        18.5777 
 202   0.0000       0.684011        18.6129 
 203   0.0000       0.685845        18.6628 
 204   0.0000       0.689163        18.7531 
 205   0.0000       0.691862        18.8265 
 206   0.0000       0.694362        18.8945 
 207   0.0000       0.703636        19.1469 
 208   0.0000       0.707422        19.2499 
 209   0.0000       0.716293        19.4913 
 210   0.0000       0.719388        19.5755 
 211   0.0000       0.729225        19.8432 
 212   0.0000       0.729528        19.8515 
 213   0.0000       0.735559        20.0156 
 214   0.0000       0.739412        20.1204 
 215   0.0000       0.745316        20.2811 
 216   0.0000       0.750821        20.4309 
 217   0.0000       0.758911        20.6510 
 218   0.0000       0.767974        20.8976 
 219   0.0000       0.780347        21.2343 
 220   0.0000       0.784776        21.3548 
 221   0.0000       0.793859        21.6020 
 222   0.0000       0.812240        22.1022 
 223   0.0000       0.816913        22.2293 
 224   0.0000       0.833415        22.6784 
 225   0.0000       0.833821        22.6894 
 226   0.0000       0.841986        22.9116 
 227   0.0000       0.851129        23.1604 
 228   0.0000       0.866190        23.5702 
 229   0.0000       0.869641        23.6641 
 230   0.0000       0.882194        24.0057 
 231   0.0000       0.888853        24.1869 
 232   0.0000       0.900959        24.5163 
 233   0.0000       0.912445        24.8289 
 234   0.0000       0.915381        24.9088 
 235   0.0000       0.916570        24.9411 
 236   0.0000       0.928460        25.2647 
 237   0.0000       0.938474        25.5372 
 238   0.0000       0.953018        25.9329 
 239   0.0000       0.958877        26.0924 
 240   0.0000       0.974067        26.5057 
 241   0.0000       0.976172        26.5630 
 242   0.0000       0.981854        26.7176 
 243   0.0000       0.988713        26.9043 
 244   0.0000       0.994247        27.0548 
 245   0.0000       0.994807        27.0701 
 246   0.0000       1.002049        27.2671 
 247   0.0000       1.018656        27.7190 
 248   0.0000       1.026914        27.9437 
 249   0.0000       1.032536        28.0967 
 250   0.0000       1.039760        28.2933 
 251   0.0000       1.041361        28.3369 
 252   0.0000       1.041790        28.3486 
 253   0.0000       1.052045        28.6276 
 254   0.0000       1.059141        28.8207 
 255   0.0000       1.059452        28.8292 
 256   0.0000       1.071742        29.1636 
 257   0.0000       1.072332        29.1796 
 258   0.0000       1.092518        29.7289 
 259   0.0000       1.103142        30.0180 
 260   0.0000       1.116492        30.3813 
 261   0.0000       1.133514        30.8445 
 262   0.0000       1.152521        31.3617 
 263   0.0000       1.155084        31.4314 
 264   0.0000       1.171177        31.8693 
 265   0.0000       1.181643        32.1541 
 266   0.0000       1.196107        32.5477 
 267   0.0000       1.203366        32.7452 
 268   0.0000       1.207495        32.8576 
 269   0.0000       1.209961        32.9247 
 270   0.0000       1.217706        33.1355 
 271   0.0000       1.218163        33.1479 
 272   0.0000       1.222006        33.2525 
 273   0.0000       1.231919        33.5222 
 274   0.0000       1.234950        33.6047 
 275   0.0000       1.254848        34.1461 
 276   0.0000       1.279230        34.8096 
 277   0.0000       1.291537        35.1445 
 278   0.0000       1.295904        35.2633 
 279   0.0000       1.300425        35.3864 
 280   0.0000       1.315246        35.7897 
 281   0.0000       1.316067        35.8120 
 282   0.0000       1.332589        36.2616 
 283   0.0000       1.339821        36.4584 
 284   0.0000       1.340953        36.4892 
 285   0.0000       1.364694        37.1352 
 286   0.0000       1.372815        37.3562 
 287   0.0000       1.384531        37.6750 
 288   0.0000       1.389472        37.8095 
 289   0.0000       1.392386        37.8888 
 290   0.0000       1.408029        38.3144 
 291   0.0000       1.419556        38.6281 
 292   0.0000       1.421393        38.6781 
 293   0.0000       1.425171        38.7809 
 294   0.0000       1.426716        38.8229 
 295   0.0000       1.436857        39.0989 
 296   0.0000       1.446406        39.3587 
 297   0.0000       1.453760        39.5588 
 298   0.0000       1.468126        39.9497 
 299   0.0000       1.471587        40.0439 
 300   0.0000       1.479919        40.2706 
 301   0.0000       1.482743        40.3475 
 302   0.0000       1.483891        40.3787 
 303   0.0000       1.494093        40.6563 
 304   0.0000       1.500258        40.8241 
 305   0.0000       1.502522        40.8857 
 306   0.0000       1.511479        41.1294 
 307   0.0000       1.523753        41.4634 
 308   0.0000       1.529170        41.6108 
 309   0.0000       1.543828        42.0097 
 310   0.0000       1.551794        42.2264 
 311   0.0000       1.576984        42.9119 
 312   0.0000       1.583883        43.0997 
 313   0.0000       1.584619        43.1197 
 314   0.0000       1.591954        43.3193 
 315   0.0000       1.598341        43.4931 
 316   0.0000       1.601625        43.5824 
 317   0.0000       1.604853        43.6703 
 318   0.0000       1.612181        43.8697 
 319   0.0000       1.616205        43.9792 
 320   0.0000       1.623608        44.1806 
 321   0.0000       1.627384        44.2834 
 322   0.0000       1.630661        44.3725 
 323   0.0000       1.633348        44.4457 
 324   0.0000       1.638022        44.5728 
 325   0.0000       1.640204        44.6322 
 326   0.0000       1.642500        44.6947 
 327   0.0000       1.646148        44.7940 
 328   0.0000       1.648347        44.8538 
 329   0.0000       1.652166        44.9577 
 330   0.0000       1.660206        45.1765 
 331   0.0000       1.670700        45.4621 
 332   0.0000       1.671429        45.4819 
 333   0.0000       1.672944        45.5231 
 334   0.0000       1.682589        45.7856 
 335   0.0000       1.685556        45.8663 
 336   0.0000       1.688764        45.9536 
 337   0.0000       1.688793        45.9544 
 338   0.0000       1.695872        46.1470 
 339   0.0000       1.699295        46.2402 
 340   0.0000       1.703195        46.3463 
 341   0.0000       1.706772        46.4436 
 342   0.0000       1.709595        46.5204 
 343   0.0000       1.718215        46.7550 
 344   0.0000       1.719969        46.8027 
 345   0.0000       1.742156        47.4065 
 346   0.0000       1.742632        47.4194 
 347   0.0000       1.748909        47.5902 
 348   0.0000       1.750261        47.6270 
 349   0.0000       1.761811        47.9413 
 350   0.0000       1.768482        48.1228 
 351   0.0000       1.771257        48.1983 
 352   0.0000       1.781662        48.4815 
 353   0.0000       1.784642        48.5626 
 354   0.0000       1.789858        48.7045 
 355   0.0000       1.794311        48.8257 
 356   0.0000       1.800117        48.9837 
 357   0.0000       1.803609        49.0787 
 358   0.0000       1.808765        49.2190 
 359   0.0000       1.813210        49.3399 
 360   0.0000       1.826573        49.7036 
 361   0.0000       1.830318        49.8055 
 362   0.0000       1.836933        49.9855 
 363   0.0000       1.843480        50.1637 
 364   0.0000       1.847893        50.2837 
 365   0.0000       1.852669        50.4137 
 366   0.0000       1.854079        50.4520 
 367   0.0000       1.859123        50.5893 
 368   0.0000       1.877449        51.0880 
 369   0.0000       1.883005        51.2392 
 370   0.0000       1.892300        51.4921 
 371   0.0000       1.903621        51.8002 
 372   0.0000       1.921940        52.2986 
 373   0.0000       1.922731        52.3202 
 374   0.0000       1.927243        52.4429 
 375   0.0000       1.934717        52.6463 
 376   0.0000       1.943917        52.8967 
 377   0.0000       1.953168        53.1484 
 378   0.0000       1.965636        53.4877 
 379   0.0000       1.973546        53.7029 
 380   0.0000       1.985577        54.0303 
 381   0.0000       1.989658        54.1414 
 382   0.0000       1.994202        54.2650 
 383   0.0000       1.994881        54.2835 
 384   0.0000       2.015863        54.8544 
 385   0.0000       2.027926        55.1827 
 386   0.0000       2.037424        55.4411 
 387   0.0000       2.067953        56.2719 
 388   0.0000       2.071488        56.3680 
 389   0.0000       2.075056        56.4651 
 390   0.0000       2.075617        56.4804 
 391   0.0000       2.089067        56.8464 
 392   0.0000       2.101719        57.1907 
 393   0.0000       2.120925        57.7133 
 394   0.0000       2.126098        57.8541 
 395   0.0000       2.149320        58.4860 
 396   0.0000       2.155552        58.6556 
 397   0.0000       2.156097        58.6704 
 398   0.0000       2.189380        59.5761 
 399   0.0000       2.196821        59.7786 
 400   0.0000       2.198791        59.8322 
 401   0.0000       2.203896        59.9711 
 402   0.0000       2.210491        60.1505 
 403   0.0000       2.217796        60.3493 
 404   0.0000       2.225276        60.5528 
 405   0.0000       2.230095        60.6840 
 406   0.0000       2.237556        60.8870 
 407   0.0000       2.244620        61.0792 
 408   0.0000       2.270618        61.7866 
 409   0.0000       2.283095        62.1262 
 410   0.0000       2.292534        62.3830 
 411   0.0000       2.298116        62.5349 
 412   0.0000       2.302651        62.6583 
 413   0.0000       2.321575        63.1733 
 414   0.0000       2.325240        63.2730 
 415   0.0000       2.336055        63.5673 
 416   0.0000       2.352725        64.0209 
 417   0.0000       2.369306        64.4721 
 418   0.0000       2.371168        64.5228 
 419   0.0000       2.406946        65.4963 
 420   0.0000       2.409658        65.5701 
 421   0.0000       2.412285        65.6416 
 422   0.0000       2.412731        65.6537 
 423   0.0000       2.413352        65.6706 
 424   0.0000       2.417969        65.7963 
 425   0.0000       2.420480        65.8646 
 426   0.0000       2.429266        66.1037 
 427   0.0000       2.443875        66.5012 
 428   0.0000       2.451775        66.7162 
 429   0.0000       2.453773        66.7706 
 430   0.0000       2.482943        67.5643 
 431   0.0000       2.508131        68.2497 
 432   0.0000       2.529104        68.8204 
 433   0.0000       2.540338        69.1261 
 434   0.0000       2.540562        69.1322 
 435   0.0000       2.556771        69.5733 
 436   0.0000       2.581854        70.2558 
 437   0.0000       2.600848        70.7727 
 438   0.0000       2.615810        71.1798 
 439   0.0000       2.628085        71.5138 
 440   0.0000       2.635373        71.7121 
 441   0.0000       2.642093        71.8950 
 442   0.0000       2.665449        72.5306 
 443   0.0000       2.680638        72.9439 
 444   0.0000       2.705553        73.6219 
 445   0.0000       2.714200        73.8571 
 446   0.0000       2.720730        74.0348 
 447   0.0000       2.723086        74.0989 
 448   0.0000       2.732723        74.3612 
 449   0.0000       2.776228        75.5450 
 450   0.0000       2.818918        76.7067 
 451   0.0000       2.847752        77.4913 
 452   0.0000       2.860952        77.8505 
 453   0.0000       2.877026        78.2878 
 454   0.0000       2.907193        79.1087 
 455   0.0000       2.945176        80.1423 
 456   0.0000       3.088566        84.0442 
 457   0.0000       3.120908        84.9242 
 458   0.0000       3.193222        86.8920 
 459   0.0000       3.394746        92.3757 
 460   0.0000       3.584568        97.5411 

                 SPIN DOWN ORBITALS
  NO   OCC          E(Eh)            E(eV) 
   0   1.0000     -10.215622      -277.9812 
   1   1.0000     -10.213334      -277.9190 
   2   1.0000     -10.211180      -277.8603 
   3   1.0000     -10.200878      -277.5800 
   4   1.0000     -10.199252      -277.5358 
   5   1.0000     -10.196054      -277.4487 
   6   1.0000     -10.195822      -277.4424 
   7   1.0000     -10.194927      -277.4181 
   8   1.0000     -10.194626      -277.4099 
   9   1.0000     -10.194276      -277.4004 
  10   1.0000     -10.192100      -277.3411 
  11   1.0000     -10.191390      -277.3218 
  12   1.0000     -10.191222      -277.3172 
  13   1.0000     -10.189107      -277.2597 
  14   1.0000     -10.188909      -277.2543 
  15   1.0000     -10.186661      -277.1931 
  16   1.0000     -10.186657      -277.1930 
  17   1.0000     -10.186575      -277.1908 
  18   1.0000     -10.184368      -277.1307 
  19   1.0000     -10.182733      -277.0863 
  20   1.0000     -10.181550      -277.0541 
  21   1.0000     -10.181367      -277.0491 
  22   1.0000     -10.177397      -276.9410 
  23   1.0000     -10.175460      -276.8884 
  24   1.0000      -0.870631       -23.6911 
  25   1.0000      -0.861994       -23.4561 
  26   1.0000      -0.815217       -22.1832 
  27   1.0000      -0.796380       -21.6706 
  28   1.0000      -0.794684       -21.6244 
  29   1.0000      -0.777220       -21.1492 
  30   1.0000      -0.765731       -20.8366 
  31   1.0000      -0.749864       -20.4048 
  32   1.0000      -0.743530       -20.2325 
  33   1.0000      -0.726477       -19.7684 
  34   1.0000      -0.712765       -19.3953 
  35   1.0000      -0.695510       -18.9258 
  36   1.0000      -0.653837       -17.7918 
  37   1.0000      -0.642612       -17.4864 
  38   1.0000      -0.614371       -16.7179 
  39   1.0000      -0.609823       -16.5941 
  40   1.0000      -0.607871       -16.5410 
  41   1.0000      -0.591764       -16.1027 
  42   1.0000      -0.578753       -15.7487 
  43   1.0000      -0.559670       -15.2294 
  44   1.0000      -0.540194       -14.6994 
  45   1.0000      -0.527999       -14.3676 
  46   1.0000      -0.503564       -13.7027 
  47   1.0000      -0.491018       -13.3613 
  48   1.0000      -0.478656       -13.0249 
  49   1.0000      -0.475049       -12.9267 
  50   1.0000      -0.469529       -12.7765 
  51   1.0000      -0.459201       -12.4955 
  52   1.0000      -0.456600       -12.4247 
  53   1.0000      -0.435299       -11.8451 
  54   1.0000      -0.430504       -11.7146 
  55   1.0000      -0.428177       -11.6513 
  56   1.0000      -0.425015       -11.5653 
  57   1.0000      -0.423285       -11.5182 
  58   1.0000      -0.419000       -11.4016 
  59   1.0000      -0.411352       -11.1935 
  60   1.0000      -0.396911       -10.8005 
  61   1.0000      -0.391148       -10.6437 
  62   1.0000      -0.381234       -10.3739 
  63   1.0000      -0.376387       -10.2420 
  64   1.0000      -0.374440       -10.1890 
  65   1.0000      -0.364167        -9.9095 
  66   1.0000      -0.360534        -9.8106 
  67   1.0000      -0.355640        -9.6774 
  68   1.0000      -0.350724        -9.5437 
  69   1.0000      -0.349480        -9.5098 
  70   1.0000      -0.338201        -9.2029 
  71   1.0000      -0.332430        -9.0459 
  72   1.0000      -0.329884        -8.9766 
  73   1.0000      -0.329011        -8.9528 
  74   1.0000      -0.327177        -8.9029 
  75   1.0000      -0.323401        -8.8002 
  76   1.0000      -0.320638        -8.7250 
  77   1.0000      -0.296851        -8.0777 
  78   1.0000      -0.275090        -7.4856 
  79   1.0000      -0.266998        -7.2654 
  80   1.0000      -0.259969        -7.0741 
  81   1.0000      -0.257365        -7.0033 
  82   1.0000      -0.250538        -6.8175 
  83   1.0000      -0.210250        -5.7212 
  84   0.0000      -0.085892        -2.3372 
  85   0.0000      -0.048579        -1.3219 
  86   0.0000      -0.008916        -0.2426 
  87   0.0000      -0.006425        -0.1748 
  88   0.0000       0.029320         0.7978 
  89   0.0000       0.041971         1.1421 
  90   0.0000       0.050704         1.3797 
  91   0.0000       0.055357         1.5063 
  92   0.0000       0.063054         1.7158 
  93   0.0000       0.064309         1.7499 
  94   0.0000       0.075498         2.0544 
  95   0.0000       0.078848         2.1456 
  96   0.0000       0.084474         2.2986 
  97   0.0000       0.087134         2.3710 
  98   0.0000       0.092533         2.5179 
  99   0.0000       0.094580         2.5736 
 100   0.0000       0.095810         2.6071 
 101   0.0000       0.102419         2.7870 
 102   0.0000       0.103907         2.8275 
 103   0.0000       0.117596         3.1999 
 104   0.0000       0.121669         3.3108 
 105   0.0000       0.126271         3.4360 
 106   0.0000       0.130523         3.5517 
 107   0.0000       0.134717         3.6658 
 108   0.0000       0.144768         3.9393 
 109   0.0000       0.146450         3.9851 
 110   0.0000       0.150525         4.0960 
 111   0.0000       0.160269         4.3611 
 112   0.0000       0.160457         4.3663 
 113   0.0000       0.162711         4.4276 
 114   0.0000       0.167213         4.5501 
 115   0.0000       0.170984         4.6527 
 116   0.0000       0.172395         4.6911 
 117   0.0000       0.180564         4.9134 
 118   0.0000       0.186299         5.0695 
 119   0.0000       0.205881         5.6023 
 120   0.0000       0.215024         5.8511 
 121   0.0000       0.217999         5.9321 
 122   0.0000       0.219976         5.9858 
 123   0.0000       0.220083         5.9888 
 124   0.0000       0.227285         6.1848 
 125   0.0000       0.245048         6.6681 
 126   0.0000       0.249137         6.7794 
 127   0.0000       0.264733         7.2037 
 128   0.0000       0.279872         7.6157 
 129   0.0000       0.282786         7.6950 
 130   0.0000       0.292014         7.9461 
 131   0.0000       0.292810         7.9678 
 132   0.0000       0.311353         8.4723 
 133   0.0000       0.316099         8.6015 
 134   0.0000       0.321155         8.7391 
 135   0.0000       0.334644         9.1061 
 136   0.0000       0.343471         9.3463 
 137   0.0000       0.360168         9.8007 
 138   0.0000       0.368923        10.0389 
 139   0.0000       0.376225        10.2376 
 140   0.0000       0.398452        10.8424 
 141   0.0000       0.410380        11.1670 
 142   0.0000       0.412387        11.2216 
 143   0.0000       0.413562        11.2536 
 144   0.0000       0.420238        11.4353 
 145   0.0000       0.422716        11.5027 
 146   0.0000       0.432404        11.7663 
 147   0.0000       0.442798        12.0491 
 148   0.0000       0.447215        12.1693 
 149   0.0000       0.449106        12.2208 
 150   0.0000       0.451043        12.2735 
 151   0.0000       0.458829        12.4854 
 152   0.0000       0.468595        12.7511 
 153   0.0000       0.473129        12.8745 
 154   0.0000       0.474030        12.8990 
 155   0.0000       0.475318        12.9341 
 156   0.0000       0.480996        13.0886 
 157   0.0000       0.483604        13.1595 
 158   0.0000       0.491702        13.3799 
 159   0.0000       0.502349        13.6696 
 160   0.0000       0.504164        13.7190 
 161   0.0000       0.507028        13.7969 
 162   0.0000       0.508810        13.8454 
 163   0.0000       0.510962        13.9040 
 164   0.0000       0.515826        14.0363 
 165   0.0000       0.516232        14.0474 
 166   0.0000       0.516517        14.0552 
 167   0.0000       0.521067        14.1789 
 168   0.0000       0.527397        14.3512 
 169   0.0000       0.531607        14.4658 
 170   0.0000       0.539707        14.6862 
 171   0.0000       0.547453        14.8969 
 172   0.0000       0.561766        15.2864 
 173   0.0000       0.568924        15.4812 
 174   0.0000       0.574130        15.6229 
 175   0.0000       0.576580        15.6895 
 176   0.0000       0.588509        16.0141 
 177   0.0000       0.591661        16.0999 
 178   0.0000       0.594194        16.1689 
 179   0.0000       0.599228        16.3058 
 180   0.0000       0.606801        16.5119 
 181   0.0000       0.609885        16.5958 
 182   0.0000       0.618871        16.8403 
 183   0.0000       0.625159        17.0114 
 184   0.0000       0.626620        17.0512 
 185   0.0000       0.632050        17.1990 
 186   0.0000       0.638792        17.3824 
 187   0.0000       0.639142        17.3919 
 188   0.0000       0.643039        17.4980 
 189   0.0000       0.645158        17.5557 
 190   0.0000       0.649018        17.6607 
[...]
  Z           0.0015759            0.0006479           -0.9999985

Notes:  (1) The A matrix conforms to the "SAI" spin Hamiltonian convention.
        (2) Tensor is right-handed.

 -----------------------------------------------------------
 Nucleus  46H : A:ISTP=    1 I=  0.5 P=533.5514 MHz/au**3
                Q:ISTP=    2 I=  1.0 Q=  0.0029 barn     
 -----------------------------------------------------------
 Solving for nuclear perturbation:
Forming RHS of the CP-SCF equations         ... 
Calc. nucleus orbit integrals (SHARK)       ... done

------------------------------------------------------------------------------
                           ORCA CP-SCF CALCULATION
------------------------------------------------------------------------------

Input orbitals are from        ... cc-pVDZ_i.gbw
Input Perturbation             ... cc-pVDZ_i.pin.tmp
Wavefunction output            ... cc-pVDZ_i.pout.tmp
Perturbation mode              ... Imaginary perturbation
Solver                         ... POPLE
Max. number of iterations      ... 64
Convergence tolerance          ... 1.000e-03
Integral handling              ... Direct
DFT GridXC                     ... 1
COSX GridX                     ... 1
COSX IntAccX                   ... 3.067
COSX Algorithm                 ... Auto
Number of perturbations        ... 3
Number of operators            ... 2
Orbital ranges used for CP-SCF:
 Operator 0:  Orbitals   0... 84  to  85...460
 Operator 1:  Orbitals   0... 83  to  84...460
Variables per perturbation     ... 63628
DFT calculation                         ... on
XC functional terms                     ... off
Hybrid DFT                              ... on
   Exchange mixing (SCF)                ...  0.200
   Exchange mixing (CP-SCF)             ...  0.200
   GGA exch. scaling(SCF)               ...  0.720
   GGA exch. scaling (CP-SCF)           ...  0.720
   GGA corr. scaling (SCF)              ...  0.810
   GGA corr. scaling (CP-SCF)           ...  0.810

CP-SCF GRID
-----------

General Integration Accuracy     IntAcc      ... 3.467
Radial Grid Type                 RadialGrid  ... OptM3 with GC (2021)
Angular Grid (max. ang.)         AngularGrid ... 1 (Lebedev-50)
Angular grid pruning method      GridPruning ... 4 (adaptive)
Weight generation scheme         WeightScheme... Becke
Basis function cutoff            BFCut       ... 1.0000e-10
Integration weight cutoff        WCut        ... 1.0000e-14
Angular grids for H and He will be reduced by one unit
Partially contracted basis set               ... off
Rotationally invariant grid construction     ... off

Total number of grid points                  ...    31902
Total number of batches                      ...      518
Average number of points per batch           ...       61
Average number of grid points per atom       ...      651

CP-SCF GRIDX
------------

General Integration Accuracy     IntAcc      ... 3.067
Radial Grid Type                 RadialGrid  ... OptM3 with GC (2021)
Angular Grid (max. ang.)         AngularGrid ... 1 (Lebedev-50)
Angular grid pruning method      GridPruning ... 4 (adaptive)
Weight generation scheme         WeightScheme... Becke
Basis function cutoff            BFCut       ... 1.0000e-10
Integration weight cutoff        WCut        ... 1.0000e-14
Angular grids for H and He will be reduced by one unit
Partially contracted basis set               ... on
Rotationally invariant grid construction     ... off

Total number of grid points                  ...    14955
Total number of batches                      ...      263
Average number of points per batch           ...       56
Average number of grid points per atom       ...      305

Memory available               ... 875.9 MB
Memory needed per perturbation ...  13.4 MB
Perturbations treated per batch... 3
Number of batches              ... 1
     CP-SCF ITERATION   0:   4.1648e-02 (   1.8 sec   0/  3 done)
     CP-SCF ITERATION   1:   1.7123e-03 (   1.8 sec   2/  3 done)
     CP-SCF ITERATION   2:   9.0174e-05 (   1.2 sec   3/  3 done)
                    *** THE CP-SCF HAS CONVERGED ***

Forming final perturbed densities           ... done
Transforming perturbed density to AO basis  ... done

 Raw HFC matrix (all values in MHz): 
 -----------------------------------
                 1.3458              -0.2688               0.0020
                -0.2687               0.5308              -0.0005
                 0.0020              -0.0005               0.3303

 A(FC)           0.7357               0.7357               0.7357
 A(SD)          -0.4054              -0.2856               0.6910
 A(ORB+DIA)     -0.0000               0.0001              -0.0002    A(PC) =  -0.0000
 A(ORB)         -0.0000               0.0001              -0.0002    A(PC) =  -0.0000
 A(DIA)          0.0000               0.0000               0.0000    A(PC) =   0.0000
             ----------           ----------           ----------
 A(Tot)          0.3303               0.4501               1.4265    A(iso)=    0.7356
 Orientation: 
  X          -0.0020097           -0.2873866            0.9578126
  Y          -0.0001120           -0.9578144           -0.2873874
  Z           0.9999980           -0.0006848            0.0018927

Notes:  (1) The A matrix conforms to the "SAI" spin Hamiltonian convention.
        (2) Tensor is right-handed.

 -----------------------------------------------------------
 Nucleus  47H : A:ISTP=    1 I=  0.5 P=533.5514 MHz/au**3
                Q:ISTP=    2 I=  1.0 Q=  0.0029 barn     
 -----------------------------------------------------------
 Solving for nuclear perturbation:
Forming RHS of the CP-SCF equations         ... 
Calc. nucleus orbit integrals (SHARK)       ... done

------------------------------------------------------------------------------
                           ORCA CP-SCF CALCULATION
------------------------------------------------------------------------------

Input orbitals are from        ... cc-pVDZ_i.gbw
Input Perturbation             ... cc-pVDZ_i.pin.tmp
Wavefunction output            ... cc-pVDZ_i.pout.tmp
Perturbation mode              ... Imaginary perturbation
Solver                         ... POPLE
Max. number of iterations      ... 64
Convergence tolerance          ... 1.000e-03
Integral handling              ... Direct
DFT GridXC                     ... 1
COSX GridX                     ... 1
COSX IntAccX                   ... 3.067
COSX Algorithm                 ... Auto
Number of perturbations        ... 3
Number of operators            ... 2
Orbital ranges used for CP-SCF:
 Operator 0:  Orbitals   0... 84  to  85...460
 Operator 1:  Orbitals   0... 83  to  84...460
Variables per perturbation     ... 63628
DFT calculation                         ... on
XC functional terms                     ... off
Hybrid DFT                              ... on
   Exchange mixing (SCF)                ...  0.200
   Exchange mixing (CP-SCF)             ...  0.200
   GGA exch. scaling(SCF)               ...  0.720
   GGA exch. scaling (CP-SCF)           ...  0.720
   GGA corr. scaling (SCF)              ...  0.810
   GGA corr. scaling (CP-SCF)           ...  0.810

CP-SCF GRID
-----------

General Integration Accuracy     IntAcc      ... 3.467
Radial Grid Type                 RadialGrid  ... OptM3 with GC (2021)
Angular Grid (max. ang.)         AngularGrid ... 1 (Lebedev-50)
Angular grid pruning method      GridPruning ... 4 (adaptive)
Weight generation scheme         WeightScheme... Becke
Basis function cutoff            BFCut       ... 1.0000e-10
Integration weight cutoff        WCut        ... 1.0000e-14
Angular grids for H and He will be reduced by one unit
Partially contracted basis set               ... off
Rotationally invariant grid construction     ... off

Total number of grid points                  ...    31902
Total number of batches                      ...      518
Average number of points per batch           ...       61
Average number of grid points per atom       ...      651

CP-SCF GRIDX
------------

General Integration Accuracy     IntAcc      ... 3.067
Radial Grid Type                 RadialGrid  ... OptM3 with GC (2021)
Angular Grid (max. ang.)         AngularGrid ... 1 (Lebedev-50)
Angular grid pruning method      GridPruning ... 4 (adaptive)
Weight generation scheme         WeightScheme... Becke
Basis function cutoff            BFCut       ... 1.0000e-10
Integration weight cutoff        WCut        ... 1.0000e-14
Angular grids for H and He will be reduced by one unit
Partially contracted basis set               ... on
Rotationally invariant grid construction     ... off

Total number of grid points                  ...    14955
Total number of batches                      ...      263
Average number of points per batch           ...       56
Average number of grid points per atom       ...      305

Memory available               ... 875.3 MB
Memory needed per perturbation ...  13.4 MB
Perturbations treated per batch... 3
Number of batches              ... 1
     CP-SCF ITERATION   0:   4.1612e-02 (   1.8 sec   0/  3 done)
     CP-SCF ITERATION   1:   1.6871e-03 (   1.8 sec   2/  3 done)
     CP-SCF ITERATION   2:   7.7519e-05 (   1.2 sec   3/  3 done)
                    *** THE CP-SCF HAS CONVERGED ***

Forming final perturbed densities           ... done
Transforming perturbed density to AO basis  ... done

 Raw HFC matrix (all values in MHz): 
 -----------------------------------
                 1.1987               0.0454               0.0019
                 0.0454               0.6229               0.0004
                 0.0019               0.0004               0.3869

 A(FC)           0.7362               0.7362               0.7362
 A(SD)          -0.3493              -0.1170               0.4662
 A(ORB+DIA)      0.0000               0.0001              -0.0001    A(PC) =  -0.0000
 A(ORB)         -0.0000               0.0001              -0.0002    A(PC) =  -0.0000
 A(DIA)          0.0000              -0.0000               0.0001    A(PC) =   0.0000
             ----------           ----------           ----------
 A(Tot)          0.3869               0.6193               1.2023    A(iso)=    0.7362
 Orientation: 
  X          -0.0023215           -0.0781754           -0.9969369
  Y          -0.0012077            0.9969391           -0.0781728
  Z           0.9999966            0.0010225           -0.0024088

Notes:  (1) The A matrix conforms to the "SAI" spin Hamiltonian convention.
        (2) Tensor is right-handed.

 -----------------------------------------------------------
 Nucleus  48H : A:ISTP=    1 I=  0.5 P=533.5514 MHz/au**3
                Q:ISTP=    2 I=  1.0 Q=  0.0029 barn     
 -----------------------------------------------------------
 Solving for nuclear perturbation:
Forming RHS of the CP-SCF equations         ... 
Calc. nucleus orbit integrals (SHARK)       ... done

------------------------------------------------------------------------------
                           ORCA CP-SCF CALCULATION
------------------------------------------------------------------------------

Input orbitals are from        ... cc-pVDZ_i.gbw
Input Perturbation             ... cc-pVDZ_i.pin.tmp
Wavefunction output            ... cc-pVDZ_i.pout.tmp
Perturbation mode              ... Imaginary perturbation
Solver                         ... POPLE
Max. number of iterations      ... 64
Convergence tolerance          ... 1.000e-03
Integral handling              ... Direct
DFT GridXC                     ... 1
COSX GridX                     ... 1
COSX IntAccX                   ... 3.067
COSX Algorithm                 ... Auto
Number of perturbations        ... 3
Number of operators            ... 2
Orbital ranges used for CP-SCF:
 Operator 0:  Orbitals   0... 84  to  85...460
 Operator 1:  Orbitals   0... 83  to  84...460
Variables per perturbation     ... 63628
DFT calculation                         ... on
XC functional terms                     ... off
Hybrid DFT                              ... on
   Exchange mixing (SCF)                ...  0.200
   Exchange mixing (CP-SCF)             ...  0.200
   GGA exch. scaling(SCF)               ...  0.720
   GGA exch. scaling (CP-SCF)           ...  0.720
   GGA corr. scaling (SCF)              ...  0.810
   GGA corr. scaling (CP-SCF)           ...  0.810

CP-SCF GRID
-----------

General Integration Accuracy     IntAcc      ... 3.467
Radial Grid Type                 RadialGrid  ... OptM3 with GC (2021)
Angular Grid (max. ang.)         AngularGrid ... 1 (Lebedev-50)
Angular grid pruning method      GridPruning ... 4 (adaptive)
Weight generation scheme         WeightScheme... Becke
Basis function cutoff            BFCut       ... 1.0000e-10
Integration weight cutoff        WCut        ... 1.0000e-14
Angular grids for H and He will be reduced by one unit
Partially contracted basis set               ... off
Rotationally invariant grid construction     ... off

Total number of grid points                  ...    31902
Total number of batches                      ...      518
Average number of points per batch           ...       61
Average number of grid points per atom       ...      651

CP-SCF GRIDX
------------

General Integration Accuracy     IntAcc      ... 3.067
Radial Grid Type                 RadialGrid  ... OptM3 with GC (2021)
Angular Grid (max. ang.)         AngularGrid ... 1 (Lebedev-50)
Angular grid pruning method      GridPruning ... 4 (adaptive)
Weight generation scheme         WeightScheme... Becke
Basis function cutoff            BFCut       ... 1.0000e-10
Integration weight cutoff        WCut        ... 1.0000e-14
Angular grids for H and He will be reduced by one unit
Partially contracted basis set               ... on
Rotationally invariant grid construction     ... off

Total number of grid points                  ...    14955
Total number of batches                      ...      263
Average number of points per batch           ...       56
Average number of grid points per atom       ...      305

Memory available               ... 874.8 MB
Memory needed per perturbation ...  13.4 MB
Perturbations treated per batch... 3
Number of batches              ... 1
     CP-SCF ITERATION   0:   4.5831e-02 (   1.9 sec   0/  3 done)
     CP-SCF ITERATION   1:   2.0698e-03 (   1.9 sec   0/  3 done)
     CP-SCF ITERATION   2:   1.4367e-04 (   1.8 sec   3/  3 done)
                    *** THE CP-SCF HAS CONVERGED ***

Forming final perturbed densities           ... done
Transforming perturbed density to AO basis  ... done

 Raw HFC matrix (all values in MHz): 
 -----------------------------------
                -1.0537              -0.5706               0.0019
                -0.5705              -1.4712              -0.0008
                 0.0019              -0.0008              -2.5356

 A(FC)          -1.6872              -1.6872              -1.6872
 A(SD)           1.0317              -0.1835              -0.8482
 A(ORB+DIA)      0.0006               0.0008              -0.0001    A(PC) =   0.0004
 A(ORB)          0.0005               0.0006               0.0000    A(PC) =   0.0004
 A(DIA)          0.0001               0.0001              -0.0001    A(PC) =   0.0000
             ----------           ----------           ----------
 A(Tot)         -0.6549              -1.8699              -2.5356    A(iso)=   -1.6868
 Orientation: 
  X          -0.8196218            0.5729036            0.0012844
  Y           0.5729040            0.8196225           -0.0000303
  Z          -0.0010701            0.0007110           -0.9999992

Notes:  (1) The A matrix conforms to the "SAI" spin Hamiltonian convention.
        (2) Tensor is right-handed.


--------------------------------------------------------------------------------
----------------------------------------------------------------------------
                           ORCA EULER ANGLE PROGRAM
----------------------------------------------------------------------------

Only g-tensor available        -->  using g-tensor as reference tensor

Reference tensor               ...  g

g-tensor ordering              ...  |g_min> --> |gx>
                                    |g_mid> --> |gy>
                                    |g_max> --> |gz>

A- and EFG-tensor ordering     ...  the axes |Ax>, |Qx>, |Ay>, etc. are assigned
                                    such that the Euler rotation is minimal. You
                                    can find the respective eigenvalues as Ax,
                                    EFGx, Ay, etc. in the tables below.
                                    The relation of |Ax>, |Ay>,  etc. to Amin, Amid, etc.
                                    (as printed in the ORCA EPR/NMR CALCULATION Output)
                                    is obtained in the detailed printout.

Euler rotation around          ...  z - y - z
   First rotation              -->  by alpha around z
   Second rotation             -->  by beta around y'
   Third rotation              -->  by gamma around z''
   Positive / Negative angle   -->  clockwise / counterclockwise rotation

Plot EFG-tensors                    (-)
Plot HFC-tensors                    (-)
Detailed Printout                   (-)

-------------------------------------------------------------------------
          Euler rotation of hyperfine tensor to g-tensor
-------------------------------------------------------------------------

-------------------------------------------------------------------
 Atom  |   Alpha    Beta    Gamma   |   Ax       Ay       Az 
       |          [degrees]         |           [MHz]         
-------------------------------------------------------------------
  9H      -90.6      2.6     90.6     -15.92    -6.98   -19.45
 10H      -89.9      5.8     89.9       4.08     4.66     9.46
 12H      -90.0     43.1     90.0     -45.59   -70.29   -17.07
 14H      -13.4     12.2     -4.4      56.29    65.72    57.57
 15H     -166.6     11.8   -175.6      56.02    65.45    57.30
 17H       30.3     29.0    -59.3      -3.14    -2.97     3.12
 18H      149.6     28.9   -120.5      -3.13    -2.97     3.12
 20H     -130.3     46.6    153.1      -0.10     2.21     0.03
 21H      -49.4     47.0     26.6      -0.10     2.21     0.03
 23H     -143.2     17.5   -174.1      20.10    20.67    23.74
 24H      -36.8     17.5     -5.9      20.11    20.67    23.74
 26H      -82.1     29.1     95.1      -0.96     0.95    -0.83
 27H      -97.8     29.1     84.7      -0.96     0.95    -0.83
 29H       67.9     30.5   -107.2      -0.10    -0.14     0.79
 30H      112.2     30.5    -72.8      -0.10    -0.14     0.79
 32H      -95.2     42.4     87.0      -0.12     0.37    -0.10
 33H      -84.7     42.5     92.8      -0.12     0.37    -0.10
 35H       89.9     44.8    -90.0       3.20     2.11     4.79
 36H       91.2     39.4    -89.9      -0.78    -0.80     0.75
 37H       89.8     37.8    -90.0      -0.13    -0.13     0.24
 44H       89.9     43.2    -90.0      -1.97    -0.50    -3.05
 45H       89.9     34.1    -89.9      -2.23    -1.91    -0.91
 46H       89.9     31.7    -90.0       0.33     1.43     0.45
 47H      -89.8     37.2     89.8       0.39     0.62     1.20
 48H       90.0     13.4    -90.0      -2.54    -0.65    -1.87
-------------------------------------------------------------------


Maximum memory used throughout the entire EPRNMR-calculation: 219.5 MB

Timings for individual modules:

Sum of individual times         ...     4834.875 sec (=  80.581 min)
GTO integral calculation        ...        4.757 sec (=   0.079 min)   0.1 %
Spin-Orbit-Coupling Matrices    ...        9.497 sec (=   0.158 min)   0.2 %
SCF iterations                  ...       30.087 sec (=   0.501 min)   0.6 %
EPR/NMR calculation             ...     4790.534 sec (=  79.842 min)  99.1 %
                             ****ORCA TERMINATED NORMALLY****
TOTAL RUN TIME: 0 days 1 hours 20 minutes 39 seconds 210 msec
