
                                 *****************
                                 * O   R   C   A *
                                 *****************

                                            #,                                       
                                            ###                                      
                                            ####                                     
                                            #####                                    
                                            ######                                   
                                           ########,                                 
                                     ,,################,,,,,                         
                               ,,#################################,,                 
                          ,,##########################################,,             
                       ,#########################################, ''#####,          
                    ,#############################################,,   '####,        
                  ,##################################################,,,,####,       
                ,###########''''           ''''###############################       
              ,#####''   ,,,,##########,,,,          '''####'''          '####       
            ,##' ,,,,###########################,,,                        '##       
           ' ,,###''''                  '''############,,,                           
         ,,##''                                '''############,,,,        ,,,,,,###''
      ,#''                                            '''#######################'''  
     '                                                          ''''####''''         
             ,#######,   #######,   ,#######,      ##                                
            ,#'     '#,  ##    ##  ,#'     '#,    #''#        ######   ,####,        
            ##       ##  ##   ,#'  ##            #'  '#       #        #'  '#        
            ##       ##  #######   ##           ,######,      #####,   #    #        
            '#,     ,#'  ##    ##  '#,     ,#' ,#      #,         ##   #,  ,#        
             '#######'   ##     ##  '#######'  #'      '#     #####' # '####'        



                  #######################################################
                  #                        -***-                        #
                  #          Department of theory and spectroscopy      #
                  #    Directorship and core code : Frank Neese         #
                  #        Max Planck Institute fuer Kohlenforschung    #
                  #                Kaiser Wilhelm Platz 1               #
                  #                 D-45470 Muelheim/Ruhr               #
                  #                      Germany                        #
                  #                                                     #
                  #                  All rights reserved                #
                  #                        -***-                        #
                  #######################################################


                         Program Version 5.0.4 -  RELEASE  -


 With contributions from (in alphabetic order):
   Daniel Aravena         : Magnetic Suceptibility
   Michael Atanasov       : Ab Initio Ligand Field Theory (pilot matlab implementation)
   Alexander A. Auer      : GIAO ZORA, VPT2 properties, NMR spectrum
   Ute Becker             : Parallelization
   Giovanni Bistoni       : ED, misc. LED, open-shell LED, HFLD
   Martin Brehm           : Molecular dynamics
   Dmytro Bykov           : SCF Hessian
   Vijay G. Chilkuri      : MRCI spin determinant printing, contributions to CSF-ICE
   Dipayan Datta          : RHF DLPNO-CCSD density
   Achintya Kumar Dutta   : EOM-CC, STEOM-CC
   Dmitry Ganyushin       : Spin-Orbit,Spin-Spin,Magnetic field MRCI
   Miquel Garcia          : C-PCM and meta-GGA Hessian, CC/C-PCM, Gaussian charge scheme
   Yang Guo               : DLPNO-NEVPT2, F12-NEVPT2, CIM, IAO-localization
   Andreas Hansen         : Spin unrestricted coupled pair/coupled cluster methods
   Benjamin Helmich-Paris : MC-RPA, TRAH-SCF, COSX integrals
   Lee Huntington         : MR-EOM, pCC
   Robert Izsak           : Overlap fitted RIJCOSX, COSX-SCS-MP3, EOM
   Marcus Kettner         : VPT2
   Christian Kollmar      : KDIIS, OOCD, Brueckner-CCSD(T), CCSD density, CASPT2, CASPT2-K
   Simone Kossmann        : Meta GGA functionals, TD-DFT gradient, OOMP2, MP2 Hessian
   Martin Krupicka        : Initial AUTO-CI
   Lucas Lang             : DCDCAS
   Marvin Lechner         : AUTO-CI (C++ implementation), FIC-MRCC
   Dagmar Lenk            : GEPOL surface, SMD
   Dimitrios Liakos       : Extrapolation schemes; Compound Job, initial MDCI parallelization
   Dimitrios Manganas     : Further ROCIS development; embedding schemes
   Dimitrios Pantazis     : SARC Basis sets
   Anastasios Papadopoulos: AUTO-CI, single reference methods and gradients
   Taras Petrenko         : DFT Hessian,TD-DFT gradient, ASA, ECA, R-Raman, ABS, FL, XAS/XES, NRVS
   Peter Pinski           : DLPNO-MP2, DLPNO-MP2 Gradient
   Christoph Reimann      : Effective Core Potentials
   Marius Retegan         : Local ZFS, SOC
   Christoph Riplinger    : Optimizer, TS searches, QM/MM, DLPNO-CCSD(T), (RO)-DLPNO pert. Triples
   Tobias Risthaus        : Range-separated hybrids, TD-DFT gradient, RPA, STAB
   Michael Roemelt        : Original ROCIS implementation
   Masaaki Saitow         : Open-shell DLPNO-CCSD energy and density
   Barbara Sandhoefer     : DKH picture change effects
   Avijit Sen             : IP-ROCIS
   Kantharuban Sivalingam : CASSCF convergence, NEVPT2, FIC-MRCI
   Bernardo de Souza      : ESD, SOC TD-DFT
   Georgi Stoychev        : AutoAux, RI-MP2 NMR, DLPNO-MP2 response
   Willem Van den Heuvel  : Paramagnetic NMR
   Boris Wezisla          : Elementary symmetry handling
   Frank Wennmohs         : Technical directorship


 We gratefully acknowledge several colleagues who have allowed us to
 interface, adapt or use parts of their codes:
   Stefan Grimme, W. Hujo, H. Kruse, P. Pracht,  : VdW corrections, initial TS optimization,
                  C. Bannwarth, S. Ehlert          DFT functionals, gCP, sTDA/sTD-DF
   Ed Valeev, F. Pavosevic, A. Kumar             : LibInt (2-el integral package), F12 methods
   Garnet Chan, S. Sharma, J. Yang, R. Olivares  : DMRG
   Ulf Ekstrom                                   : XCFun DFT Library
   Mihaly Kallay                                 : mrcc  (arbitrary order and MRCC methods)
   Jiri Pittner, Ondrej Demel                    : Mk-CCSD
   Frank Weinhold                                : gennbo (NPA and NBO analysis)
   Christopher J. Cramer and Donald G. Truhlar   : smd solvation model
   Lars Goerigk                                  : TD-DFT with DH, B97 family of functionals
   V. Asgeirsson, H. Jonsson                     : NEB implementation
   FAccTs GmbH                                   : IRC, NEB, NEB-TS, DLPNO-Multilevel, CI-OPT
                                                   MM, QMMM, 2- and 3-layer-ONIOM, Crystal-QMMM,
                                                   LR-CPCM, SF, NACMEs, symmetry and pop. for TD-DFT,
                                                   nearIR, NL-DFT gradient (VV10), updates on ESD,
                                                   ML-optimized integration grids
   S Lehtola, MJT Oliveira, MAL Marques          : LibXC Library
   Liviu Ungur et al                             : ANISO software


 Your calculation uses the libint2 library for the computation of 2-el integrals
 For citations please refer to: http://libint.valeyev.net

 Your ORCA version has been built with support for libXC version: 5.1.0
 For citations please refer to: https://tddft.org/programs/libxc/

 This ORCA versions uses:
   CBLAS   interface :  Fast vector & matrix operations
   LAPACKE interface :  Fast linear algebra routines
   SCALAPACK package :  Parallel linear algebra routines
   Shared memory     :  Shared parallel matrices
   BLAS/LAPACK       :  OpenBLAS 0.3.15  USE64BITINT DYNAMIC_ARCH NO_AFFINITY SkylakeX SINGLE_THREADED
        Core in use  :  SkylakeX
   Copyright (c) 2011-2014, The OpenBLAS Project




***************************************
The coordinates will be read from file: opt.xyz
***************************************


================================================================================

----- Orbital basis set information -----
Your calculation utilizes the basis: cc-pVDZ 
       H, B-Ne : Obtained from the ccRepo (grant-hill.group.shef.ac.uk/ccrepo) Feb. 2017
                 T. H. Dunning, Jr., J. Chem. Phys. 90, 1007 (1989)
            He : Obtained from the ccRepo (grant-hill.group.shef.ac.uk/ccrepo) Feb. 2017
                 D. E. Woon, T. H. Dunning, Jr., J. Chem. Phys. 100, 2975 (1994)
  Li-Be, Na-Mg : Obtained from the ccRepo (grant-hill.group.shef.ac.uk/ccrepo) Feb. 2017
                 B. P. Prascher, D. E. Woon, K. A. Peterson, T. H. Dunning, Jr., A. K. Wilson, Theor. Chem. Acc. 128, 69 (2011)
         Al-Ar : Obtained from the ccRepo (grant-hill.group.shef.ac.uk/ccrepo) Feb. 2017
                 D. E. Woon, T. H. Dunning, Jr., J. Chem. Phys. 98, 1358 (1993)
            Ca : Obtained from the Peterson Research Group Website (tyr0.chem.wsu.edu/~kipeters) Feb. 2017
                 J. Koput, K. A. Peterson, J. Phys. Chem. 106, 9595 (2002)
         Sc-Zn : Obtained from the ccRepo (grant-hill.group.shef.ac.uk/ccrepo) Feb. 2017
                 N. B. Balabanov, K. A. Peterson, J. Chem. Phys. 123, 064107 (2005)
                 N. B. Balabanov, K. A. Peterson, J. Chem. Phys. 125, 074110 (2006)
         Ga-Kr : Obtained from the ccRepo (grant-hill.group.shef.ac.uk/ccrepo) Feb. 2017
                 A. K. Wilson, D. E. Woon, K. A. Peterson, T. H. Dunning, Jr., J. Chem. Phys. 110, 7667 (1999)

----- AuxJ basis set information -----
Your calculation utilizes the AutoAux generation procedure.
  G. L. Stoychev, A. A. Auer, F. Neese, J. Chem. Theory Comput. 13, 554 (2017)

----- AuxC basis set information -----
Your calculation utilizes the AutoAux generation procedure.
  G. L. Stoychev, A. A. Auer, F. Neese, J. Chem. Theory Comput. 13, 554 (2017)

----- AuxJK basis set information -----
Your calculation utilizes the AutoAux generation procedure.
  G. L. Stoychev, A. A. Auer, F. Neese, J. Chem. Theory Comput. 13, 554 (2017)

================================================================================
                                        WARNINGS
                       Please study these warnings very carefully!
================================================================================


WARNING: your system is open-shell and RHF/RKS was chosen
  ===> : WILL SWITCH to UHF/UKS


INFO   : the flag for use of the SHARK integral package has been found!

================================================================================
                                       INPUT FILE
================================================================================
NAME = cc-pVDZ.inp
|  1> ! B3LYP cc-pVDZ AUTOAUX
|  2> %pal nprocs 16 end
|  3> *XYZFile 0 2 opt.xyz
|  4> %EPRNMR
|  5>         GTENSOR   TRUE
|  6>         NUCLEI    = ALL H {SHIFT, AISO, ADIP, AORB}
|  7>         ORI       GIAO
|  8> END
|  9> 
| 10>                          ****END OF INPUT****
================================================================================

                       ****************************
                       * Single Point Calculation *
                       ****************************

---------------------------------
CARTESIAN COORDINATES (ANGSTROEM)
---------------------------------
  C      4.055651   -0.073547    0.001259
  C      2.833542   -0.006600   -0.001853
  C     -2.844938    0.019403   -0.004605
  C      1.413420    0.037578   -0.002650
  C      0.700732    1.295437   -0.002274
  C     -0.721501    1.219563   -0.002939
  C     -1.411453    0.007143   -0.003953
  C     -0.698523   -1.233355   -0.004352
  C      0.695582   -1.174421   -0.003778
  H     -1.303965    2.141141   -0.002676
  H      1.274536   -2.097754   -0.004091
  C      1.376735    2.533606   -0.001170
  H      2.469590    2.505778   -0.000846
  C      0.711209    3.877604   -0.000569
  H      0.041247    3.969721   -0.880342
  H      0.037271    3.967005    0.876408
  C      1.701375    5.049653    0.003518
  H      2.358700    4.962416    0.887902
  H      2.362825    4.965169   -0.878056
  C      1.013980    6.416414    0.004035
  H      0.370653    6.541162    0.892218
  H      0.374821    6.543928   -0.886762
  C     -1.466096   -2.538946   -0.005338
  H     -2.145195   -2.541193    0.867755
  H     -2.144376   -2.540390   -0.879069
  C     -0.640631   -3.828188   -0.005524
  H      0.023196   -3.849353   -0.889420
  H      0.022302   -3.850153    0.879024
  C     -1.515380   -5.087922   -0.006538
  H     -2.182257   -5.068236    0.875347
  H     -2.181205   -5.067554   -0.889201
  C     -0.702663   -6.385165   -0.006558
  H     -0.052972   -6.450617    0.883324
  H     -0.051766   -6.449835   -0.895614
  C     -4.060832    0.033276   -0.006062
  H     -5.133143    0.050044   -0.008099
  H      1.748932    7.237402    0.007037
  H     -1.357003   -7.272006   -0.007390
  C      8.290611   -0.349909    0.011621
  C      7.669126    0.904242    0.011288
  C      6.278191    1.001489    0.007860
  C      5.479290   -0.163666    0.004675
  C      6.117697   -1.424276    0.005036
  C      7.509166   -1.511211    0.008484
  H      9.380725   -0.422104    0.014310
  H      5.506205   -2.328550    0.002590
  H      8.273734    1.814420    0.013750
  H      7.988600   -2.493123    0.008723
  H      5.792435    1.979098    0.007626

----------------------------
CARTESIAN COORDINATES (A.U.)
----------------------------
  NO LB      ZA    FRAG     MASS         X           Y           Z
   0 C     6.0000    0    12.011    7.664069   -0.138985    0.002378
   1 C     6.0000    0    12.011    5.354619   -0.012471   -0.003501
   2 C     6.0000    0    12.011   -5.376154    0.036665   -0.008702
   3 C     6.0000    0    12.011    2.670977    0.071013   -0.005008
   4 C     6.0000    0    12.011    1.324191    2.448021   -0.004297
   5 C     6.0000    0    12.011   -1.363439    2.304641   -0.005554
   6 C     6.0000    0    12.011   -2.667259    0.013499   -0.007470
   7 C     6.0000    0    12.011   -1.320018   -2.330703   -0.008224
   8 C     6.0000    0    12.011    1.314460   -2.219334   -0.007140
   9 H     1.0000    0     1.008   -2.464137    4.046170   -0.005057
  10 H     1.0000    0     1.008    2.408523   -3.964181   -0.007732
  11 C     6.0000    0    12.011    2.601652    4.787822   -0.002211
  12 H     1.0000    0     1.008    4.666848    4.735234   -0.001598
  13 C     6.0000    0    12.011    1.343990    7.327609   -0.001076
  14 H     1.0000    0     1.008    0.077945    7.501686   -1.663605
  15 H     1.0000    0     1.008    0.070432    7.496553    1.656171
  16 C     6.0000    0    12.011    3.215133    9.542461    0.006649
  17 H     1.0000    0     1.008    4.457296    9.377607    1.677892
  18 H     1.0000    0     1.008    4.465093    9.382810   -1.659286
  19 C     6.0000    0    12.011    1.916145   12.125265    0.007625
  20 H     1.0000    0     1.008    0.700433   12.361004    1.686048
  21 H     1.0000    0     1.008    0.708310   12.366232   -1.675737
  22 C     6.0000    0    12.011   -2.770520   -4.797913   -0.010087
  23 H     1.0000    0     1.008   -4.053831   -4.802158    1.639820
  24 H     1.0000    0     1.008   -4.052284   -4.800642   -1.661199
  25 C     6.0000    0    12.011   -1.210616   -7.234226   -0.010439
  26 H     1.0000    0     1.008    0.043833   -7.274224   -1.680761
  27 H     1.0000    0     1.008    0.042145   -7.275735    1.661115
  28 C     6.0000    0    12.011   -2.863654   -9.614779   -0.012354
  29 H     1.0000    0     1.008   -4.123869   -9.577579    1.654166
  30 H     1.0000    0     1.008   -4.121881   -9.576289   -1.680347
  31 C     6.0000    0    12.011   -1.327841  -12.066213   -0.012393
  32 H     1.0000    0     1.008   -0.100103  -12.189899    1.669240
  33 H     1.0000    0     1.008   -0.097823  -12.188421   -1.692465
  34 C     6.0000    0    12.011   -7.673860    0.062882   -0.011455
  35 H     1.0000    0     1.008   -9.700235    0.094570   -0.015304
  36 H     1.0000    0     1.008    3.305003   13.676708    0.013298
  37 H     1.0000    0     1.008   -2.564364  -13.742101   -0.013965
  38 C     6.0000    0    12.011   15.666984   -0.661233    0.021961
  39 C     6.0000    0    12.011   14.492548    1.708771    0.021331
  40 C     6.0000    0    12.011   11.864061    1.892540    0.014853
  41 C     6.0000    0    12.011   10.354357   -0.309284    0.008834
  42 C     6.0000    0    12.011   11.560771   -2.691492    0.009518
  43 C     6.0000    0    12.011   14.190267   -2.855775    0.016033
  44 H     1.0000    0     1.008   17.727002   -0.797661    0.027042
  45 H     1.0000    0     1.008   10.405219   -4.400322    0.004894
  46 H     1.0000    0     1.008   15.635091    3.428758    0.025984
  47 H     1.0000    0     1.008   15.096267   -4.711320    0.016484
  48 H     1.0000    0     1.008   10.946116    3.739953    0.014412

--------------------------------
INTERNAL COORDINATES (ANGSTROEM)
--------------------------------
 C      0   0   0     0.000000000000     0.00000000     0.00000000
 C      1   0   0     1.223944647573     0.00000000     0.00000000
 C      2   1   0     5.678540645159   177.12438180     0.00000000
 C      2   1   3     1.420809202642   178.64150904     2.44431677
 C      4   2   1     1.445729165687   121.31720245   175.16981916
 C      5   4   2     1.424255516326   116.48164806   180.00937570
 C      6   5   4     1.394989894114   122.69665584     0.00000000
 C      7   6   5     1.430770475003   120.47058161     0.00000000
 C      8   7   6     1.395350618297   117.46584694     0.00000000
 H      6   5   4     1.090215457928   119.24033859   179.99914683
 H      9   8   7     1.089831121132   119.66808581   180.00213207
 C      5   4   2     1.410689310921   121.83139226     0.00000000
 H     12   5   4     1.093209149059   117.17455913     0.00000000
 C     12   5   4     1.499751794170   125.02291054   180.00687956
 H     14  12   5     1.109654846731   109.99860095   302.48920861
 H     14  12   5     1.109627295780   110.00096960    57.27566589
 C     14  12   5     1.534322662643   113.46440707   179.88223754
 H     17  14  12     1.105359701805   109.00261219   302.33851858
 H     17  14  12     1.105363205741   109.00589269    57.65414182
 C     17  14  12     1.529884878207   113.10875966   179.99715414
 H     20  17  14     1.103766676989   111.29198241    59.86978372
 H     20  17  14     1.103767437557   111.29183324   300.12562852
 C      8   7   6     1.514509309906   119.66171924   179.99490633
 H     23   8   7     1.106106678311   108.20372483   303.78115592
 H     23   8   7     1.106106781022   108.20538527    56.23236455
 C     23   8   7     1.530861214263   116.91791859   180.00823965
 H     26  23   8     1.105615802611   109.87518301   301.74434795
 H     26  23   8     1.105616679730   109.87386616    58.25609416
 C     26  23   8     1.533661703851   112.59386665   179.99982985
 H     29  26  23     1.105817474584   109.19702637   302.35381928
 H     29  26  23     1.105817815154   109.19733801    57.66053976
 C     29  26  23     1.530800214028   113.15720454   180.00717205
 H     32  29  26     1.103753255283   111.26888837    59.86068768
 H     32  29  26     1.103752736605   111.26897896   300.15022909
 C      3   2   1     1.215973833186   179.60651930   183.61387337
 H     35   3   7     1.072444113162   179.75450435   354.82602579
 H     20  17  14     1.101900589981   111.46543257   179.99758572
 H     32  29  26     1.102111274406   111.51194430   180.00532062
 C      1   2   4     4.243980477130   179.40186820     5.34062787
 C     39   1   2     1.399692572308    59.90605783   179.51424035
 C     40  39   1     1.394335108547   120.35957136     0.00000000
 C     41  40  39     1.412741592642   120.43777592     0.00000000
 C     42  41  40     1.413046831520   118.70410868     0.00000000
 C     43  42  41     1.394186399331   120.43384454     0.00000000
 H     39   1   2     1.092506054340   179.94468773   358.29790612
 H     43  42  41     1.091622658465   119.07348878   179.99981101
 H     40  39   1     1.092694147880   120.04448756   179.99673554
 H     44  43  42     1.092707315883   119.59966557   179.99984571
 H     41  40  39     1.091639988254   120.42115855   179.99816908

---------------------------
INTERNAL COORDINATES (A.U.)
---------------------------
 C      0   0   0     0.000000000000     0.00000000     0.00000000
 C      1   0   0     2.312920186992     0.00000000     0.00000000
 C      2   1   0    10.730886659691   177.12438180     0.00000000
 C      2   1   3     2.684940281549   178.64150904     2.44431677
 C      4   2   1     2.732032186971   121.31720245   175.16981916
 C      5   4   2     2.691452870583   116.48164806   180.00937570
 C      6   5   4     2.636148859463   122.69665584     0.00000000
 C      7   6   5     2.703764358257   120.47058161     0.00000000
 C      8   7   6     2.636830529379   117.46584694     0.00000000
 H      6   5   4     2.060208642452   119.24033859   179.99914683
 H      9   8   7     2.059482351164   119.66808581   180.00213207
 C      5   4   2     2.665816457691   121.83139226     0.00000000
 H     12   5   4     2.065865898819   117.17455913     0.00000000
 C     12   5   4     2.834120159839   125.02291054   180.00687956
 H     14  12   5     2.096943763500   109.99860095   302.48920861
 H     14  12   5     2.096891699747   110.00096960    57.27566589
 C     14  12   5     2.899449633465   113.46440707   179.88223754
 H     17  14  12     2.088827115885   109.00261219   302.33851858
 H     17  14  12     2.088833737364   109.00589269    57.65414182
 C     17  14  12     2.891063436239   113.10875966   179.99715414
 H     20  17  14     2.085816735257   111.29198241    59.86978372
 H     20  17  14     2.085818172524   111.29183324   300.12562852
 C      8   7   6     2.862007822996   119.66171924   179.99490633
 H     23   8   7     2.090238696909   108.20372483   303.78115592
 H     23   8   7     2.090238891006   108.20538527    56.23236455
 C     23   8   7     2.892908444000   116.91791859   180.00823965
 H     26  23   8     2.089311076270   109.87518301   301.74434795
 H     26  23   8     2.089312733785   109.87386616    58.25609416
 C     26  23   8     2.898200602362   112.59386665   179.99982985
 H     29  26  23     2.089692181069   109.19702637   302.35381928
 H     29  26  23     2.089692824652   109.19733801    57.66053976
 C     29  26  23     2.892793170261   113.15720454   180.00717205
 H     32  29  26     2.085791371908   111.26888837    59.86068768
 H     32  29  26     2.085790391750   111.26897896   300.15022909
 C      3   2   1     2.297857530736   179.60651930   183.61387337
 H     35   3   7     2.026625667811   179.75450435   354.82602579
 H     20  17  14     2.082290341871   111.46543257   179.99758572
 H     32  29  26     2.082688477735   111.51194430   180.00532062
 C      1   2   4     8.019960819483   179.40186820     5.34062787
 C     39   1   2     2.645035633346    59.90605783   179.51424035
 C     40  39   1     2.634911494065   120.35957136     0.00000000
 C     41  40  39     2.669694708093   120.43777592     0.00000000
 C     42  41  40     2.670271525978   118.70410868     0.00000000
 C     43  42  41     2.634630474374   120.43384454     0.00000000
 H     39   1   2     2.064537242353   179.94468773   358.29790612
 H     43  42  41     2.062867866083   119.07348878   179.99981101
 H     40  39   1     2.064892687631   120.04448756   179.99673554
 H     44  43  42     2.064917571551   119.59966557   179.99984571
 H     41  40  39     2.062900614636   120.42115855   179.99816908

---------------------
BASIS SET INFORMATION
---------------------
There are 2 groups of distinct atoms

 Group   1 Type C   : 17s4p1d contracted to 3s2p1d pattern {881/31/1}
 Group   2 Type H   : 4s1p contracted to 2s1p pattern {31/1}

Atom   0C    basis set group =>   1
Atom   1C    basis set group =>   1
Atom   2C    basis set group =>   1
Atom   3C    basis set group =>   1
Atom   4C    basis set group =>   1
Atom   5C    basis set group =>   1
Atom   6C    basis set group =>   1
Atom   7C    basis set group =>   1
Atom   8C    basis set group =>   1
Atom   9H    basis set group =>   2
Atom  10H    basis set group =>   2
Atom  11C    basis set group =>   1
Atom  12H    basis set group =>   2
Atom  13C    basis set group =>   1
Atom  14H    basis set group =>   2
Atom  15H    basis set group =>   2
Atom  16C    basis set group =>   1
Atom  17H    basis set group =>   2
Atom  18H    basis set group =>   2
Atom  19C    basis set group =>   1
Atom  20H    basis set group =>   2
Atom  21H    basis set group =>   2
Atom  22C    basis set group =>   1
Atom  23H    basis set group =>   2
Atom  24H    basis set group =>   2
Atom  25C    basis set group =>   1
Atom  26H    basis set group =>   2
Atom  27H    basis set group =>   2
Atom  28C    basis set group =>   1
Atom  29H    basis set group =>   2
Atom  30H    basis set group =>   2
Atom  31C    basis set group =>   1
Atom  32H    basis set group =>   2
Atom  33H    basis set group =>   2
Atom  34C    basis set group =>   1
Atom  35H    basis set group =>   2
Atom  36H    basis set group =>   2
Atom  37H    basis set group =>   2
Atom  38C    basis set group =>   1
Atom  39C    basis set group =>   1
Atom  40C    basis set group =>   1
Atom  41C    basis set group =>   1
Atom  42C    basis set group =>   1
Atom  43C    basis set group =>   1
Atom  44H    basis set group =>   2
Atom  45H    basis set group =>   2
Atom  46H    basis set group =>   2
Atom  47H    basis set group =>   2
Atom  48H    basis set group =>   2
---------------------------------
AUXILIARY/J BASIS SET INFORMATION
---------------------------------
There are 2 groups of distinct atoms

 Group   1 Type C   : 14s11p10d2f contracted to 14s11p10d2f pattern {11111111111111/11111111111/1111111111/11}
 Group   2 Type H   : 9s2p1d contracted to 9s2p1d pattern {111111111/11/1}

Atom   0C    basis set group =>   1
Atom   1C    basis set group =>   1
Atom   2C    basis set group =>   1
Atom   3C    basis set group =>   1
Atom   4C    basis set group =>   1
Atom   5C    basis set group =>   1
Atom   6C    basis set group =>   1
Atom   7C    basis set group =>   1
Atom   8C    basis set group =>   1
Atom   9H    basis set group =>   2
Atom  10H    basis set group =>   2
Atom  11C    basis set group =>   1
Atom  12H    basis set group =>   2
Atom  13C    basis set group =>   1
Atom  14H    basis set group =>   2
Atom  15H    basis set group =>   2
Atom  16C    basis set group =>   1
Atom  17H    basis set group =>   2
Atom  18H    basis set group =>   2
Atom  19C    basis set group =>   1
Atom  20H    basis set group =>   2
Atom  21H    basis set group =>   2
Atom  22C    basis set group =>   1
Atom  23H    basis set group =>   2
Atom  24H    basis set group =>   2
Atom  25C    basis set group =>   1
Atom  26H    basis set group =>   2
Atom  27H    basis set group =>   2
Atom  28C    basis set group =>   1
Atom  29H    basis set group =>   2
Atom  30H    basis set group =>   2
Atom  31C    basis set group =>   1
Atom  32H    basis set group =>   2
Atom  33H    basis set group =>   2
Atom  34C    basis set group =>   1
Atom  35H    basis set group =>   2
Atom  36H    basis set group =>   2
Atom  37H    basis set group =>   2
Atom  38C    basis set group =>   1
Atom  39C    basis set group =>   1
Atom  40C    basis set group =>   1
Atom  41C    basis set group =>   1
Atom  42C    basis set group =>   1
Atom  43C    basis set group =>   1
Atom  44H    basis set group =>   2
Atom  45H    basis set group =>   2
Atom  46H    basis set group =>   2
Atom  47H    basis set group =>   2
Atom  48H    basis set group =>   2
---------------------------------
AUXILIARY/C BASIS SET INFORMATION
---------------------------------
There are 2 groups of distinct atoms

 Group   1 Type C   : 14s11p10d2f contracted to 14s11p10d2f pattern {11111111111111/11111111111/1111111111/11}
 Group   2 Type H   : 9s2p1d contracted to 9s2p1d pattern {111111111/11/1}

Atom   0C    basis set group =>   1
Atom   1C    basis set group =>   1
Atom   2C    basis set group =>   1
Atom   3C    basis set group =>   1
Atom   4C    basis set group =>   1
Atom   5C    basis set group =>   1
Atom   6C    basis set group =>   1
Atom   7C    basis set group =>   1
Atom   8C    basis set group =>   1
Atom   9H    basis set group =>   2
Atom  10H    basis set group =>   2
Atom  11C    basis set group =>   1
Atom  12H    basis set group =>   2
Atom  13C    basis set group =>   1
Atom  14H    basis set group =>   2
Atom  15H    basis set group =>   2
Atom  16C    basis set group =>   1
Atom  17H    basis set group =>   2
Atom  18H    basis set group =>   2
Atom  19C    basis set group =>   1
Atom  20H    basis set group =>   2
Atom  21H    basis set group =>   2
Atom  22C    basis set group =>   1
Atom  23H    basis set group =>   2
Atom  24H    basis set group =>   2
Atom  25C    basis set group =>   1
Atom  26H    basis set group =>   2
Atom  27H    basis set group =>   2
Atom  28C    basis set group =>   1
Atom  29H    basis set group =>   2
Atom  30H    basis set group =>   2
Atom  31C    basis set group =>   1
Atom  32H    basis set group =>   2
Atom  33H    basis set group =>   2
Atom  34C    basis set group =>   1
Atom  35H    basis set group =>   2
Atom  36H    basis set group =>   2
Atom  37H    basis set group =>   2
Atom  38C    basis set group =>   1
Atom  39C    basis set group =>   1
Atom  40C    basis set group =>   1
Atom  41C    basis set group =>   1
Atom  42C    basis set group =>   1
Atom  43C    basis set group =>   1
Atom  44H    basis set group =>   2
Atom  45H    basis set group =>   2
Atom  46H    basis set group =>   2
Atom  47H    basis set group =>   2
Atom  48H    basis set group =>   2
----------------------------------
AUXILIARY/JK BASIS SET INFORMATION
----------------------------------
There are 2 groups of distinct atoms

 Group   1 Type C   : 14s11p10d2f contracted to 14s11p10d2f pattern {11111111111111/11111111111/1111111111/11}
 Group   2 Type H   : 9s2p1d contracted to 9s2p1d pattern {111111111/11/1}

Atom   0C    basis set group =>   1
Atom   1C    basis set group =>   1
Atom   2C    basis set group =>   1
Atom   3C    basis set group =>   1
Atom   4C    basis set group =>   1
Atom   5C    basis set group =>   1
Atom   6C    basis set group =>   1
Atom   7C    basis set group =>   1
Atom   8C    basis set group =>   1
Atom   9H    basis set group =>   2
Atom  10H    basis set group =>   2
Atom  11C    basis set group =>   1
Atom  12H    basis set group =>   2
Atom  13C    basis set group =>   1
Atom  14H    basis set group =>   2
Atom  15H    basis set group =>   2
Atom  16C    basis set group =>   1
Atom  17H    basis set group =>   2
Atom  18H    basis set group =>   2
Atom  19C    basis set group =>   1
Atom  20H    basis set group =>   2
Atom  21H    basis set group =>   2
Atom  22C    basis set group =>   1
Atom  23H    basis set group =>   2
Atom  24H    basis set group =>   2
Atom  25C    basis set group =>   1
Atom  26H    basis set group =>   2
Atom  27H    basis set group =>   2
Atom  28C    basis set group =>   1
Atom  29H    basis set group =>   2
Atom  30H    basis set group =>   2
Atom  31C    basis set group =>   1
Atom  32H    basis set group =>   2
Atom  33H    basis set group =>   2
Atom  34C    basis set group =>   1
Atom  35H    basis set group =>   2
Atom  36H    basis set group =>   2
Atom  37H    basis set group =>   2
Atom  38C    basis set group =>   1
Atom  39C    basis set group =>   1
Atom  40C    basis set group =>   1
Atom  41C    basis set group =>   1
Atom  42C    basis set group =>   1
Atom  43C    basis set group =>   1
Atom  44H    basis set group =>   2
Atom  45H    basis set group =>   2
Atom  46H    basis set group =>   2
Atom  47H    basis set group =>   2
Atom  48H    basis set group =>   2


           ************************************************************
           *        Program running with 16 parallel MPI-processes    *
           *              working on a common directory               *
           ************************************************************
------------------------------------------------------------------------------
                           ORCA GTO INTEGRAL CALCULATION
                           -- RI-GTO INTEGRALS CHOSEN --
------------------------------------------------------------------------------
------------------------------------------------------------------------------
                   ___                                                        
                  /   \      - P O W E R E D   B Y -                         
                 /     \                                                     
                 |  |  |   _    _      __       _____    __    __             
                 |  |  |  | |  | |    /  \     |  _  \  |  |  /  |          
                  \  \/   | |  | |   /    \    | | | |  |  | /  /          
                 / \  \   | |__| |  /  /\  \   | |_| |  |  |/  /          
                |  |  |   |  __  | /  /__\  \  |    /   |      \           
                |  |  |   | |  | | |   __   |  |    \   |  |\   \          
                \     /   | |  | | |  |  |  |  | |\  \  |  | \   \       
                 \___/    |_|  |_| |__|  |__|  |_| \__\ |__|  \__/        
                                                                              
                      - O R C A' S   B I G   F R I E N D -                    
                                      &                                       
                       - I N T E G R A L  F E E D E R -                       
                                                                              
 v1 FN, 2020, v2 2021                                                         
------------------------------------------------------------------------------


Reading SHARK input file cc-pVDZ.SHARKINP.tmp ... ok
----------------------
SHARK INTEGRAL PACKAGE
----------------------

Number of atoms                             ...     49
Number of basis functions                   ...    605
Number of shells                            ...    363
Maximum angular momentum                    ...      2
Integral batch strategy                     ... SHARK/LIBINT Hybrid
RI-J (if used) integral strategy            ... SPLIT-RIJ (Revised 2003 algorithm where possible)
Printlevel                                  ...      1
Contraction scheme used                     ... PARTIAL GENERAL contraction
Coulomb Range Separation                    ... NOT USED
Exchange Range Separation                   ... NOT USED
Finite Nucleus Model                        ... NOT USED
Auxiliary Coulomb fitting basis             ... AVAILABLE
   # of basis functions in Aux-J            ...   3164
   # of shells in Aux-J                     ...   1188
   Maximum angular momentum in Aux-J        ...      3
Auxiliary J/K fitting basis                 ... AVAILABLE
   # of basis functions in Aux-JK           ...   3164
   # of shells in Aux-JK                    ...   1188
   Maximum angular momentum in Aux-JK       ...      3
Auxiliary Correlation fitting basis         ... AVAILABLE
   # of basis functions in Aux-C            ...   3164
   # of shells in Aux-C                     ...   1188
   Maximum angular momentum in Aux-C        ...      3
Auxiliary 'external' fitting basis          ... NOT available
Integral threshold                          ...     1.000000e-10
Primitive cut-off                           ...     1.000000e-11
Primitive pair pre-selection threshold      ...     1.000000e-11

Calculating pre-screening integrals         ... done (  0.0 sec) Dimension = 363
Calculating pre-screening integrals (ORCA)  ... done (  0.1 sec) Dimension = 219
Organizing shell pair data                  ... done (  0.2 sec)
Shell pair information
Total number of shell pairs                 ...     66066
Shell pairs after pre-screening             ...     25393
Total number of primitive shell pairs       ...    106638
Primitive shell pairs kept                  ...     34205
          la=0 lb=0:  10957 shell pairs
          la=1 lb=0:   9002 shell pairs
          la=1 lb=1:   1599 shell pairs
          la=2 lb=0:   2700 shell pairs
          la=2 lb=1:    972 shell pairs
          la=2 lb=2:    163 shell pairs

Calculating one electron integrals          ... done (  0.0 sec)
Calculating RI/J V-Matrix + Cholesky decomp.... done (  0.6 sec)
Calculating RI/JK V-Matrix + Cholesky decomp... done (  0.6 sec)
Calculating RI/C V-Matrix + Cholesky decomp.... done (  0.6 sec)
Calculating Nuclear repulsion               ... done (  0.0 sec) ENN=   1724.107945491061 Eh

SHARK setup successfully completed in   2.4 seconds

Maximum memory used throughout the entire GTOINT-calculation: 41.5 MB


           ************************************************************
           *        Program running with 16 parallel MPI-processes    *
           *              working on a common directory               *
           ************************************************************
-------------------------------------------------------------------------------
                                 ORCA SCF
-------------------------------------------------------------------------------

------------
SCF SETTINGS
------------
Hamiltonian:
 Density Functional     Method          .... DFT(GTOs)
 Exchange Functional    Exchange        .... B88
   X-Alpha parameter    XAlpha          ....  0.666667
   Becke's b parameter  XBeta           ....  0.004200
 Correlation Functional Correlation     .... LYP
 LDA part of GGA corr.  LDAOpt          .... VWN-5
 Gradients option       PostSCFGGA      .... off
 Hybrid DFT is turned on
   Fraction HF Exchange ScalHFX         ....  0.200000
   Scaling of DF-GGA-X  ScalDFX         ....  0.720000
   Scaling of DF-GGA-C  ScalDFC         ....  0.810000
   Scaling of DF-LDA-C  ScalLDAC        ....  1.000000
   Perturbative correction              ....  0.000000
   Density functional embedding theory  .... OFF
   NL short-range parameter             ....  4.800000
 RI-approximation to the Coulomb term is turned on
   Number of AuxJ basis functions       .... 3164
   RIJ-COSX (HFX calculated with COS-X)).... on


General Settings:
 Integral files         IntName         .... cc-pVDZ
 Hartree-Fock type      HFTyp           .... UHF
 Total Charge           Charge          ....    0
 Multiplicity           Mult            ....    2
 Number of Electrons    NEL             ....  169
 Basis Dimension        Dim             ....  461
 Nuclear Repulsion      ENuc            ....   1724.1079454911 Eh

Convergence Acceleration:
 DIIS                   CNVDIIS         .... on
   Start iteration      DIISMaxIt       ....    12
   Startup error        DIISStart       ....  0.200000
   # of expansion vecs  DIISMaxEq       ....     5
   Bias factor          DIISBfac        ....   1.050
   Max. coefficient     DIISMaxC        ....  10.000
 Trust-Rad. Augm. Hess. CNVTRAH         .... auto
   Auto Start mean grad. ratio tolernc. ....  1.125000
   Auto Start start iteration           ....    20
   Auto Start num. interpolation iter.  ....    10
   Max. Number of Micro iterations      ....    16
   Max. Number of Macro iterations      .... Maxiter - #DIIS iter
   Number of Davidson start vectors     ....     2
   Converg. threshold I  (grad. norm)   ....   5.000e-05
   Converg. threshold II (energy diff.) ....   1.000e-06
   Grad. Scal. Fac. for Micro threshold ....   0.100
   Minimum threshold for Micro iter.    ....   0.010
   NR start threshold (gradient norm)   ....   0.001
   Initial trust radius                 ....   0.400
   Minimum AH scaling param. (alpha)    ....   1.000
   Maximum AH scaling param. (alpha)    .... 1000.000
   Orbital update algorithm             .... Taylor
   White noise on init. David. guess    .... on
   Maximum white noise                  ....   0.010
   Quad. conv. algorithm                .... NR
 SOSCF                  CNVSOSCF        .... off
 Level Shifting         CNVShift        .... on
   Level shift para.    LevelShift      ....    0.2500
   Turn off err/grad.   ShiftErr        ....    0.0010
 Zerner damping         CNVZerner       .... off
 Static damping         CNVDamp         .... on
   Fraction old density DampFac         ....    0.7000
   Max. Damping (<1)    DampMax         ....    0.9800
   Min. Damping (>=0)   DampMin         ....    0.0000
   Turn off err/grad.   DampErr         ....    0.1000
 Fernandez-Rico         CNVRico         .... off

SCF Procedure:
 Maximum # iterations   MaxIter         ....   125
 SCF integral mode      SCFMode         .... Direct
   Integral package                     .... SHARK and LIBINT hybrid scheme
 Reset frequency        DirectResetFreq ....    20
 Integral Threshold     Thresh          ....  1.000e-10 Eh
 Primitive CutOff       TCut            ....  1.000e-11 Eh

Convergence Tolerance:
 Convergence Check Mode ConvCheckMode   .... Total+1el-Energy
 Convergence forced     ConvForced      .... 0
 Energy Change          TolE            ....  1.000e-06 Eh
 1-El. energy change                    ....  1.000e-03 Eh
 DIIS Error             TolErr          ....  1.000e-06


Diagonalization of the overlap matrix:
Smallest eigenvalue                        ... 5.108e-05
Time for diagonalization                   ...    0.053 sec
Threshold for overlap eigenvalues          ... 1.000e-08
Number of eigenvalues below threshold      ... 0
Time for construction of square roots      ...    0.046 sec
Total time needed                          ...    0.101 sec

Time for model grid setup =    0.320 sec

------------------------------
INITIAL GUESS: MODEL POTENTIAL
------------------------------
Loading Hartree-Fock densities                     ... done
Calculating cut-offs                               ... done
Initializing the effective Hamiltonian             ... done
Setting up the integral package (SHARK)            ... done
Starting the Coulomb interaction                   ... done (   0.3 sec)
Reading the grid                                   ... done
Mapping shells                                     ... done
Starting the XC term evaluation                    ... done (   0.1 sec)
  promolecular density results
     # of electrons  =    168.988538932
     EX              =   -130.677488067
     EC              =     -5.564695843
     EX+EC           =   -136.242183911
Transforming the Hamiltonian                       ... done (   0.0 sec)
Diagonalizing the Hamiltonian                      ... done (   0.0 sec)
Back transforming the eigenvectors                 ... done (   0.0 sec)
Now organizing SCF variables                       ... done
                      ------------------
                      INITIAL GUESS DONE (   1.0 sec)
                      ------------------
-------------------
DFT GRID GENERATION
-------------------

General Integration Accuracy     IntAcc      ... 4.388
Radial Grid Type                 RadialGrid  ... OptM3 with GC (2021)
Angular Grid (max. ang.)         AngularGrid ... 4 (Lebedev-302)
Angular grid pruning method      GridPruning ... 4 (adaptive)
Weight generation scheme         WeightScheme... Becke
Basis function cutoff            BFCut       ... 1.0000e-10
Integration weight cutoff        WCut        ... 1.0000e-14
Angular grids for H and He will be reduced by one unit
Partially contracted basis set               ... off
Rotationally invariant grid construction     ... off

Total number of grid points                  ...   223180
Total number of batches                      ...     3508
Average number of points per batch           ...       63
Average number of grid points per atom       ...     4555
Time for grid setup =    1.396 sec

--------------------
COSX GRID GENERATION
--------------------

GRIDX 1
-------
General Integration Accuracy     IntAcc      ... 3.816
Radial Grid Type                 RadialGrid  ... OptM3 with GC (2021)
Angular Grid (max. ang.)         AngularGrid ... 1 (Lebedev-50)
Angular grid pruning method      GridPruning ... 4 (adaptive)
Weight generation scheme         WeightScheme... Becke
Basis function cutoff            BFCut       ... 1.0000e-10
Integration weight cutoff        WCut        ... 1.0000e-14
Angular grids for H and He will be reduced by one unit
Partially contracted basis set               ... on
Rotationally invariant grid construction     ... off

Total number of grid points                  ...    28434
Total number of batches                      ...      470
Average number of points per batch           ...       60
Average number of grid points per atom       ...      580
UseSFitting                                  ... on

GRIDX 2
-------
General Integration Accuracy     IntAcc      ... 4.020
Radial Grid Type                 RadialGrid  ... OptM3 with GC (2021)
Angular Grid (max. ang.)         AngularGrid ... 2 (Lebedev-110)
Angular grid pruning method      GridPruning ... 4 (adaptive)
Weight generation scheme         WeightScheme... Becke
Basis function cutoff            BFCut       ... 1.0000e-10
Integration weight cutoff        WCut        ... 1.0000e-14
Angular grids for H and He will be reduced by one unit
Partially contracted basis set               ... on
Rotationally invariant grid construction     ... off

Total number of grid points                  ...    60669
Total number of batches                      ...      975
Average number of points per batch           ...       62
Average number of grid points per atom       ...     1238
UseSFitting                                  ... on

GRIDX 3
-------
General Integration Accuracy     IntAcc      ... 4.338
Radial Grid Type                 RadialGrid  ... OptM3 with GC (2021)
Angular Grid (max. ang.)         AngularGrid ... 3 (Lebedev-194)
Angular grid pruning method      GridPruning ... 4 (adaptive)
Weight generation scheme         WeightScheme... Becke
Basis function cutoff            BFCut       ... 1.0000e-10
Integration weight cutoff        WCut        ... 1.0000e-14
Angular grids for H and He will be reduced by one unit
Partially contracted basis set               ... on
Rotationally invariant grid construction     ... off

Total number of grid points                  ...   132673
Total number of batches                      ...     2100
Average number of points per batch           ...       63
Average number of grid points per atom       ...     2708
UseSFitting                                  ... on

Time for X-Grid setup             =    2.337 sec

 re-compute Schwartz prescreening matrix in partically contracted basis (1) ...done (   0.123 sec)
--------------
SCF ITERATIONS
--------------
ITER       Energy         Delta-E        Max-DP      RMS-DP      [F,P]     Damp
               ***  Starting incremental Fock matrix formation  ***
  0   -928.3589299725   0.000000000000 0.07295893  0.00092070  0.0869625 0.7000
  1   -928.5969884229  -0.238058450460 0.06356943  0.00071784  0.0458115 0.7000
                               ***Turning on DIIS***
  2   -928.7051811128  -0.108192689861 0.13225142  0.00140081  0.0175332 0.0000
  3   -928.8591981076  -0.154016994782 0.02899458  0.00036903  0.0249001 0.0000
  4   -928.8981885415  -0.038990433967 0.01834428  0.00015791  0.0056508 0.0000
  5   -928.9006421224  -0.002453580858 0.00445336  0.00003849  0.0030267 0.0000
  6   -928.9010112185  -0.000369096077 0.00355670  0.00002387  0.0022927 0.0000
  7   -928.9011643186  -0.000153100087 0.00232536  0.00001596  0.0014316 0.0000
  8   -928.9012452284  -0.000080909780 0.00360554  0.00002836  0.0009618 0.0000
               *** Restarting incremental Fock matrix formation ***
                                   *** Resetting DIIS ***
  9   -928.9015825762  -0.000337347890 0.00111200  0.00001181  0.0010894 0.0000
 10   -928.9015857717  -0.000003195477 0.00049796  0.00000360  0.0012392 0.0000
 11   -928.9015940953  -0.000008323571 0.00068722  0.00000535  0.0004606 0.0000
 12   -928.9015985178  -0.000004422465 0.00057438  0.00000442  0.0001800 0.0000
 13   -928.9016003465  -0.000001828767 0.00031369  0.00000226  0.0001365 0.0000
 14   -928.9016009886  -0.000000642062 0.00011809  0.00000112  0.0000739 0.0000
                 **** Energy Check signals convergence ****

               *****************************************************
               *                     SUCCESS                       *
               *           SCF CONVERGED AFTER  15 CYCLES          *
               *****************************************************

Old exchange energy                            =    -26.638028522 Eh
New exchange energy                            =    -26.638149916 Eh
Exchange energy change after final integration =     -0.000121394 Eh
Total energy after final integration           =   -928.901722587 Eh
Final COS-X integration done in                =     9.297 sec

----------------
TOTAL SCF ENERGY
----------------

Total Energy       :         -928.90172259 Eh          -25276.70091 eV

Components:
Nuclear Repulsion  :         1724.10794549 Eh           46915.36233 eV
Electronic Energy  :        -2653.00966808 Eh          -72192.06324 eV
One Electron Energy:        -4677.21552999 Eh         -127273.50503 eV
Two Electron Energy:         2024.20586192 Eh           55081.44179 eV
Max COSX asymmetry :            0.00000068 Eh               0.00002 eV

Virial components:
Potential Energy   :        -1851.36782564 Eh          -50378.27972 eV
Kinetic Energy     :          922.46610306 Eh           25101.57880 eV
Virial Ratio       :            2.00697654


DFT components:
N(Alpha)           :       85.000125800024 electrons
N(Beta)            :       84.000116175507 electrons
N(Total)           :      169.000241975531 electrons
E(X)               :     -105.658623531404 Eh       
E(C)               :       -6.575595110271 Eh       
E(XC)              :     -112.234218641675 Eh       
DFET-embed. en.    :        0.000000000000 Eh       

---------------
SCF CONVERGENCE
---------------

  Last Energy change         ...   -2.0437e-07  Tolerance :   1.0000e-06
  Last MAX-Density change    ...    0.0000e+00  Tolerance :   1.0000e-05
  Last RMS-Density change    ...    0.0000e+00  Tolerance :   1.0000e-06
  Last DIIS Error            ...    8.4821e-05  Tolerance :   1.0000e-06

             **** THE GBW FILE WAS UPDATED (cc-pVDZ.gbw) ****
             **** DENSITY cc-pVDZ.scfp WAS UPDATED ****
             **** ENERGY FILE WAS UPDATED (cc-pVDZ.en.tmp) ****
----------------------
UHF SPIN CONTAMINATION
----------------------

Warning: in a DFT calculation there is little theoretical justification to 
         calculate <S**2> as in Hartree-Fock theory. We will do it anyways
         but you should keep in mind that the values have only limited relevance

Expectation value of <S**2>     :     0.787358
Ideal value S*(S+1) for S=0.5   :     0.750000
Deviation                       :     0.037358

             **** THE GBW FILE WAS UPDATED (cc-pVDZ.gbw) ****
             **** DENSITY cc-pVDZ.scfp WAS UPDATED ****
----------------
ORBITAL ENERGIES
----------------
                 SPIN UP ORBITALS
  NO   OCC          E(Eh)            E(eV) 
   0   1.0000     -10.215350      -277.9738 
   1   1.0000     -10.214441      -277.9491 
   2   1.0000     -10.211687      -277.8741 
   3   1.0000     -10.202651      -277.6282 
   4   1.0000     -10.198396      -277.5125 
   5   1.0000     -10.196457      -277.4597 
   6   1.0000     -10.196212      -277.4530 
   7   1.0000     -10.195170      -277.4247 
   8   1.0000     -10.195122      -277.4234 
   9   1.0000     -10.194460      -277.4054 
  10   1.0000     -10.194282      -277.4005 
  11   1.0000     -10.192569      -277.3539 
  12   1.0000     -10.191594      -277.3274 
  13   1.0000     -10.189746      -277.2771 
  14   1.0000     -10.189152      -277.2609 
  15   1.0000     -10.188439      -277.2415 
  16   1.0000     -10.186766      -277.1960 
  17   1.0000     -10.186461      -277.1877 
  18   1.0000     -10.186056      -277.1767 
  19   1.0000     -10.184406      -277.1318 
  20   1.0000     -10.181551      -277.0541 
  21   1.0000     -10.181363      -277.0490 
  22   1.0000     -10.177385      -276.9407 
  23   1.0000     -10.175455      -276.8882 
  24   1.0000      -0.873913       -23.7804 
  25   1.0000      -0.862475       -23.4691 
  26   1.0000      -0.820088       -22.3157 
  27   1.0000      -0.799063       -21.7436 
  28   1.0000      -0.795880       -21.6570 
  29   1.0000      -0.778081       -21.1727 
  30   1.0000      -0.767727       -20.8909 
  31   1.0000      -0.750230       -20.4148 
  32   1.0000      -0.744638       -20.2626 
  33   1.0000      -0.730343       -19.8736 
  34   1.0000      -0.713542       -19.4165 
  35   1.0000      -0.697690       -18.9851 
  36   1.0000      -0.656854       -17.8739 
  37   1.0000      -0.643821       -17.5192 
  38   1.0000      -0.618020       -16.8172 
  39   1.0000      -0.612653       -16.6711 
  40   1.0000      -0.608122       -16.5478 
  41   1.0000      -0.592656       -16.1270 
  42   1.0000      -0.580361       -15.7924 
  43   1.0000      -0.562099       -15.2955 
  44   1.0000      -0.540748       -14.7145 
  45   1.0000      -0.529287       -14.4026 
  46   1.0000      -0.506728       -13.7888 
  47   1.0000      -0.491826       -13.3833 
  48   1.0000      -0.479892       -13.0585 
  49   1.0000      -0.475995       -12.9525 
  50   1.0000      -0.470369       -12.7994 
  51   1.0000      -0.462597       -12.5879 
  52   1.0000      -0.456822       -12.4308 
  53   1.0000      -0.435918       -11.8619 
  54   1.0000      -0.432319       -11.7640 
  55   1.0000      -0.429402       -11.6846 
  56   1.0000      -0.426173       -11.5968 
  57   1.0000      -0.423402       -11.5213 
  58   1.0000      -0.421611       -11.4726 
  59   1.0000      -0.411817       -11.2061 
  60   1.0000      -0.398683       -10.8487 
  61   1.0000      -0.397970       -10.8293 
  62   1.0000      -0.383886       -10.4461 
  63   1.0000      -0.378650       -10.3036 
  64   1.0000      -0.377052       -10.2601 
  65   1.0000      -0.365281        -9.9398 
  66   1.0000      -0.360982        -9.8228 
  67   1.0000      -0.356468        -9.7000 
  68   1.0000      -0.353692        -9.6244 
  69   1.0000      -0.349663        -9.5148 
  70   1.0000      -0.340415        -9.2632 
  71   1.0000      -0.332954        -9.0601 
  72   1.0000      -0.331471        -9.0198 
  73   1.0000      -0.331262        -9.0141 
  74   1.0000      -0.327518        -8.9122 
  75   1.0000      -0.324154        -8.8207 
  76   1.0000      -0.321286        -8.7426 
  77   1.0000      -0.299667        -8.1544 
  78   1.0000      -0.275123        -7.4865 
  79   1.0000      -0.273295        -7.4367 
  80   1.0000      -0.267416        -7.2768 
  81   1.0000      -0.258380        -7.0309 
  82   1.0000      -0.255333        -6.9480 
  83   1.0000      -0.216692        -5.8965 
  84   1.0000      -0.170819        -4.6482 
  85   0.0000      -0.056616        -1.5406 
  86   0.0000      -0.011557        -0.3145 
  87   0.0000      -0.009797        -0.2666 
  88   0.0000       0.013118         0.3570 
  89   0.0000       0.041638         1.1330 
  90   0.0000       0.050416         1.3719 
  91   0.0000       0.054907         1.4941 
  92   0.0000       0.062902         1.7117 
  93   0.0000       0.063923         1.7394 
  94   0.0000       0.070875         1.9286 
  95   0.0000       0.077976         2.1218 
  96   0.0000       0.084386         2.2963 
  97   0.0000       0.087176         2.3722 
  98   0.0000       0.092246         2.5101 
  99   0.0000       0.094139         2.5617 
 100   0.0000       0.095669         2.6033 
 101   0.0000       0.101676         2.7667 
 102   0.0000       0.103752         2.8232 
 103   0.0000       0.117468         3.1965 
 104   0.0000       0.119879         3.2621 
 105   0.0000       0.125710         3.4207 
 106   0.0000       0.130346         3.5469 
 107   0.0000       0.134032         3.6472 
 108   0.0000       0.144628         3.9355 
 109   0.0000       0.146267         3.9801 
 110   0.0000       0.149405         4.0655 
 111   0.0000       0.159558         4.3418 
 112   0.0000       0.159918         4.3516 
 113   0.0000       0.162490         4.4216 
 114   0.0000       0.165927         4.5151 
 115   0.0000       0.169260         4.6058 
 116   0.0000       0.170244         4.6326 
 117   0.0000       0.178894         4.8680 
 118   0.0000       0.184503         5.0206 
 119   0.0000       0.204612         5.5678 
 120   0.0000       0.212965         5.7951 
 121   0.0000       0.213699         5.8151 
 122   0.0000       0.216872         5.9014 
 123   0.0000       0.219114         5.9624 
 124   0.0000       0.226129         6.1533 
 125   0.0000       0.243809         6.6344 
 126   0.0000       0.247078         6.7233 
 127   0.0000       0.262872         7.1531 
 128   0.0000       0.279568         7.6074 
 129   0.0000       0.281154         7.6506 
 130   0.0000       0.291379         7.9288 
 131   0.0000       0.291553         7.9336 
 132   0.0000       0.310088         8.4379 
 133   0.0000       0.315600         8.5879 
 134   0.0000       0.320201         8.7131 
 135   0.0000       0.333061         9.0631 
 136   0.0000       0.342470         9.3191 
 137   0.0000       0.359431         9.7806 
 138   0.0000       0.367968        10.0129 
 139   0.0000       0.375349        10.2138 
 140   0.0000       0.397501        10.8166 
 141   0.0000       0.409825        11.1519 
 142   0.0000       0.411966        11.2102 
 143   0.0000       0.413065        11.2401 
 144   0.0000       0.419880        11.4255 
 145   0.0000       0.421360        11.4658 
 146   0.0000       0.430788        11.7223 
 147   0.0000       0.439615        11.9625 
 148   0.0000       0.440391        11.9836 
 149   0.0000       0.445125        12.1125 
 150   0.0000       0.450009        12.2454 
 151   0.0000       0.452381        12.3099 
 152   0.0000       0.464068        12.6279 
 153   0.0000       0.471627        12.8336 
 154   0.0000       0.473106        12.8739 
 155   0.0000       0.474405        12.9092 
 156   0.0000       0.477830        13.0024 
 157   0.0000       0.482360        13.1257 
 158   0.0000       0.489758        13.3270 
 159   0.0000       0.501229        13.6391 
 160   0.0000       0.503230        13.6936 
 161   0.0000       0.506047        13.7702 
 162   0.0000       0.508117        13.8266 
 163   0.0000       0.510331        13.8868 
 164   0.0000       0.514511        14.0006 
 165   0.0000       0.515380        14.0242 
 166   0.0000       0.515668        14.0320 
 167   0.0000       0.516846        14.0641 
 168   0.0000       0.525960        14.3121 
 169   0.0000       0.526183        14.3182 
 170   0.0000       0.536463        14.5979 
 171   0.0000       0.546165        14.8619 
 172   0.0000       0.558035        15.1849 
 173   0.0000       0.560504        15.2521 
 174   0.0000       0.573312        15.6006 
 175   0.0000       0.573674        15.6105 
 176   0.0000       0.587612        15.9897 
 177   0.0000       0.589042        16.0287 
 178   0.0000       0.593367        16.1463 
 179   0.0000       0.597598        16.2615 
 180   0.0000       0.606377        16.5004 
 181   0.0000       0.608725        16.5642 
 182   0.0000       0.618533        16.8311 
 183   0.0000       0.620626        16.8881 
 184   0.0000       0.626105        17.0372 
 185   0.0000       0.631655        17.1882 
 186   0.0000       0.638633        17.3781 
 187   0.0000       0.638691        17.3797 
 188   0.0000       0.642837        17.4925 
 189   0.0000       0.643000        17.4969 
 190   0.0000       0.648523        17.6472 
 191   0.0000       0.654492        17.8096 
 192   0.0000       0.655702        17.8426 
 193   0.0000       0.656198        17.8560 
 194   0.0000       0.660163        17.9640 
 195   0.0000       0.662189        18.0191 
 196   0.0000       0.665054        18.0971 
 197   0.0000       0.665766        18.1164 
 198   0.0000       0.671368        18.2688 
 199   0.0000       0.674527        18.3548 
 200   0.0000       0.678120        18.4526 
 201   0.0000       0.682713        18.5776 
 202   0.0000       0.683999        18.6126 
 203   0.0000       0.685844        18.6628 
 204   0.0000       0.689170        18.7533 
 205   0.0000       0.691860        18.8265 
 206   0.0000       0.694364        18.8946 
 207   0.0000       0.703637        19.1469 
 208   0.0000       0.707426        19.2500 
 209   0.0000       0.716297        19.4914 
 210   0.0000       0.719384        19.5754 
 211   0.0000       0.729237        19.8435 
 212   0.0000       0.729533        19.8516 
 213   0.0000       0.735560        20.0156 
 214   0.0000       0.739410        20.1204 
 215   0.0000       0.745323        20.2813 
 216   0.0000       0.750831        20.4311 
 217   0.0000       0.758915        20.6511 
 218   0.0000       0.767984        20.8979 
 219   0.0000       0.780342        21.2342 
 220   0.0000       0.784797        21.3554 
 221   0.0000       0.793866        21.6022 
 222   0.0000       0.812248        22.1024 
 223   0.0000       0.816920        22.2295 
 224   0.0000       0.833418        22.6784 
 225   0.0000       0.833835        22.6898 
 226   0.0000       0.841991        22.9117 
 227   0.0000       0.851130        23.1604 
 228   0.0000       0.866196        23.5704 
 229   0.0000       0.869647        23.6643 
 230   0.0000       0.882204        24.0060 
 231   0.0000       0.888846        24.1867 
 232   0.0000       0.900941        24.5158 
 233   0.0000       0.912456        24.8292 
 234   0.0000       0.915387        24.9089 
 235   0.0000       0.916556        24.9408 
 236   0.0000       0.928461        25.2647 
 237   0.0000       0.938482        25.5374 
 238   0.0000       0.953017        25.9329 
 239   0.0000       0.958885        26.0926 
 240   0.0000       0.974049        26.5052 
 241   0.0000       0.976169        26.5629 
 242   0.0000       0.981866        26.7179 
 243   0.0000       0.988706        26.9041 
 244   0.0000       0.994251        27.0550 
 245   0.0000       0.994816        27.0703 
 246   0.0000       1.002038        27.2668 
 247   0.0000       1.018648        27.7188 
 248   0.0000       1.026916        27.9438 
 249   0.0000       1.032543        28.0969 
 250   0.0000       1.039750        28.2930 
 251   0.0000       1.041365        28.3370 
 252   0.0000       1.041798        28.3488 
 253   0.0000       1.052034        28.6273 
 254   0.0000       1.059149        28.8209 
 255   0.0000       1.059450        28.8291 
 256   0.0000       1.071746        29.1637 
 257   0.0000       1.072333        29.1797 
 258   0.0000       1.092515        29.7288 
 259   0.0000       1.103143        30.0180 
 260   0.0000       1.116502        30.3816 
 261   0.0000       1.133507        30.8443 
 262   0.0000       1.152519        31.3616 
 263   0.0000       1.155088        31.4315 
 264   0.0000       1.171179        31.8694 
 265   0.0000       1.181644        32.1542 
 266   0.0000       1.196098        32.5475 
 267   0.0000       1.203364        32.7452 
 268   0.0000       1.207489        32.8575 
 269   0.0000       1.209958        32.9246 
 270   0.0000       1.217710        33.1356 
 271   0.0000       1.218143        33.1474 
 272   0.0000       1.221994        33.2521 
 273   0.0000       1.231923        33.5223 
 274   0.0000       1.234965        33.6051 
 275   0.0000       1.254855        34.1463 
 276   0.0000       1.279229        34.8096 
 277   0.0000       1.291541        35.1446 
 278   0.0000       1.295906        35.2634 
 279   0.0000       1.300421        35.3863 
 280   0.0000       1.315247        35.7897 
 281   0.0000       1.316076        35.8123 
 282   0.0000       1.332602        36.2619 
 283   0.0000       1.339814        36.4582 
 284   0.0000       1.340962        36.4894 
 285   0.0000       1.364697        37.1353 
 286   0.0000       1.372819        37.3563 
 287   0.0000       1.384538        37.6752 
 288   0.0000       1.389475        37.8095 
 289   0.0000       1.392387        37.8888 
 290   0.0000       1.408046        38.3149 
 291   0.0000       1.419556        38.6281 
 292   0.0000       1.421399        38.6782 
 293   0.0000       1.425172        38.7809 
 294   0.0000       1.426707        38.8227 
 295   0.0000       1.436863        39.0990 
 296   0.0000       1.446419        39.3591 
 297   0.0000       1.453764        39.5589 
 298   0.0000       1.468129        39.9498 
 299   0.0000       1.471587        40.0439 
 300   0.0000       1.479913        40.2705 
 301   0.0000       1.482731        40.3472 
 302   0.0000       1.483891        40.3787 
 303   0.0000       1.494106        40.6567 
 304   0.0000       1.500259        40.8241 
 305   0.0000       1.502527        40.8858 
 306   0.0000       1.511472        41.1292 
 307   0.0000       1.523774        41.4640 
 308   0.0000       1.529174        41.6109 
 309   0.0000       1.543851        42.0103 
 310   0.0000       1.551798        42.2266 
 311   0.0000       1.576984        42.9119 
 312   0.0000       1.583883        43.0996 
 313   0.0000       1.584624        43.1198 
 314   0.0000       1.591953        43.3192 
 315   0.0000       1.598325        43.4926 
 316   0.0000       1.601633        43.5826 
 317   0.0000       1.604850        43.6702 
 318   0.0000       1.612177        43.8696 
 319   0.0000       1.616198        43.9790 
 320   0.0000       1.623598        44.1803 
 321   0.0000       1.627379        44.2832 
 322   0.0000       1.630666        44.3727 
 323   0.0000       1.633348        44.4457 
 324   0.0000       1.638023        44.5729 
 325   0.0000       1.640196        44.6320 
 326   0.0000       1.642490        44.6944 
 327   0.0000       1.646151        44.7941 
 328   0.0000       1.648338        44.8536 
 329   0.0000       1.652174        44.9580 
 330   0.0000       1.660196        45.1762 
 331   0.0000       1.670698        45.4620 
 332   0.0000       1.671436        45.4821 
 333   0.0000       1.672946        45.5232 
 334   0.0000       1.682583        45.7854 
 335   0.0000       1.685560        45.8664 
 336   0.0000       1.688765        45.9536 
 337   0.0000       1.688799        45.9546 
 338   0.0000       1.695863        46.1468 
 339   0.0000       1.699303        46.2404 
 340   0.0000       1.703191        46.3462 
 341   0.0000       1.706769        46.4435 
 342   0.0000       1.709591        46.5203 
 343   0.0000       1.718227        46.7553 
 344   0.0000       1.719971        46.8028 
 345   0.0000       1.742161        47.4066 
 346   0.0000       1.742625        47.4192 
 347   0.0000       1.748916        47.5904 
 348   0.0000       1.750255        47.6268 
 349   0.0000       1.761814        47.9414 
 350   0.0000       1.768514        48.1237 
 351   0.0000       1.771253        48.1983 
 352   0.0000       1.781672        48.4818 
 353   0.0000       1.784649        48.5628 
 354   0.0000       1.789865        48.7047 
 355   0.0000       1.794320        48.8259 
 356   0.0000       1.800112        48.9835 
 357   0.0000       1.803609        49.0787 
 358   0.0000       1.808775        49.2193 
 359   0.0000       1.813206        49.3398 
 360   0.0000       1.826593        49.7041 
 361   0.0000       1.830313        49.8053 
 362   0.0000       1.836915        49.9850 
 363   0.0000       1.843493        50.1640 
 364   0.0000       1.847883        50.2835 
 365   0.0000       1.852668        50.4136 
 366   0.0000       1.854067        50.4517 
 367   0.0000       1.859130        50.5895 
 368   0.0000       1.877450        51.0880 
 369   0.0000       1.883021        51.2396 
 370   0.0000       1.892302        51.4922 
 371   0.0000       1.903634        51.8005 
 372   0.0000       1.921954        52.2990 
 373   0.0000       1.922735        52.3203 
 374   0.0000       1.927242        52.4429 
 375   0.0000       1.934731        52.6467 
 376   0.0000       1.943914        52.8966 
 377   0.0000       1.953158        53.1481 
 378   0.0000       1.965629        53.4875 
 379   0.0000       1.973538        53.7027 
 380   0.0000       1.985568        54.0301 
 381   0.0000       1.989660        54.1414 
 382   0.0000       1.994207        54.2651 
 383   0.0000       1.994893        54.2838 
 384   0.0000       2.015860        54.8543 
 385   0.0000       2.027922        55.1826 
 386   0.0000       2.037430        55.4413 
 387   0.0000       2.067960        56.2721 
 388   0.0000       2.071484        56.3680 
 389   0.0000       2.075071        56.4656 
 390   0.0000       2.075605        56.4801 
 391   0.0000       2.089048        56.8459 
 392   0.0000       2.101728        57.1909 
 393   0.0000       2.120937        57.7136 
 394   0.0000       2.126091        57.8539 
 395   0.0000       2.149320        58.4860 
 396   0.0000       2.155562        58.6558 
 397   0.0000       2.156098        58.6704 
 398   0.0000       2.189371        59.5758 
 399   0.0000       2.196803        59.7780 
 400   0.0000       2.198787        59.8320 
 401   0.0000       2.203912        59.9715 
 402   0.0000       2.210498        60.1507 
 403   0.0000       2.217807        60.3496 
 404   0.0000       2.225286        60.5531 
 405   0.0000       2.230109        60.6844 
 406   0.0000       2.237520        60.8860 
 407   0.0000       2.244627        61.0794 
 408   0.0000       2.270626        61.7869 
 409   0.0000       2.283105        62.1265 
 410   0.0000       2.292553        62.3835 
 411   0.0000       2.298121        62.5350 
 412   0.0000       2.302654        62.6584 
 413   0.0000       2.321588        63.1736 
 414   0.0000       2.325237        63.2729 
 415   0.0000       2.336071        63.5677 
 416   0.0000       2.352714        64.0206 
 417   0.0000       2.369321        64.4725 
 418   0.0000       2.371173        64.5229 
 419   0.0000       2.406956        65.4966 
 420   0.0000       2.409676        65.5706 
 421   0.0000       2.412298        65.6420 
 422   0.0000       2.412741        65.6540 
 423   0.0000       2.413371        65.6712 
 424   0.0000       2.417962        65.7961 
 425   0.0000       2.420471        65.8644 
 426   0.0000       2.429269        66.1038 
 427   0.0000       2.443874        66.5012 
 428   0.0000       2.451763        66.7159 
 429   0.0000       2.453783        66.7708 
 430   0.0000       2.482942        67.5643 
 431   0.0000       2.508135        68.2498 
 432   0.0000       2.529116        68.8207 
 433   0.0000       2.540335        69.1260 
 434   0.0000       2.540567        69.1323 
 435   0.0000       2.556775        69.5734 
 436   0.0000       2.581844        70.2555 
 437   0.0000       2.600850        70.7727 
 438   0.0000       2.615795        71.1794 
 439   0.0000       2.628086        71.5139 
 440   0.0000       2.635380        71.7123 
 441   0.0000       2.642094        71.8950 
 442   0.0000       2.665467        72.5310 
 443   0.0000       2.680640        72.9439 
 444   0.0000       2.705540        73.6215 
 445   0.0000       2.714203        73.8572 
 446   0.0000       2.720732        74.0349 
 447   0.0000       2.723083        74.0989 
 448   0.0000       2.732743        74.3617 
 449   0.0000       2.776255        75.5457 
 450   0.0000       2.818902        76.7062 
 451   0.0000       2.847741        77.4910 
 452   0.0000       2.861005        77.8519 
 453   0.0000       2.877040        78.2882 
 454   0.0000       2.907197        79.1089 
 455   0.0000       2.945180        80.1424 
 456   0.0000       3.088541        84.0435 
 457   0.0000       3.120904        84.9241 
 458   0.0000       3.193217        86.8919 
 459   0.0000       3.394746        92.3757 
 460   0.0000       3.584558        97.5408 

                 SPIN DOWN ORBITALS
  NO   OCC          E(Eh)            E(eV) 
   0   1.0000     -10.215698      -277.9833 
   1   1.0000     -10.213314      -277.9184 
   2   1.0000     -10.211085      -277.8577 
   3   1.0000     -10.200850      -277.5792 
   4   1.0000     -10.199253      -277.5358 
   5   1.0000     -10.196084      -277.4495 
   6   1.0000     -10.195842      -277.4430 
   7   1.0000     -10.194921      -277.4179 
   8   1.0000     -10.194620      -277.4097 
   9   1.0000     -10.194270      -277.4002 
  10   1.0000     -10.192096      -277.3410 
  11   1.0000     -10.191331      -277.3202 
  12   1.0000     -10.191213      -277.3170 
  13   1.0000     -10.189111      -277.2598 
  14   1.0000     -10.188838      -277.2524 
  15   1.0000     -10.186674      -277.1935 
  16   1.0000     -10.186662      -277.1932 
  17   1.0000     -10.186633      -277.1924 
  18   1.0000     -10.184367      -277.1307 
  19   1.0000     -10.182718      -277.0858 
  20   1.0000     -10.181548      -277.0540 
  21   1.0000     -10.181362      -277.0489 
  22   1.0000     -10.177393      -276.9409 
  23   1.0000     -10.175457      -276.8883 
  24   1.0000      -0.870606       -23.6904 
  25   1.0000      -0.862014       -23.4566 
  26   1.0000      -0.815203       -22.1828 
  27   1.0000      -0.796365       -21.6702 
  28   1.0000      -0.794678       -21.6243 
  29   1.0000      -0.777236       -21.1497 
  30   1.0000      -0.765717       -20.8362 
  31   1.0000      -0.749874       -20.4051 
  32   1.0000      -0.743521       -20.2322 
  33   1.0000      -0.726470       -19.7682 
  34   1.0000      -0.712757       -19.3951 
  35   1.0000      -0.695502       -18.9256 
  36   1.0000      -0.653832       -17.7917 
  37   1.0000      -0.642599       -17.4860 
  38   1.0000      -0.614372       -16.7179 
  39   1.0000      -0.609820       -16.5941 
  40   1.0000      -0.607887       -16.5415 
  41   1.0000      -0.591759       -16.1026 
  42   1.0000      -0.578756       -15.7488 
  43   1.0000      -0.559661       -15.2292 
  44   1.0000      -0.540202       -14.6996 
  45   1.0000      -0.528000       -14.3676 
  46   1.0000      -0.503541       -13.7020 
  47   1.0000      -0.491012       -13.3611 
  48   1.0000      -0.478650       -13.0247 
  49   1.0000      -0.475043       -12.9266 
  50   1.0000      -0.469527       -12.7765 
  51   1.0000      -0.459201       -12.4955 
  52   1.0000      -0.456615       -12.4251 
  53   1.0000      -0.435308       -11.8453 
  54   1.0000      -0.430492       -11.7143 
  55   1.0000      -0.428162       -11.6509 
  56   1.0000      -0.425009       -11.5651 
  57   1.0000      -0.423296       -11.5185 
  58   1.0000      -0.419000       -11.4016 
  59   1.0000      -0.411341       -11.1932 
  60   1.0000      -0.396898       -10.8002 
  61   1.0000      -0.391144       -10.6436 
  62   1.0000      -0.381247       -10.3742 
  63   1.0000      -0.376370       -10.2415 
  64   1.0000      -0.374440       -10.1890 
  65   1.0000      -0.364159        -9.9093 
  66   1.0000      -0.360537        -9.8107 
  67   1.0000      -0.355629        -9.6772 
  68   1.0000      -0.350720        -9.5436 
  69   1.0000      -0.349495        -9.5103 
  70   1.0000      -0.338193        -9.2027 
  71   1.0000      -0.332430        -9.0459 
  72   1.0000      -0.329882        -8.9765 
  73   1.0000      -0.329012        -8.9529 
  74   1.0000      -0.327175        -8.9029 
  75   1.0000      -0.323393        -8.8000 
  76   1.0000      -0.320641        -8.7251 
  77   1.0000      -0.296858        -8.0779 
  78   1.0000      -0.275089        -7.4856 
  79   1.0000      -0.266994        -7.2653 
  80   1.0000      -0.259950        -7.0736 
  81   1.0000      -0.257375        -7.0035 
  82   1.0000      -0.250532        -6.8173 
  83   1.0000      -0.210240        -5.7209 
  84   0.0000      -0.085882        -2.3370 
  85   0.0000      -0.048571        -1.3217 
  86   0.0000      -0.008930        -0.2430 
  87   0.0000      -0.006425        -0.1748 
  88   0.0000       0.029339         0.7984 
  89   0.0000       0.041975         1.1422 
  90   0.0000       0.050707         1.3798 
  91   0.0000       0.055353         1.5062 
  92   0.0000       0.063055         1.7158 
  93   0.0000       0.064310         1.7500 
  94   0.0000       0.075502         2.0545 
  95   0.0000       0.078849         2.1456 
  96   0.0000       0.084476         2.2987 
  97   0.0000       0.087135         2.3711 
  98   0.0000       0.092533         2.5180 
  99   0.0000       0.094580         2.5737 
 100   0.0000       0.095813         2.6072 
 101   0.0000       0.102422         2.7870 
 102   0.0000       0.103907         2.8275 
 103   0.0000       0.117596         3.2000 
 104   0.0000       0.121674         3.3109 
 105   0.0000       0.126273         3.4361 
 106   0.0000       0.130525         3.5518 
 107   0.0000       0.134716         3.6658 
 108   0.0000       0.144766         3.9393 
 109   0.0000       0.146451         3.9851 
 110   0.0000       0.150525         4.0960 
 111   0.0000       0.160273         4.3612 
 112   0.0000       0.160459         4.3663 
 113   0.0000       0.162715         4.4277 
 114   0.0000       0.167212         4.5501 
 115   0.0000       0.170985         4.6527 
 116   0.0000       0.172398         4.6912 
 117   0.0000       0.180567         4.9135 
 118   0.0000       0.186301         5.0695 
 119   0.0000       0.205885         5.6024 
 120   0.0000       0.215027         5.8512 
 121   0.0000       0.217999         5.9321 
 122   0.0000       0.219976         5.9859 
 123   0.0000       0.220087         5.9889 
 124   0.0000       0.227281         6.1846 
 125   0.0000       0.245044         6.6680 
 126   0.0000       0.249127         6.7791 
 127   0.0000       0.264736         7.2038 
 128   0.0000       0.279870         7.6157 
 129   0.0000       0.282799         7.6953 
 130   0.0000       0.291999         7.9457 
 131   0.0000       0.292813         7.9679 
 132   0.0000       0.311370         8.4728 
 133   0.0000       0.316087         8.6012 
 134   0.0000       0.321154         8.7390 
 135   0.0000       0.334645         9.1061 
 136   0.0000       0.343470         9.3463 
 137   0.0000       0.360179         9.8010 
 138   0.0000       0.368938        10.0393 
 139   0.0000       0.376231        10.2378 
 140   0.0000       0.398456        10.8425 
 141   0.0000       0.410390        11.1673 
 142   0.0000       0.412386        11.2216 
 143   0.0000       0.413563        11.2536 
 144   0.0000       0.420236        11.4352 
 145   0.0000       0.422726        11.5030 
 146   0.0000       0.432411        11.7665 
 147   0.0000       0.442802        12.0492 
 148   0.0000       0.447221        12.1695 
 149   0.0000       0.449103        12.2207 
 150   0.0000       0.451035        12.2733 
 151   0.0000       0.458830        12.4854 
 152   0.0000       0.468599        12.7512 
 153   0.0000       0.473130        12.8745 
 154   0.0000       0.474041        12.8993 
 155   0.0000       0.475312        12.9339 
 156   0.0000       0.480991        13.0884 
 157   0.0000       0.483604        13.1595 
 158   0.0000       0.491705        13.3800 
 159   0.0000       0.502351        13.6697 
 160   0.0000       0.504159        13.7189 
 161   0.0000       0.507040        13.7973 
[...]
  Y           0.9695111           -0.2450430            0.0014393
  Z           0.0016198            0.0005353           -0.9999985

Notes:  (1) The A matrix conforms to the "SAI" spin Hamiltonian convention.
        (2) Tensor is right-handed.

 -----------------------------------------------------------
 Nucleus  46H : A:ISTP=    1 I=  0.5 P=533.5514 MHz/au**3
                Q:ISTP=    2 I=  1.0 Q=  0.0029 barn     
 -----------------------------------------------------------
 Solving for nuclear perturbation:
Forming RHS of the CP-SCF equations         ... 
Calc. nucleus orbit integrals (SHARK)       ... done

------------------------------------------------------------------------------
                           ORCA CP-SCF CALCULATION
------------------------------------------------------------------------------

Input orbitals are from        ... cc-pVDZ.gbw
Input Perturbation             ... cc-pVDZ.pin.tmp
Wavefunction output            ... cc-pVDZ.pout.tmp
Perturbation mode              ... Imaginary perturbation
Solver                         ... POPLE
Max. number of iterations      ... 64
Convergence tolerance          ... 1.000e-03
Integral handling              ... Direct
DFT GridXC                     ... 1
COSX GridX                     ... 1
COSX IntAccX                   ... 3.067
COSX Algorithm                 ... Auto
Number of perturbations        ... 3
Number of operators            ... 2
Orbital ranges used for CP-SCF:
 Operator 0:  Orbitals   0... 84  to  85...460
 Operator 1:  Orbitals   0... 83  to  84...460
Variables per perturbation     ... 63628
DFT calculation                         ... on
XC functional terms                     ... off
Hybrid DFT                              ... on
   Exchange mixing (SCF)                ...  0.200
   Exchange mixing (CP-SCF)             ...  0.200
   GGA exch. scaling(SCF)               ...  0.720
   GGA exch. scaling (CP-SCF)           ...  0.720
   GGA corr. scaling (SCF)              ...  0.810
   GGA corr. scaling (CP-SCF)           ...  0.810

CP-SCF GRID
-----------

General Integration Accuracy     IntAcc      ... 3.467
Radial Grid Type                 RadialGrid  ... OptM3 with GC (2021)
Angular Grid (max. ang.)         AngularGrid ... 1 (Lebedev-50)
Angular grid pruning method      GridPruning ... 4 (adaptive)
Weight generation scheme         WeightScheme... Becke
Basis function cutoff            BFCut       ... 1.0000e-10
Integration weight cutoff        WCut        ... 1.0000e-14
Angular grids for H and He will be reduced by one unit
Partially contracted basis set               ... off
Rotationally invariant grid construction     ... off

Total number of grid points                  ...    31901
Total number of batches                      ...      518
Average number of points per batch           ...       61
Average number of grid points per atom       ...      651

CP-SCF GRIDX
------------

General Integration Accuracy     IntAcc      ... 3.067
Radial Grid Type                 RadialGrid  ... OptM3 with GC (2021)
Angular Grid (max. ang.)         AngularGrid ... 1 (Lebedev-50)
Angular grid pruning method      GridPruning ... 4 (adaptive)
Weight generation scheme         WeightScheme... Becke
Basis function cutoff            BFCut       ... 1.0000e-10
Integration weight cutoff        WCut        ... 1.0000e-14
Angular grids for H and He will be reduced by one unit
Partially contracted basis set               ... on
Rotationally invariant grid construction     ... off

Total number of grid points                  ...    14955
Total number of batches                      ...      263
Average number of points per batch           ...       56
Average number of grid points per atom       ...      305

Memory available               ... 875.9 MB
Memory needed per perturbation ...  13.4 MB
Perturbations treated per batch... 3
Number of batches              ... 1
     CP-SCF ITERATION   0:   4.1648e-02 (   2.0 sec   0/  3 done)
     CP-SCF ITERATION   1:   1.7123e-03 (   1.9 sec   2/  3 done)
     CP-SCF ITERATION   2:   9.0181e-05 (   1.4 sec   3/  3 done)
                    *** THE CP-SCF HAS CONVERGED ***

Forming final perturbed densities           ... done
Transforming perturbed density to AO basis  ... done

 Raw HFC matrix (all values in MHz): 
 -----------------------------------
                 1.3332              -0.2660               0.0021
                -0.2659               0.5206              -0.0005
                 0.0021              -0.0005               0.3187

 A(FC)           0.7242               0.7242               0.7242
 A(SD)          -0.4055              -0.2830               0.6884
 A(ORB+DIA)     -0.0000               0.0001              -0.0002    A(PC) =  -0.0000
 A(ORB)         -0.0000               0.0001              -0.0002    A(PC) =  -0.0000
 A(DIA)          0.0000               0.0000               0.0000    A(PC) =   0.0000
             ----------           ----------           ----------
 A(Tot)          0.3187               0.4413               1.4125    A(iso)=    0.7242
 Orientation: 
  X          -0.0021538           -0.2857627            0.9582980
  Y          -0.0004652           -0.9582998           -0.2857643
  Z           0.9999976           -0.0010613            0.0019311

Notes:  (1) The A matrix conforms to the "SAI" spin Hamiltonian convention.
        (2) Tensor is right-handed.

 -----------------------------------------------------------
 Nucleus  47H : A:ISTP=    1 I=  0.5 P=533.5514 MHz/au**3
                Q:ISTP=    2 I=  1.0 Q=  0.0029 barn     
 -----------------------------------------------------------
 Solving for nuclear perturbation:
Forming RHS of the CP-SCF equations         ... 
Calc. nucleus orbit integrals (SHARK)       ... done

------------------------------------------------------------------------------
                           ORCA CP-SCF CALCULATION
------------------------------------------------------------------------------

Input orbitals are from        ... cc-pVDZ.gbw
Input Perturbation             ... cc-pVDZ.pin.tmp
Wavefunction output            ... cc-pVDZ.pout.tmp
Perturbation mode              ... Imaginary perturbation
Solver                         ... POPLE
Max. number of iterations      ... 64
Convergence tolerance          ... 1.000e-03
Integral handling              ... Direct
DFT GridXC                     ... 1
COSX GridX                     ... 1
COSX IntAccX                   ... 3.067
COSX Algorithm                 ... Auto
Number of perturbations        ... 3
Number of operators            ... 2
Orbital ranges used for CP-SCF:
 Operator 0:  Orbitals   0... 84  to  85...460
 Operator 1:  Orbitals   0... 83  to  84...460
Variables per perturbation     ... 63628
DFT calculation                         ... on
XC functional terms                     ... off
Hybrid DFT                              ... on
   Exchange mixing (SCF)                ...  0.200
   Exchange mixing (CP-SCF)             ...  0.200
   GGA exch. scaling(SCF)               ...  0.720
   GGA exch. scaling (CP-SCF)           ...  0.720
   GGA corr. scaling (SCF)              ...  0.810
   GGA corr. scaling (CP-SCF)           ...  0.810

CP-SCF GRID
-----------

General Integration Accuracy     IntAcc      ... 3.467
Radial Grid Type                 RadialGrid  ... OptM3 with GC (2021)
Angular Grid (max. ang.)         AngularGrid ... 1 (Lebedev-50)
Angular grid pruning method      GridPruning ... 4 (adaptive)
Weight generation scheme         WeightScheme... Becke
Basis function cutoff            BFCut       ... 1.0000e-10
Integration weight cutoff        WCut        ... 1.0000e-14
Angular grids for H and He will be reduced by one unit
Partially contracted basis set               ... off
Rotationally invariant grid construction     ... off

Total number of grid points                  ...    31901
Total number of batches                      ...      518
Average number of points per batch           ...       61
Average number of grid points per atom       ...      651

CP-SCF GRIDX
------------

General Integration Accuracy     IntAcc      ... 3.067
Radial Grid Type                 RadialGrid  ... OptM3 with GC (2021)
Angular Grid (max. ang.)         AngularGrid ... 1 (Lebedev-50)
Angular grid pruning method      GridPruning ... 4 (adaptive)
Weight generation scheme         WeightScheme... Becke
Basis function cutoff            BFCut       ... 1.0000e-10
Integration weight cutoff        WCut        ... 1.0000e-14
Angular grids for H and He will be reduced by one unit
Partially contracted basis set               ... on
Rotationally invariant grid construction     ... off

Total number of grid points                  ...    14955
Total number of batches                      ...      263
Average number of points per batch           ...       56
Average number of grid points per atom       ...      305

Memory available               ... 875.3 MB
Memory needed per perturbation ...  13.4 MB
Perturbations treated per batch... 3
Number of batches              ... 1
     CP-SCF ITERATION   0:   4.1612e-02 (   1.8 sec   0/  3 done)
     CP-SCF ITERATION   1:   1.6872e-03 (   2.1 sec   2/  3 done)
     CP-SCF ITERATION   2:   7.7525e-05 (   1.2 sec   3/  3 done)
                    *** THE CP-SCF HAS CONVERGED ***

Forming final perturbed densities           ... done
Transforming perturbed density to AO basis  ... done

 Raw HFC matrix (all values in MHz): 
 -----------------------------------
                 1.1854               0.0430               0.0020
                 0.0429               0.6134               0.0004
                 0.0020               0.0004               0.3754

 A(FC)           0.7248               0.7248               0.7248
 A(SD)          -0.3493              -0.1147               0.4640
 A(ORB+DIA)      0.0000               0.0001              -0.0001    A(PC) =  -0.0000
 A(ORB)         -0.0000               0.0001              -0.0002    A(PC) =  -0.0000
 A(DIA)          0.0000              -0.0000               0.0001    A(PC) =   0.0000
             ----------           ----------           ----------
 A(Tot)          0.3754               0.6102               1.1886    A(iso)=    0.7247
 Orientation: 
  X          -0.0023542           -0.0745548           -0.9972141
  Y          -0.0013597            0.9972162           -0.0745518
  Z           0.9999963            0.0011804           -0.0024490

Notes:  (1) The A matrix conforms to the "SAI" spin Hamiltonian convention.
        (2) Tensor is right-handed.

 -----------------------------------------------------------
 Nucleus  48H : A:ISTP=    1 I=  0.5 P=533.5514 MHz/au**3
                Q:ISTP=    2 I=  1.0 Q=  0.0029 barn     
 -----------------------------------------------------------
 Solving for nuclear perturbation:
Forming RHS of the CP-SCF equations         ... 
Calc. nucleus orbit integrals (SHARK)       ... done

------------------------------------------------------------------------------
                           ORCA CP-SCF CALCULATION
------------------------------------------------------------------------------

Input orbitals are from        ... cc-pVDZ.gbw
Input Perturbation             ... cc-pVDZ.pin.tmp
Wavefunction output            ... cc-pVDZ.pout.tmp
Perturbation mode              ... Imaginary perturbation
Solver                         ... POPLE
Max. number of iterations      ... 64
Convergence tolerance          ... 1.000e-03
Integral handling              ... Direct
DFT GridXC                     ... 1
COSX GridX                     ... 1
COSX IntAccX                   ... 3.067
COSX Algorithm                 ... Auto
Number of perturbations        ... 3
Number of operators            ... 2
Orbital ranges used for CP-SCF:
 Operator 0:  Orbitals   0... 84  to  85...460
 Operator 1:  Orbitals   0... 83  to  84...460
Variables per perturbation     ... 63628
DFT calculation                         ... on
XC functional terms                     ... off
Hybrid DFT                              ... on
   Exchange mixing (SCF)                ...  0.200
   Exchange mixing (CP-SCF)             ...  0.200
   GGA exch. scaling(SCF)               ...  0.720
   GGA exch. scaling (CP-SCF)           ...  0.720
   GGA corr. scaling (SCF)              ...  0.810
   GGA corr. scaling (CP-SCF)           ...  0.810

CP-SCF GRID
-----------

General Integration Accuracy     IntAcc      ... 3.467
Radial Grid Type                 RadialGrid  ... OptM3 with GC (2021)
Angular Grid (max. ang.)         AngularGrid ... 1 (Lebedev-50)
Angular grid pruning method      GridPruning ... 4 (adaptive)
Weight generation scheme         WeightScheme... Becke
Basis function cutoff            BFCut       ... 1.0000e-10
Integration weight cutoff        WCut        ... 1.0000e-14
Angular grids for H and He will be reduced by one unit
Partially contracted basis set               ... off
Rotationally invariant grid construction     ... off

Total number of grid points                  ...    31901
Total number of batches                      ...      518
Average number of points per batch           ...       61
Average number of grid points per atom       ...      651

CP-SCF GRIDX
------------

General Integration Accuracy     IntAcc      ... 3.067
Radial Grid Type                 RadialGrid  ... OptM3 with GC (2021)
Angular Grid (max. ang.)         AngularGrid ... 1 (Lebedev-50)
Angular grid pruning method      GridPruning ... 4 (adaptive)
Weight generation scheme         WeightScheme... Becke
Basis function cutoff            BFCut       ... 1.0000e-10
Integration weight cutoff        WCut        ... 1.0000e-14
Angular grids for H and He will be reduced by one unit
Partially contracted basis set               ... on
Rotationally invariant grid construction     ... off

Total number of grid points                  ...    14955
Total number of batches                      ...      263
Average number of points per batch           ...       56
Average number of grid points per atom       ...      305

Memory available               ... 874.8 MB
Memory needed per perturbation ...  13.4 MB
Perturbations treated per batch... 3
Number of batches              ... 1
     CP-SCF ITERATION   0:   4.5832e-02 (   1.9 sec   0/  3 done)
     CP-SCF ITERATION   1:   2.0699e-03 (   2.0 sec   0/  3 done)
     CP-SCF ITERATION   2:   1.4367e-04 (   2.0 sec   3/  3 done)
                    *** THE CP-SCF HAS CONVERGED ***

Forming final perturbed densities           ... done
Transforming perturbed density to AO basis  ... done

 Raw HFC matrix (all values in MHz): 
 -----------------------------------
                -1.0373              -0.5683               0.0020
                -0.5681              -1.4598              -0.0008
                 0.0020              -0.0008              -2.5206

 A(FC)          -1.6730              -1.6730              -1.6730
 A(SD)           1.0300              -0.1826              -0.8475
 A(ORB+DIA)      0.0006               0.0008              -0.0001    A(PC) =   0.0004
 A(ORB)          0.0005               0.0006              -0.0000    A(PC) =   0.0004
 A(DIA)          0.0001               0.0001              -0.0001    A(PC) =   0.0000
             ----------           ----------           ----------
 A(Tot)         -0.6423              -1.8548              -2.5206    A(iso)=   -1.6726
 Orientation: 
  X          -0.8211265            0.5707446            0.0013815
  Y           0.5707451            0.8211273            0.0000273
  Z          -0.0011188            0.0008109           -0.9999990

Notes:  (1) The A matrix conforms to the "SAI" spin Hamiltonian convention.
        (2) Tensor is right-handed.


--------------------------------------------------------------------------------
----------------------------------------------------------------------------
                           ORCA EULER ANGLE PROGRAM
----------------------------------------------------------------------------

Only g-tensor available        -->  using g-tensor as reference tensor

Reference tensor               ...  g

g-tensor ordering              ...  |g_min> --> |gx>
                                    |g_mid> --> |gy>
                                    |g_max> --> |gz>

A- and EFG-tensor ordering     ...  the axes |Ax>, |Qx>, |Ay>, etc. are assigned
                                    such that the Euler rotation is minimal. You
                                    can find the respective eigenvalues as Ax,
                                    EFGx, Ay, etc. in the tables below.
                                    The relation of |Ax>, |Ay>,  etc. to Amin, Amid, etc.
                                    (as printed in the ORCA EPR/NMR CALCULATION Output)
                                    is obtained in the detailed printout.

Euler rotation around          ...  z - y - z
   First rotation              -->  by alpha around z
   Second rotation             -->  by beta around y'
   Third rotation              -->  by gamma around z''
   Positive / Negative angle   -->  clockwise / counterclockwise rotation

Plot EFG-tensors                    (-)
Plot HFC-tensors                    (-)
Detailed Printout                   (-)

-------------------------------------------------------------------------
          Euler rotation of hyperfine tensor to g-tensor
-------------------------------------------------------------------------

-------------------------------------------------------------------
 Atom  |   Alpha    Beta    Gamma   |   Ax       Ay       Az 
       |          [degrees]         |           [MHz]         
-------------------------------------------------------------------
  9H      -90.6      2.7     90.6     -15.88    -6.96   -19.42
 10H      -89.9      5.9     89.9       4.06     4.65     9.44
 12H      -90.0     43.1     90.0     -45.61   -70.31   -17.08
 14H      -13.8     12.1     -4.0      56.30    65.73    57.57
 15H     -166.2     11.8   -176.0      56.03    65.47    57.31
 17H       30.2     28.9    -59.2      -3.14    -2.97     3.12
 18H      149.7     28.8   -120.5      -3.13    -2.97     3.12
 20H     -130.3     46.7    153.0      -0.10     2.21     0.03
 21H      -49.6     47.0     26.7      -0.10     2.21     0.03
 23H     -142.9     17.5   -174.4      20.09    20.66    23.73
 24H      -37.1     17.5     -5.6      20.09    20.66    23.73
 26H      -82.1     29.2     95.1      -0.96     0.95    -0.83
 27H      -97.8     29.2     84.7      -0.96     0.95    -0.83
 29H       67.9     30.4   -107.3      -0.10    -0.14     0.79
 30H      112.2     30.4    -72.8      -0.10    -0.14     0.79
 32H      -95.2     42.5     87.0      -0.12     0.37    -0.10
 33H      -84.7     42.5     92.9      -0.12     0.37    -0.10
 35H       89.9     44.7    -90.0       3.14     2.07     4.74
 36H       91.2     39.4    -89.9      -0.78    -0.80     0.75
 37H       89.8     37.7    -90.0      -0.13    -0.13     0.24
 44H       89.9     43.1    -90.0      -1.96    -0.49    -3.03
 45H       89.9     34.1    -89.9      -2.21    -1.90    -0.90
 46H       89.9     31.7    -90.0       0.32     1.41     0.44
 47H      -89.8     37.4     89.8       0.38     0.61     1.19
 48H       89.9     13.5    -90.0      -2.52    -0.64    -1.85
-------------------------------------------------------------------


Maximum memory used throughout the entire EPRNMR-calculation: 219.5 MB

Timings for individual modules:

Sum of individual times         ...     4976.736 sec (=  82.946 min)
GTO integral calculation        ...        4.733 sec (=   0.079 min)   0.1 %
Spin-Orbit-Coupling Matrices    ...        9.633 sec (=   0.161 min)   0.2 %
SCF iterations                  ...      100.236 sec (=   1.671 min)   2.0 %
EPR/NMR calculation             ...     4862.134 sec (=  81.036 min)  97.7 %
                             ****ORCA TERMINATED NORMALLY****
TOTAL RUN TIME: 0 days 1 hours 23 minutes 0 seconds 747 msec
