
                                 *****************
                                 * O   R   C   A *
                                 *****************

                                            #,                                       
                                            ###                                      
                                            ####                                     
                                            #####                                    
                                            ######                                   
                                           ########,                                 
                                     ,,################,,,,,                         
                               ,,#################################,,                 
                          ,,##########################################,,             
                       ,#########################################, ''#####,          
                    ,#############################################,,   '####,        
                  ,##################################################,,,,####,       
                ,###########''''           ''''###############################       
              ,#####''   ,,,,##########,,,,          '''####'''          '####       
            ,##' ,,,,###########################,,,                        '##       
           ' ,,###''''                  '''############,,,                           
         ,,##''                                '''############,,,,        ,,,,,,###''
      ,#''                                            '''#######################'''  
     '                                                          ''''####''''         
             ,#######,   #######,   ,#######,      ##                                
            ,#'     '#,  ##    ##  ,#'     '#,    #''#        ######   ,####,        
            ##       ##  ##   ,#'  ##            #'  '#       #        #'  '#        
            ##       ##  #######   ##           ,######,      #####,   #    #        
            '#,     ,#'  ##    ##  '#,     ,#' ,#      #,         ##   #,  ,#        
             '#######'   ##     ##  '#######'  #'      '#     #####' # '####'        



                  #######################################################
                  #                        -***-                        #
                  #          Department of theory and spectroscopy      #
                  #    Directorship and core code : Frank Neese         #
                  #        Max Planck Institute fuer Kohlenforschung    #
                  #                Kaiser Wilhelm Platz 1               #
                  #                 D-45470 Muelheim/Ruhr               #
                  #                      Germany                        #
                  #                                                     #
                  #                  All rights reserved                #
                  #                        -***-                        #
                  #######################################################


                         Program Version 5.0.4 -  RELEASE  -


 With contributions from (in alphabetic order):
   Daniel Aravena         : Magnetic Suceptibility
   Michael Atanasov       : Ab Initio Ligand Field Theory (pilot matlab implementation)
   Alexander A. Auer      : GIAO ZORA, VPT2 properties, NMR spectrum
   Ute Becker             : Parallelization
   Giovanni Bistoni       : ED, misc. LED, open-shell LED, HFLD
   Martin Brehm           : Molecular dynamics
   Dmytro Bykov           : SCF Hessian
   Vijay G. Chilkuri      : MRCI spin determinant printing, contributions to CSF-ICE
   Dipayan Datta          : RHF DLPNO-CCSD density
   Achintya Kumar Dutta   : EOM-CC, STEOM-CC
   Dmitry Ganyushin       : Spin-Orbit,Spin-Spin,Magnetic field MRCI
   Miquel Garcia          : C-PCM and meta-GGA Hessian, CC/C-PCM, Gaussian charge scheme
   Yang Guo               : DLPNO-NEVPT2, F12-NEVPT2, CIM, IAO-localization
   Andreas Hansen         : Spin unrestricted coupled pair/coupled cluster methods
   Benjamin Helmich-Paris : MC-RPA, TRAH-SCF, COSX integrals
   Lee Huntington         : MR-EOM, pCC
   Robert Izsak           : Overlap fitted RIJCOSX, COSX-SCS-MP3, EOM
   Marcus Kettner         : VPT2
   Christian Kollmar      : KDIIS, OOCD, Brueckner-CCSD(T), CCSD density, CASPT2, CASPT2-K
   Simone Kossmann        : Meta GGA functionals, TD-DFT gradient, OOMP2, MP2 Hessian
   Martin Krupicka        : Initial AUTO-CI
   Lucas Lang             : DCDCAS
   Marvin Lechner         : AUTO-CI (C++ implementation), FIC-MRCC
   Dagmar Lenk            : GEPOL surface, SMD
   Dimitrios Liakos       : Extrapolation schemes; Compound Job, initial MDCI parallelization
   Dimitrios Manganas     : Further ROCIS development; embedding schemes
   Dimitrios Pantazis     : SARC Basis sets
   Anastasios Papadopoulos: AUTO-CI, single reference methods and gradients
   Taras Petrenko         : DFT Hessian,TD-DFT gradient, ASA, ECA, R-Raman, ABS, FL, XAS/XES, NRVS
   Peter Pinski           : DLPNO-MP2, DLPNO-MP2 Gradient
   Christoph Reimann      : Effective Core Potentials
   Marius Retegan         : Local ZFS, SOC
   Christoph Riplinger    : Optimizer, TS searches, QM/MM, DLPNO-CCSD(T), (RO)-DLPNO pert. Triples
   Tobias Risthaus        : Range-separated hybrids, TD-DFT gradient, RPA, STAB
   Michael Roemelt        : Original ROCIS implementation
   Masaaki Saitow         : Open-shell DLPNO-CCSD energy and density
   Barbara Sandhoefer     : DKH picture change effects
   Avijit Sen             : IP-ROCIS
   Kantharuban Sivalingam : CASSCF convergence, NEVPT2, FIC-MRCI
   Bernardo de Souza      : ESD, SOC TD-DFT
   Georgi Stoychev        : AutoAux, RI-MP2 NMR, DLPNO-MP2 response
   Willem Van den Heuvel  : Paramagnetic NMR
   Boris Wezisla          : Elementary symmetry handling
   Frank Wennmohs         : Technical directorship


 We gratefully acknowledge several colleagues who have allowed us to
 interface, adapt or use parts of their codes:
   Stefan Grimme, W. Hujo, H. Kruse, P. Pracht,  : VdW corrections, initial TS optimization,
                  C. Bannwarth, S. Ehlert          DFT functionals, gCP, sTDA/sTD-DF
   Ed Valeev, F. Pavosevic, A. Kumar             : LibInt (2-el integral package), F12 methods
   Garnet Chan, S. Sharma, J. Yang, R. Olivares  : DMRG
   Ulf Ekstrom                                   : XCFun DFT Library
   Mihaly Kallay                                 : mrcc  (arbitrary order and MRCC methods)
   Jiri Pittner, Ondrej Demel                    : Mk-CCSD
   Frank Weinhold                                : gennbo (NPA and NBO analysis)
   Christopher J. Cramer and Donald G. Truhlar   : smd solvation model
   Lars Goerigk                                  : TD-DFT with DH, B97 family of functionals
   V. Asgeirsson, H. Jonsson                     : NEB implementation
   FAccTs GmbH                                   : IRC, NEB, NEB-TS, DLPNO-Multilevel, CI-OPT
                                                   MM, QMMM, 2- and 3-layer-ONIOM, Crystal-QMMM,
                                                   LR-CPCM, SF, NACMEs, symmetry and pop. for TD-DFT,
                                                   nearIR, NL-DFT gradient (VV10), updates on ESD,
                                                   ML-optimized integration grids
   S Lehtola, MJT Oliveira, MAL Marques          : LibXC Library
   Liviu Ungur et al                             : ANISO software


 Your calculation uses the libint2 library for the computation of 2-el integrals
 For citations please refer to: http://libint.valeyev.net

 Your ORCA version has been built with support for libXC version: 5.1.0
 For citations please refer to: https://tddft.org/programs/libxc/

 This ORCA versions uses:
   CBLAS   interface :  Fast vector & matrix operations
   LAPACKE interface :  Fast linear algebra routines
   SCALAPACK package :  Parallel linear algebra routines
   Shared memory     :  Shared parallel matrices
   BLAS/LAPACK       :  OpenBLAS 0.3.15  USE64BITINT DYNAMIC_ARCH NO_AFFINITY SkylakeX SINGLE_THREADED
        Core in use  :  SkylakeX
   Copyright (c) 2011-2014, The OpenBLAS Project




***************************************
The coordinates will be read from file: opt_cc-pVDZ.xyz
***************************************


================================================================================

----- Orbital basis set information -----
Your calculation utilizes the basis: cc-pVDZ 
       H, B-Ne : Obtained from the ccRepo (grant-hill.group.shef.ac.uk/ccrepo) Feb. 2017
                 T. H. Dunning, Jr., J. Chem. Phys. 90, 1007 (1989)
            He : Obtained from the ccRepo (grant-hill.group.shef.ac.uk/ccrepo) Feb. 2017
                 D. E. Woon, T. H. Dunning, Jr., J. Chem. Phys. 100, 2975 (1994)
  Li-Be, Na-Mg : Obtained from the ccRepo (grant-hill.group.shef.ac.uk/ccrepo) Feb. 2017
                 B. P. Prascher, D. E. Woon, K. A. Peterson, T. H. Dunning, Jr., A. K. Wilson, Theor. Chem. Acc. 128, 69 (2011)
         Al-Ar : Obtained from the ccRepo (grant-hill.group.shef.ac.uk/ccrepo) Feb. 2017
                 D. E. Woon, T. H. Dunning, Jr., J. Chem. Phys. 98, 1358 (1993)
            Ca : Obtained from the Peterson Research Group Website (tyr0.chem.wsu.edu/~kipeters) Feb. 2017
                 J. Koput, K. A. Peterson, J. Phys. Chem. 106, 9595 (2002)
         Sc-Zn : Obtained from the ccRepo (grant-hill.group.shef.ac.uk/ccrepo) Feb. 2017
                 N. B. Balabanov, K. A. Peterson, J. Chem. Phys. 123, 064107 (2005)
                 N. B. Balabanov, K. A. Peterson, J. Chem. Phys. 125, 074110 (2006)
         Ga-Kr : Obtained from the ccRepo (grant-hill.group.shef.ac.uk/ccrepo) Feb. 2017
                 A. K. Wilson, D. E. Woon, K. A. Peterson, T. H. Dunning, Jr., J. Chem. Phys. 110, 7667 (1999)

----- AuxJ basis set information -----
Your calculation utilizes the AutoAux generation procedure.
  G. L. Stoychev, A. A. Auer, F. Neese, J. Chem. Theory Comput. 13, 554 (2017)

----- AuxC basis set information -----
Your calculation utilizes the AutoAux generation procedure.
  G. L. Stoychev, A. A. Auer, F. Neese, J. Chem. Theory Comput. 13, 554 (2017)

----- AuxJK basis set information -----
Your calculation utilizes the AutoAux generation procedure.
  G. L. Stoychev, A. A. Auer, F. Neese, J. Chem. Theory Comput. 13, 554 (2017)

================================================================================
                                        WARNINGS
                       Please study these warnings very carefully!
================================================================================

WARNING: Old DensityContainer found on disk!
         Will remove this file - 
         If you want to keep old densities, please start your calculation with a different basename. 


WARNING: your system is open-shell and RHF/RKS was chosen
  ===> : WILL SWITCH to UHF/UKS


INFO   : the flag for use of the SHARK integral package has been found!

================================================================================
                                       INPUT FILE
================================================================================
NAME = cc-pVDZ.inp
|  1> ! B3LYP cc-pVDZ AUTOAUX
|  2> %pal nprocs 16 end
|  3> *XYZFile 0 2 opt_cc-pVDZ.xyz
|  4> %EPRNMR
|  5>         GTENSOR   TRUE
|  6>         NUCLEI    = ALL H {SHIFT, AISO, ADIP, AORB}
|  7>         ORI       CenterOfElCharge
|  8> END
|  9> 
| 10>                          ****END OF INPUT****
================================================================================

                       ****************************
                       * Single Point Calculation *
                       ****************************

---------------------------------
CARTESIAN COORDINATES (ANGSTROEM)
---------------------------------
  C      4.055706   -0.073371    0.001296
  C      2.833589   -0.006538   -0.001788
  C     -2.844896    0.019441   -0.004853
  C      1.413452    0.037492   -0.002626
  C      0.700746    1.295345   -0.002276
  C     -0.721463    1.219527   -0.003060
  C     -1.411403    0.007110   -0.004114
  C     -0.698475   -1.233396   -0.004423
  C      0.695638   -1.174525   -0.003765
  H     -1.303846    2.141153   -0.002844
  H      1.274517   -2.097895   -0.004026
  C      1.376832    2.533498   -0.001126
  H      2.469694    2.505632   -0.000730
  C      0.711306    3.877473   -0.000581
  H      0.041481    3.969632   -0.880471
  H      0.037166    3.966822    0.876259
  C      1.701380    5.049569    0.003759
  H      2.358533    4.962282    0.888281
  H      2.362997    4.965135   -0.877712
  C      1.013977    6.416298    0.004221
  H      0.370441    6.540985    0.892269
  H      0.374953    6.543854   -0.886675
  C     -1.466173   -2.538927   -0.005427
  H     -2.145358   -2.541094    0.867612
  H     -2.144360   -2.540372   -0.879243
  C     -0.640808   -3.828219   -0.005469
  H      0.023102   -3.849434   -0.889318
  H      0.022055   -3.850135    0.879151
  C     -1.515522   -5.087936   -0.006485
  H     -2.182461   -5.068245    0.875368
  H     -2.181282   -5.067647   -0.889215
  C     -0.702818   -6.385152   -0.006382
  H     -0.053167   -6.450604    0.883538
  H     -0.051837   -6.449911   -0.895380
  C     -4.060788    0.033376   -0.006353
  H     -5.133102    0.050110   -0.008357
  H      1.748939    7.237269    0.007413
  H     -1.357157   -7.271992   -0.007216
  C      8.290695   -0.349767    0.011455
  C      7.669171    0.904370    0.011023
  C      6.278250    1.001632    0.007668
  C      5.479338   -0.163533    0.004673
  C      6.117761   -1.424109    0.005135
  C      7.509230   -1.511054    0.008499
  H      9.380814   -0.421986    0.014080
  H      5.506311   -2.328412    0.002815
  H      8.273777    1.814555    0.013324
  H      7.988698   -2.492952    0.008817
  H      5.792544    1.979267    0.007327

----------------------------
CARTESIAN COORDINATES (A.U.)
----------------------------
  NO LB      ZA    FRAG     MASS         X           Y           Z
   0 C     6.0000    0    12.011    7.664174   -0.138651    0.002448
   1 C     6.0000    0    12.011    5.354707   -0.012356   -0.003380
   2 C     6.0000    0    12.011   -5.376074    0.036738   -0.009171
   3 C     6.0000    0    12.011    2.671037    0.070849   -0.004963
   4 C     6.0000    0    12.011    1.324219    2.447847   -0.004302
   5 C     6.0000    0    12.011   -1.363368    2.304572   -0.005782
   6 C     6.0000    0    12.011   -2.667164    0.013436   -0.007775
   7 C     6.0000    0    12.011   -1.319926   -2.330782   -0.008359
   8 C     6.0000    0    12.011    1.314564   -2.219531   -0.007116
   9 H     1.0000    0     1.008   -2.463912    4.046192   -0.005374
  10 H     1.0000    0     1.008    2.408488   -3.964447   -0.007608
  11 C     6.0000    0    12.011    2.601835    4.787618   -0.002128
  12 H     1.0000    0     1.008    4.667046    4.734957   -0.001379
  13 C     6.0000    0    12.011    1.344173    7.327362   -0.001099
  14 H     1.0000    0     1.008    0.078388    7.501517   -1.663850
  15 H     1.0000    0     1.008    0.070233    7.496208    1.655890
  16 C     6.0000    0    12.011    3.215143    9.542302    0.007104
  17 H     1.0000    0     1.008    4.456981    9.377354    1.678607
  18 H     1.0000    0     1.008    4.465418    9.382746   -1.658635
  19 C     6.0000    0    12.011    1.916139   12.125045    0.007976
  20 H     1.0000    0     1.008    0.700032   12.360670    1.686143
  21 H     1.0000    0     1.008    0.708559   12.366092   -1.675573
  22 C     6.0000    0    12.011   -2.770665   -4.797876   -0.010255
  23 H     1.0000    0     1.008   -4.054140   -4.801972    1.639549
  24 H     1.0000    0     1.008   -4.052252   -4.800607   -1.661529
  25 C     6.0000    0    12.011   -1.210952   -7.234285   -0.010334
  26 H     1.0000    0     1.008    0.043656   -7.274376   -1.680568
  27 H     1.0000    0     1.008    0.041678   -7.275701    1.661354
  28 C     6.0000    0    12.011   -2.863921   -9.614805   -0.012254
  29 H     1.0000    0     1.008   -4.124254   -9.577595    1.654207
  30 H     1.0000    0     1.008   -4.122026   -9.576465   -1.680373
  31 C     6.0000    0    12.011   -1.328134  -12.066189   -0.012061
  32 H     1.0000    0     1.008   -0.100471  -12.189876    1.669644
  33 H     1.0000    0     1.008   -0.097959  -12.188565   -1.692023
  34 C     6.0000    0    12.011   -7.673778    0.063072   -0.012006
  35 H     1.0000    0     1.008   -9.700157    0.094694   -0.015793
  36 H     1.0000    0     1.008    3.305016   13.676456    0.014009
  37 H     1.0000    0     1.008   -2.564654  -13.742073   -0.013636
  38 C     6.0000    0    12.011   15.667143   -0.660963    0.021646
  39 C     6.0000    0    12.011   14.492633    1.709011    0.020831
  40 C     6.0000    0    12.011   11.864172    1.892811    0.014490
  41 C     6.0000    0    12.011   10.354449   -0.309033    0.008831
  42 C     6.0000    0    12.011   11.560893   -2.691176    0.009703
  43 C     6.0000    0    12.011   14.190387   -2.855479    0.016061
  44 H     1.0000    0     1.008   17.727169   -0.797437    0.026607
  45 H     1.0000    0     1.008   10.405420   -4.400061    0.005319
  46 H     1.0000    0     1.008   15.635173    3.429012    0.025179
  47 H     1.0000    0     1.008   15.096452   -4.710996    0.016661
  48 H     1.0000    0     1.008   10.946322    3.740272    0.013845

--------------------------------
INTERNAL COORDINATES (ANGSTROEM)
--------------------------------
 C      0   0   0     0.000000000000     0.00000000     0.00000000
 C      1   0   0     1.223946882634     0.00000000     0.00000000
 C      2   1   0     5.678544956369   177.12974599     0.00000000
 C      2   1   3     1.420819652391   178.64119642     2.40392378
 C      4   2   1     1.445733200903   121.31193284   175.29474453
 C      5   4   2     1.424229211359   116.48454727   180.00587029
 C      6   5   4     1.394981358237   122.69406955     0.00000000
 C      7   6   5     1.430776833144   120.47119923     0.00000000
 C      8   7   6     1.395354882278   117.46819732     0.00000000
 H      6   5   4     1.090212565534   119.23758069   180.00056531
 H      9   8   7     1.089822483249   119.66635948   180.00313963
 C      5   4   2     1.410714650476   121.82744209     0.00000000
 H     12   5   4     1.093217878193   117.17580392     0.00000000
 C     12   5   4     1.499730835395   125.01928806   180.00536219
 H     14  12   5     1.109668689597   109.99904260   302.48324833
 H     14  12   5     1.109638383152   110.00159254    57.26646048
 C     14  12   5     1.534299692345   113.46776737   179.87478735
 H     17  14  12     1.105371845017   109.00023731   302.33912435
 H     17  14  12     1.105376392048   109.00370599    57.65376323
 C     17  14  12     1.529860039133   113.11167505   179.99729558
 H     20  17  14     1.103772944215   111.29271195    59.86753312
 H     20  17  14     1.103773973162   111.29261759   300.12738996
 C      8   7   6     1.514519816258   119.65667809   179.99366733
 H     23   8   7     1.106116755633   108.20463236   303.78193936
 H     23   8   7     1.106117060866   108.20618361    56.23545884
 C     23   8   7     1.530849620024   116.91684955   180.01015604
 H     26  23   8     1.105629626198   109.87290444   301.74450868
 H     26  23   8     1.105630659798   109.87166264    58.25385354
 C     26  23   8     1.533627145382   112.59881168   179.99868825
 H     29  26  23     1.105830406727   109.19803290   302.35156748
 H     29  26  23     1.105830635359   109.19833116    57.66089805
 C     29  26  23     1.530770276739   113.15786175   180.00630127
 H     32  29  26     1.103761091883   111.27160614    59.86044914
 H     32  29  26     1.103760446244   111.27156263   300.15000118
 C      3   2   1     1.215973371854   179.60349814   183.48963410
 H     35   3   7     1.072446082057   179.75981430   354.60669803
 H     20  17  14     1.101895561493   111.46358437   179.99725868
 H     32  29  26     1.102108751518   111.51186237   180.00515766
 C      1   2   4     4.244011006523   179.39600038     5.34981364
 C     39   1   2     1.399696285702    59.90388528   179.37415414
 C     40  39   1     1.394322052105   120.36200653     0.00000000
 C     41  40  39     1.412755895477   120.43717729     0.00000000
 C     42  41  40     1.413023230811   118.70278376     0.00000000
 C     43  42  41     1.394186303919   120.43550020     0.00000000
 H     39   1   2     1.092511412737   179.94386600   358.77075424
 H     43  42  41     1.091622877178   119.07494798   180.00101811
 H     40  39   1     1.092698880675   120.04305326   179.99871315
 H     44  43  42     1.092708960816   119.60203421   179.99986093
 H     41  40  39     1.091640834056   120.41892804   180.00011553

---------------------------
INTERNAL COORDINATES (A.U.)
---------------------------
 C      0   0   0     0.000000000000     0.00000000     0.00000000
 C      1   0   0     2.312924410645     0.00000000     0.00000000
 C      2   1   0    10.730894806698   177.12974599     0.00000000
 C      2   1   3     2.684960028712   178.64119642     2.40392378
 C      4   2   1     2.732039812425   121.31193284   175.29474453
 C      5   4   2     2.691403161400   116.48454727   180.00587029
 C      6   5   4     2.636132728994   122.69406955     0.00000000
 C      7   6   5     2.703776373401   120.47119923     0.00000000
 C      8   7   6     2.636838587135   117.46819732     0.00000000
 H      6   5   4     2.060203176619   119.23758069   180.00056531
 H      9   8   7     2.059466027931   119.66635948   180.00313963
 C      5   4   2     2.665864342510   121.82744209     0.00000000
 H     12   5   4     2.065882394491   117.17580392     0.00000000
 C     12   5   4     2.834080553494   125.01928806   180.00536219
 H     14  12   5     2.096969922726   109.99904260   302.48324833
 H     14  12   5     2.096912651845   110.00159254    57.26646048
 C     14  12   5     2.899406225891   113.46776737   179.87478735
 H     17  14  12     2.088850063229   109.00023731   302.33912435
 H     17  14  12     2.088858655873   109.00370599    57.65376323
 C     17  14  12     2.891016497192   113.11167505   179.99729558
 H     20  17  14     2.085828578599   111.29271195    59.86753312
 H     20  17  14     2.085830523026   111.29261759   300.12738996
 C      8   7   6     2.862027677125   119.65667809   179.99366733
 H     23   8   7     2.090257740288   108.20463236   303.78193936
 H     23   8   7     2.090258317095   108.20618361    56.23545884
 C     23   8   7     2.892886534063   116.91684955   180.01015604
 H     26  23   8     2.089337199064   109.87290444   301.74450868
 H     26  23   8     2.089339152284   109.87166264    58.25385354
 C     26  23   8     2.898135296320   112.59881168   179.99868825
 H     29  26  23     2.089716619276   109.19803290   302.35156748
 H     29  26  23     2.089717051328   109.19833116    57.66089805
 C     29  26  23     2.892736596984   113.15786175   180.00630127
 H     32  29  26     2.085806180937   111.27160614    59.86044914
 H     32  29  26     2.085804960856   111.27156263   300.15000118
 C      3   2   1     2.297856658945   179.60349814   183.48963410
 H     35   3   7     2.026629388484   179.75981430   354.60669803
 H     20  17  14     2.082280839404   111.46358437   179.99725868
 H     32  29  26     2.082683710166   111.51186237   180.00515766
 C      1   2   4     8.020018511675   179.39600038     5.34981364
 C     39   1   2     2.645042650643    59.90388528   179.37415414
 C     40  39   1     2.634886820966   120.36200653     0.00000000
 C     41  40  39     2.669721736534   120.43717729     0.00000000
 C     42  41  40     2.670226927101   118.70278376     0.00000000
 C     43  42  41     2.634630294071   120.43550020     0.00000000
 H     39   1   2     2.064547368256   179.94386600   358.77075424
 H     43  42  41     2.062868279390   119.07494798   180.00101811
 H     40  39   1     2.064901631318   120.04305326   179.99871315
 H     44  43  42     2.064920680024   119.60203421   179.99986093
 H     41  40  39     2.062902212972   120.41892804   180.00011553

---------------------
BASIS SET INFORMATION
---------------------
There are 2 groups of distinct atoms

 Group   1 Type C   : 17s4p1d contracted to 3s2p1d pattern {881/31/1}
 Group   2 Type H   : 4s1p contracted to 2s1p pattern {31/1}

Atom   0C    basis set group =>   1
Atom   1C    basis set group =>   1
Atom   2C    basis set group =>   1
Atom   3C    basis set group =>   1
Atom   4C    basis set group =>   1
Atom   5C    basis set group =>   1
Atom   6C    basis set group =>   1
Atom   7C    basis set group =>   1
Atom   8C    basis set group =>   1
Atom   9H    basis set group =>   2
Atom  10H    basis set group =>   2
Atom  11C    basis set group =>   1
Atom  12H    basis set group =>   2
Atom  13C    basis set group =>   1
Atom  14H    basis set group =>   2
Atom  15H    basis set group =>   2
Atom  16C    basis set group =>   1
Atom  17H    basis set group =>   2
Atom  18H    basis set group =>   2
Atom  19C    basis set group =>   1
Atom  20H    basis set group =>   2
Atom  21H    basis set group =>   2
Atom  22C    basis set group =>   1
Atom  23H    basis set group =>   2
Atom  24H    basis set group =>   2
Atom  25C    basis set group =>   1
Atom  26H    basis set group =>   2
Atom  27H    basis set group =>   2
Atom  28C    basis set group =>   1
Atom  29H    basis set group =>   2
Atom  30H    basis set group =>   2
Atom  31C    basis set group =>   1
Atom  32H    basis set group =>   2
Atom  33H    basis set group =>   2
Atom  34C    basis set group =>   1
Atom  35H    basis set group =>   2
Atom  36H    basis set group =>   2
Atom  37H    basis set group =>   2
Atom  38C    basis set group =>   1
Atom  39C    basis set group =>   1
Atom  40C    basis set group =>   1
Atom  41C    basis set group =>   1
Atom  42C    basis set group =>   1
Atom  43C    basis set group =>   1
Atom  44H    basis set group =>   2
Atom  45H    basis set group =>   2
Atom  46H    basis set group =>   2
Atom  47H    basis set group =>   2
Atom  48H    basis set group =>   2
---------------------------------
AUXILIARY/J BASIS SET INFORMATION
---------------------------------
There are 2 groups of distinct atoms

 Group   1 Type C   : 14s11p10d2f contracted to 14s11p10d2f pattern {11111111111111/11111111111/1111111111/11}
 Group   2 Type H   : 9s2p1d contracted to 9s2p1d pattern {111111111/11/1}

Atom   0C    basis set group =>   1
Atom   1C    basis set group =>   1
Atom   2C    basis set group =>   1
Atom   3C    basis set group =>   1
Atom   4C    basis set group =>   1
Atom   5C    basis set group =>   1
Atom   6C    basis set group =>   1
Atom   7C    basis set group =>   1
Atom   8C    basis set group =>   1
Atom   9H    basis set group =>   2
Atom  10H    basis set group =>   2
Atom  11C    basis set group =>   1
Atom  12H    basis set group =>   2
Atom  13C    basis set group =>   1
Atom  14H    basis set group =>   2
Atom  15H    basis set group =>   2
Atom  16C    basis set group =>   1
Atom  17H    basis set group =>   2
Atom  18H    basis set group =>   2
Atom  19C    basis set group =>   1
Atom  20H    basis set group =>   2
Atom  21H    basis set group =>   2
Atom  22C    basis set group =>   1
Atom  23H    basis set group =>   2
Atom  24H    basis set group =>   2
Atom  25C    basis set group =>   1
Atom  26H    basis set group =>   2
Atom  27H    basis set group =>   2
Atom  28C    basis set group =>   1
Atom  29H    basis set group =>   2
Atom  30H    basis set group =>   2
Atom  31C    basis set group =>   1
Atom  32H    basis set group =>   2
Atom  33H    basis set group =>   2
Atom  34C    basis set group =>   1
Atom  35H    basis set group =>   2
Atom  36H    basis set group =>   2
Atom  37H    basis set group =>   2
Atom  38C    basis set group =>   1
Atom  39C    basis set group =>   1
Atom  40C    basis set group =>   1
Atom  41C    basis set group =>   1
Atom  42C    basis set group =>   1
Atom  43C    basis set group =>   1
Atom  44H    basis set group =>   2
Atom  45H    basis set group =>   2
Atom  46H    basis set group =>   2
Atom  47H    basis set group =>   2
Atom  48H    basis set group =>   2
---------------------------------
AUXILIARY/C BASIS SET INFORMATION
---------------------------------
There are 2 groups of distinct atoms

 Group   1 Type C   : 14s11p10d2f contracted to 14s11p10d2f pattern {11111111111111/11111111111/1111111111/11}
 Group   2 Type H   : 9s2p1d contracted to 9s2p1d pattern {111111111/11/1}

Atom   0C    basis set group =>   1
Atom   1C    basis set group =>   1
Atom   2C    basis set group =>   1
Atom   3C    basis set group =>   1
Atom   4C    basis set group =>   1
Atom   5C    basis set group =>   1
Atom   6C    basis set group =>   1
Atom   7C    basis set group =>   1
Atom   8C    basis set group =>   1
Atom   9H    basis set group =>   2
Atom  10H    basis set group =>   2
Atom  11C    basis set group =>   1
Atom  12H    basis set group =>   2
Atom  13C    basis set group =>   1
Atom  14H    basis set group =>   2
Atom  15H    basis set group =>   2
Atom  16C    basis set group =>   1
Atom  17H    basis set group =>   2
Atom  18H    basis set group =>   2
Atom  19C    basis set group =>   1
Atom  20H    basis set group =>   2
Atom  21H    basis set group =>   2
Atom  22C    basis set group =>   1
Atom  23H    basis set group =>   2
Atom  24H    basis set group =>   2
Atom  25C    basis set group =>   1
Atom  26H    basis set group =>   2
Atom  27H    basis set group =>   2
Atom  28C    basis set group =>   1
Atom  29H    basis set group =>   2
Atom  30H    basis set group =>   2
Atom  31C    basis set group =>   1
Atom  32H    basis set group =>   2
Atom  33H    basis set group =>   2
Atom  34C    basis set group =>   1
Atom  35H    basis set group =>   2
Atom  36H    basis set group =>   2
Atom  37H    basis set group =>   2
Atom  38C    basis set group =>   1
Atom  39C    basis set group =>   1
Atom  40C    basis set group =>   1
Atom  41C    basis set group =>   1
Atom  42C    basis set group =>   1
Atom  43C    basis set group =>   1
Atom  44H    basis set group =>   2
Atom  45H    basis set group =>   2
Atom  46H    basis set group =>   2
Atom  47H    basis set group =>   2
Atom  48H    basis set group =>   2
----------------------------------
AUXILIARY/JK BASIS SET INFORMATION
----------------------------------
There are 2 groups of distinct atoms

 Group   1 Type C   : 14s11p10d2f contracted to 14s11p10d2f pattern {11111111111111/11111111111/1111111111/11}
 Group   2 Type H   : 9s2p1d contracted to 9s2p1d pattern {111111111/11/1}

Atom   0C    basis set group =>   1
Atom   1C    basis set group =>   1
Atom   2C    basis set group =>   1
Atom   3C    basis set group =>   1
Atom   4C    basis set group =>   1
Atom   5C    basis set group =>   1
Atom   6C    basis set group =>   1
Atom   7C    basis set group =>   1
Atom   8C    basis set group =>   1
Atom   9H    basis set group =>   2
Atom  10H    basis set group =>   2
Atom  11C    basis set group =>   1
Atom  12H    basis set group =>   2
Atom  13C    basis set group =>   1
Atom  14H    basis set group =>   2
Atom  15H    basis set group =>   2
Atom  16C    basis set group =>   1
Atom  17H    basis set group =>   2
Atom  18H    basis set group =>   2
Atom  19C    basis set group =>   1
Atom  20H    basis set group =>   2
Atom  21H    basis set group =>   2
Atom  22C    basis set group =>   1
Atom  23H    basis set group =>   2
Atom  24H    basis set group =>   2
Atom  25C    basis set group =>   1
Atom  26H    basis set group =>   2
Atom  27H    basis set group =>   2
Atom  28C    basis set group =>   1
Atom  29H    basis set group =>   2
Atom  30H    basis set group =>   2
Atom  31C    basis set group =>   1
Atom  32H    basis set group =>   2
Atom  33H    basis set group =>   2
Atom  34C    basis set group =>   1
Atom  35H    basis set group =>   2
Atom  36H    basis set group =>   2
Atom  37H    basis set group =>   2
Atom  38C    basis set group =>   1
Atom  39C    basis set group =>   1
Atom  40C    basis set group =>   1
Atom  41C    basis set group =>   1
Atom  42C    basis set group =>   1
Atom  43C    basis set group =>   1
Atom  44H    basis set group =>   2
Atom  45H    basis set group =>   2
Atom  46H    basis set group =>   2
Atom  47H    basis set group =>   2
Atom  48H    basis set group =>   2

Checking for AutoStart:
The File: cc-pVDZ.gbw exists
Trying to determine its content:
     ... Fine, the file contains calculation information
     ... Fine, the calculation information was read
     ... Fine, the file contains a basis set
     ... Fine, the basis set was read
     ... Fine, the file contains a geometry
     ... Fine, the geometry was read
     ... Fine, the file contains a set of orbitals
     ... Fine, the orbitals can be read
     => possible old guess file was deleted
     => GBW file was renamed to GES file
     => GES file is set as startup file
     => Guess is set to MORead
     ... now leaving AutoStart



           ************************************************************
           *        Program running with 16 parallel MPI-processes    *
           *              working on a common directory               *
           ************************************************************
------------------------------------------------------------------------------
                           ORCA GTO INTEGRAL CALCULATION
                           -- RI-GTO INTEGRALS CHOSEN --
------------------------------------------------------------------------------
------------------------------------------------------------------------------
                   ___                                                        
                  /   \      - P O W E R E D   B Y -                         
                 /     \                                                     
                 |  |  |   _    _      __       _____    __    __             
                 |  |  |  | |  | |    /  \     |  _  \  |  |  /  |          
                  \  \/   | |  | |   /    \    | | | |  |  | /  /          
                 / \  \   | |__| |  /  /\  \   | |_| |  |  |/  /          
                |  |  |   |  __  | /  /__\  \  |    /   |      \           
                |  |  |   | |  | | |   __   |  |    \   |  |\   \          
                \     /   | |  | | |  |  |  |  | |\  \  |  | \   \       
                 \___/    |_|  |_| |__|  |__|  |_| \__\ |__|  \__/        
                                                                              
                      - O R C A' S   B I G   F R I E N D -                    
                                      &                                       
                       - I N T E G R A L  F E E D E R -                       
                                                                              
 v1 FN, 2020, v2 2021                                                         
------------------------------------------------------------------------------


Reading SHARK input file cc-pVDZ.SHARKINP.tmp ... ok
----------------------
SHARK INTEGRAL PACKAGE
----------------------

Number of atoms                             ...     49
Number of basis functions                   ...    605
Number of shells                            ...    363
Maximum angular momentum                    ...      2
Integral batch strategy                     ... SHARK/LIBINT Hybrid
RI-J (if used) integral strategy            ... SPLIT-RIJ (Revised 2003 algorithm where possible)
Printlevel                                  ...      1
Contraction scheme used                     ... PARTIAL GENERAL contraction
Coulomb Range Separation                    ... NOT USED
Exchange Range Separation                   ... NOT USED
Finite Nucleus Model                        ... NOT USED
Auxiliary Coulomb fitting basis             ... AVAILABLE
   # of basis functions in Aux-J            ...   3164
   # of shells in Aux-J                     ...   1188
   Maximum angular momentum in Aux-J        ...      3
Auxiliary J/K fitting basis                 ... AVAILABLE
   # of basis functions in Aux-JK           ...   3164
   # of shells in Aux-JK                    ...   1188
   Maximum angular momentum in Aux-JK       ...      3
Auxiliary Correlation fitting basis         ... AVAILABLE
   # of basis functions in Aux-C            ...   3164
   # of shells in Aux-C                     ...   1188
   Maximum angular momentum in Aux-C        ...      3
Auxiliary 'external' fitting basis          ... NOT available
Integral threshold                          ...     1.000000e-10
Primitive cut-off                           ...     1.000000e-11
Primitive pair pre-selection threshold      ...     1.000000e-11

Calculating pre-screening integrals         ... done (  0.0 sec) Dimension = 363
Calculating pre-screening integrals (ORCA)  ... done (  0.1 sec) Dimension = 219
Organizing shell pair data                  ... done (  0.2 sec)
Shell pair information
Total number of shell pairs                 ...     66066
Shell pairs after pre-screening             ...     25393
Total number of primitive shell pairs       ...    106638
Primitive shell pairs kept                  ...     34205
          la=0 lb=0:  10957 shell pairs
          la=1 lb=0:   9002 shell pairs
          la=1 lb=1:   1599 shell pairs
          la=2 lb=0:   2700 shell pairs
          la=2 lb=1:    972 shell pairs
          la=2 lb=2:    163 shell pairs

Calculating one electron integrals          ... done (  0.0 sec)
Calculating RI/J V-Matrix + Cholesky decomp.... done (  0.6 sec)
Calculating RI/JK V-Matrix + Cholesky decomp... done (  0.6 sec)
Calculating RI/C V-Matrix + Cholesky decomp.... done (  0.6 sec)
Calculating Nuclear repulsion               ... done (  0.0 sec) ENN=   1724.111401027512 Eh

SHARK setup successfully completed in   2.4 seconds

Maximum memory used throughout the entire GTOINT-calculation: 41.5 MB


           ************************************************************
           *        Program running with 16 parallel MPI-processes    *
           *              working on a common directory               *
           ************************************************************
-------------------------------------------------------------------------------
                                 ORCA SCF
-------------------------------------------------------------------------------

------------
SCF SETTINGS
------------
Hamiltonian:
 Density Functional     Method          .... DFT(GTOs)
 Exchange Functional    Exchange        .... B88
   X-Alpha parameter    XAlpha          ....  0.666667
   Becke's b parameter  XBeta           ....  0.004200
 Correlation Functional Correlation     .... LYP
 LDA part of GGA corr.  LDAOpt          .... VWN-5
 Gradients option       PostSCFGGA      .... off
 Hybrid DFT is turned on
   Fraction HF Exchange ScalHFX         ....  0.200000
   Scaling of DF-GGA-X  ScalDFX         ....  0.720000
   Scaling of DF-GGA-C  ScalDFC         ....  0.810000
   Scaling of DF-LDA-C  ScalLDAC        ....  1.000000
   Perturbative correction              ....  0.000000
   Density functional embedding theory  .... OFF
   NL short-range parameter             ....  4.800000
 RI-approximation to the Coulomb term is turned on
   Number of AuxJ basis functions       .... 3164
   RIJ-COSX (HFX calculated with COS-X)).... on


General Settings:
 Integral files         IntName         .... cc-pVDZ
 Hartree-Fock type      HFTyp           .... UHF
 Total Charge           Charge          ....    0
 Multiplicity           Mult            ....    2
 Number of Electrons    NEL             ....  169
 Basis Dimension        Dim             ....  461
 Nuclear Repulsion      ENuc            ....   1724.1114010275 Eh

Convergence Acceleration:
 DIIS                   CNVDIIS         .... on
   Start iteration      DIISMaxIt       ....    12
   Startup error        DIISStart       ....  0.200000
   # of expansion vecs  DIISMaxEq       ....     5
   Bias factor          DIISBfac        ....   1.050
   Max. coefficient     DIISMaxC        ....  10.000
 Trust-Rad. Augm. Hess. CNVTRAH         .... auto
   Auto Start mean grad. ratio tolernc. ....  1.125000
   Auto Start start iteration           ....     1
   Auto Start num. interpolation iter.  ....    10
   Max. Number of Micro iterations      ....    16
   Max. Number of Macro iterations      .... Maxiter - #DIIS iter
   Number of Davidson start vectors     ....     2
   Converg. threshold I  (grad. norm)   ....   5.000e-05
   Converg. threshold II (energy diff.) ....   1.000e-06
   Grad. Scal. Fac. for Micro threshold ....   0.100
   Minimum threshold for Micro iter.    ....   0.010
   NR start threshold (gradient norm)   ....   0.001
   Initial trust radius                 ....   0.400
   Minimum AH scaling param. (alpha)    ....   1.000
   Maximum AH scaling param. (alpha)    .... 1000.000
   Orbital update algorithm             .... Taylor
   White noise on init. David. guess    .... on
   Maximum white noise                  ....   0.010
   Quad. conv. algorithm                .... NR
 SOSCF                  CNVSOSCF        .... off
 Level Shifting         CNVShift        .... on
   Level shift para.    LevelShift      ....    0.2500
   Turn off err/grad.   ShiftErr        ....    0.0010
 Zerner damping         CNVZerner       .... off
 Static damping         CNVDamp         .... on
   Fraction old density DampFac         ....    0.7000
   Max. Damping (<1)    DampMax         ....    0.9800
   Min. Damping (>=0)   DampMin         ....    0.0000
   Turn off err/grad.   DampErr         ....    0.1000
 Fernandez-Rico         CNVRico         .... off

SCF Procedure:
 Maximum # iterations   MaxIter         ....   125
 SCF integral mode      SCFMode         .... Direct
   Integral package                     .... SHARK and LIBINT hybrid scheme
 Reset frequency        DirectResetFreq ....    20
 Integral Threshold     Thresh          ....  1.000e-10 Eh
 Primitive CutOff       TCut            ....  1.000e-11 Eh

Convergence Tolerance:
 Convergence Check Mode ConvCheckMode   .... Total+1el-Energy
 Convergence forced     ConvForced      .... 0
 Energy Change          TolE            ....  1.000e-06 Eh
 1-El. energy change                    ....  1.000e-03 Eh
 DIIS Error             TolErr          ....  1.000e-06


Diagonalization of the overlap matrix:
Smallest eigenvalue                        ... 5.108e-05
Time for diagonalization                   ...    0.051 sec
Threshold for overlap eigenvalues          ... 1.000e-08
Number of eigenvalues below threshold      ... 0
Time for construction of square roots      ...    0.041 sec
Total time needed                          ...    0.093 sec

---------------------
INITIAL GUESS: MOREAD
---------------------
Guess MOs are being read from file: cc-pVDZ.ges
Input Geometry matches current geometry (good)
Input basis set matches current basis set (good)
MOs were renormalized
MOs were reorthogonalized (Cholesky)
                      ------------------
                      INITIAL GUESS DONE (   0.2 sec)
                      ------------------
-------------------
DFT GRID GENERATION
-------------------

General Integration Accuracy     IntAcc      ... 4.388
Radial Grid Type                 RadialGrid  ... OptM3 with GC (2021)
Angular Grid (max. ang.)         AngularGrid ... 4 (Lebedev-302)
Angular grid pruning method      GridPruning ... 4 (adaptive)
Weight generation scheme         WeightScheme... Becke
Basis function cutoff            BFCut       ... 1.0000e-10
Integration weight cutoff        WCut        ... 1.0000e-14
Angular grids for H and He will be reduced by one unit
Partially contracted basis set               ... off
Rotationally invariant grid construction     ... off

Total number of grid points                  ...   223179
Total number of batches                      ...     3505
Average number of points per batch           ...       63
Average number of grid points per atom       ...     4555
Time for grid setup =    1.380 sec

--------------------
COSX GRID GENERATION
--------------------

GRIDX 1
-------
General Integration Accuracy     IntAcc      ... 3.816
Radial Grid Type                 RadialGrid  ... OptM3 with GC (2021)
Angular Grid (max. ang.)         AngularGrid ... 1 (Lebedev-50)
Angular grid pruning method      GridPruning ... 4 (adaptive)
Weight generation scheme         WeightScheme... Becke
Basis function cutoff            BFCut       ... 1.0000e-10
Integration weight cutoff        WCut        ... 1.0000e-14
Angular grids for H and He will be reduced by one unit
Partially contracted basis set               ... on
Rotationally invariant grid construction     ... off

Total number of grid points                  ...    28434
Total number of batches                      ...      470
Average number of points per batch           ...       60
Average number of grid points per atom       ...      580
UseSFitting                                  ... on

GRIDX 2
-------
General Integration Accuracy     IntAcc      ... 4.020
Radial Grid Type                 RadialGrid  ... OptM3 with GC (2021)
Angular Grid (max. ang.)         AngularGrid ... 2 (Lebedev-110)
Angular grid pruning method      GridPruning ... 4 (adaptive)
Weight generation scheme         WeightScheme... Becke
Basis function cutoff            BFCut       ... 1.0000e-10
Integration weight cutoff        WCut        ... 1.0000e-14
Angular grids for H and He will be reduced by one unit
Partially contracted basis set               ... on
Rotationally invariant grid construction     ... off

Total number of grid points                  ...    60668
Total number of batches                      ...      975
Average number of points per batch           ...       62
Average number of grid points per atom       ...     1238
UseSFitting                                  ... on

GRIDX 3
-------
General Integration Accuracy     IntAcc      ... 4.338
Radial Grid Type                 RadialGrid  ... OptM3 with GC (2021)
Angular Grid (max. ang.)         AngularGrid ... 3 (Lebedev-194)
Angular grid pruning method      GridPruning ... 4 (adaptive)
Weight generation scheme         WeightScheme... Becke
Basis function cutoff            BFCut       ... 1.0000e-10
Integration weight cutoff        WCut        ... 1.0000e-14
Angular grids for H and He will be reduced by one unit
Partially contracted basis set               ... on
Rotationally invariant grid construction     ... off

Total number of grid points                  ...   132673
Total number of batches                      ...     2100
Average number of points per batch           ...       63
Average number of grid points per atom       ...     2708
UseSFitting                                  ... on

Time for X-Grid setup             =    2.576 sec

 re-compute Schwartz prescreening matrix in partically contracted basis (1) ...done (   0.122 sec)
--------------
SCF ITERATIONS
--------------
ITER       Energy         Delta-E        Max-DP      RMS-DP      [F,P]     Damp
               ***  Starting incremental Fock matrix formation  ***
  0   -928.9016010661   0.000000000000 0.00004315  0.00000057  0.0001351 0.7000
                 **** Energy Check signals convergence ****

               *****************************************************
               *                     SUCCESS                       *
               *           SCF CONVERGED AFTER   1 CYCLES          *
               *****************************************************

Old exchange energy                            =    -26.638042557 Eh
New exchange energy                            =    -26.638165097 Eh
Exchange energy change after final integration =     -0.000122540 Eh
Total energy after final integration           =   -928.901723755 Eh
Final COS-X integration done in                =     7.456 sec

----------------
TOTAL SCF ENERGY
----------------

Total Energy       :         -928.90172375 Eh          -25276.70095 eV

Components:
Nuclear Repulsion  :         1724.11140103 Eh           46915.45636 eV
Electronic Energy  :        -2653.01312478 Eh          -72192.15730 eV
One Electron Energy:        -4677.22282747 Eh         -127273.70361 eV
Two Electron Energy:         2024.20970269 Eh           55081.54630 eV
Max COSX asymmetry :            0.00000068 Eh               0.00002 eV

Virial components:
Potential Energy   :        -1851.36826022 Eh          -50378.29154 eV
Kinetic Energy     :          922.46653647 Eh           25101.59060 eV
Virial Ratio       :            2.00697607


DFT components:
N(Alpha)           :       85.000125857744 electrons
N(Beta)            :       84.000116235511 electrons
N(Total)           :      169.000242093256 electrons
E(X)               :     -105.658672071023 Eh       
E(C)               :       -6.575598162500 Eh       
E(XC)              :     -112.234270233524 Eh       
DFET-embed. en.    :        0.000000000000 Eh       

---------------
SCF CONVERGENCE
---------------

  Last Energy change         ...   -1.4818e-07  Tolerance :   1.0000e-06
  Last MAX-Density change    ...    1.4270e-05  Tolerance :   1.0000e-05
  Last RMS-Density change    ...    1.9372e-07  Tolerance :   1.0000e-06
  Last DIIS Error            ...    4.5050e-05  Tolerance :   1.0000e-06

             **** THE GBW FILE WAS UPDATED (cc-pVDZ.gbw) ****
             **** DENSITY cc-pVDZ.scfp WAS UPDATED ****
             **** ENERGY FILE WAS UPDATED (cc-pVDZ.en.tmp) ****
----------------------
UHF SPIN CONTAMINATION
----------------------

Warning: in a DFT calculation there is little theoretical justification to 
         calculate <S**2> as in Hartree-Fock theory. We will do it anyways
         but you should keep in mind that the values have only limited relevance

Expectation value of <S**2>     :     0.787450
Ideal value S*(S+1) for S=0.5   :     0.750000
Deviation                       :     0.037450

             **** THE GBW FILE WAS UPDATED (cc-pVDZ.gbw) ****
             **** DENSITY cc-pVDZ.scfp WAS UPDATED ****
----------------
ORBITAL ENERGIES
----------------
                 SPIN UP ORBITALS
  NO   OCC          E(Eh)            E(eV) 
   0   1.0000     -10.215555      -277.9794 
   1   1.0000     -10.214239      -277.9436 
   2   1.0000     -10.211651      -277.8732 
   3   1.0000     -10.202720      -277.6301 
   4   1.0000     -10.198351      -277.5112 
   5   1.0000     -10.196503      -277.4610 
   6   1.0000     -10.196246      -277.4540 
   7   1.0000     -10.195214      -277.4259 
   8   1.0000     -10.195122      -277.4234 
   9   1.0000     -10.194447      -277.4050 
  10   1.0000     -10.194267      -277.4001 
  11   1.0000     -10.192550      -277.3534 
  12   1.0000     -10.191547      -277.3261 
  13   1.0000     -10.189701      -277.2759 
  14   1.0000     -10.189361      -277.2666 
  15   1.0000     -10.188449      -277.2418 
  16   1.0000     -10.186600      -277.1915 
  17   1.0000     -10.186493      -277.1886 
  18   1.0000     -10.186054      -277.1766 
  19   1.0000     -10.184412      -277.1319 
  20   1.0000     -10.181581      -277.0549 
  21   1.0000     -10.181390      -277.0497 
  22   1.0000     -10.177404      -276.9412 
  23   1.0000     -10.175481      -276.8889 
  24   1.0000      -0.873880       -23.7795 
  25   1.0000      -0.862528       -23.4706 
  26   1.0000      -0.820071       -22.3153 
  27   1.0000      -0.799036       -21.7429 
  28   1.0000      -0.795889       -21.6572 
  29   1.0000      -0.778129       -21.1740 
  30   1.0000      -0.767729       -20.8910 
  31   1.0000      -0.750251       -20.4154 
  32   1.0000      -0.744621       -20.2622 
  33   1.0000      -0.730342       -19.8736 
  34   1.0000      -0.713547       -19.4166 
  35   1.0000      -0.697693       -18.9852 
  36   1.0000      -0.656845       -17.8737 
  37   1.0000      -0.643810       -17.5190 
  38   1.0000      -0.618023       -16.8173 
  39   1.0000      -0.612672       -16.6716 
  40   1.0000      -0.608157       -16.5488 
  41   1.0000      -0.592643       -16.1266 
  42   1.0000      -0.580356       -15.7923 
  43   1.0000      -0.562081       -15.2950 
  44   1.0000      -0.540769       -14.7151 
  45   1.0000      -0.529291       -14.4027 
  46   1.0000      -0.506695       -13.7879 
  47   1.0000      -0.491807       -13.3828 
  48   1.0000      -0.479888       -13.0584 
  49   1.0000      -0.476000       -12.9526 
  50   1.0000      -0.470380       -12.7997 
  51   1.0000      -0.462595       -12.5879 
  52   1.0000      -0.456864       -12.4319 
  53   1.0000      -0.435940       -11.8625 
  54   1.0000      -0.432315       -11.7639 
  55   1.0000      -0.429402       -11.6846 
  56   1.0000      -0.426178       -11.5969 
  57   1.0000      -0.423416       -11.5217 
  58   1.0000      -0.421615       -11.4727 
  59   1.0000      -0.411819       -11.2062 
  60   1.0000      -0.398668       -10.8483 
  61   1.0000      -0.397961       -10.8291 
  62   1.0000      -0.383907       -10.4466 
  63   1.0000      -0.378645       -10.3035 
  64   1.0000      -0.377066       -10.2605 
  65   1.0000      -0.365283        -9.9399 
  66   1.0000      -0.361003        -9.8234 
  67   1.0000      -0.356472        -9.7001 
  68   1.0000      -0.353680        -9.6241 
  69   1.0000      -0.349688        -9.5155 
  70   1.0000      -0.340411        -9.2630 
  71   1.0000      -0.332953        -9.0601 
  72   1.0000      -0.331455        -9.0193 
  73   1.0000      -0.331255        -9.0139 
  74   1.0000      -0.327521        -8.9123 
  75   1.0000      -0.324164        -8.8209 
  76   1.0000      -0.321285        -8.7426 
  77   1.0000      -0.299685        -8.1548 
  78   1.0000      -0.275112        -7.4862 
  79   1.0000      -0.273278        -7.4363 
  80   1.0000      -0.267427        -7.2771 
  81   1.0000      -0.258400        -7.0314 
  82   1.0000      -0.255329        -6.9478 
  83   1.0000      -0.216693        -5.8965 
  84   1.0000      -0.170806        -4.6479 
  85   0.0000      -0.056611        -1.5405 
  86   0.0000      -0.011568        -0.3148 
  87   0.0000      -0.009817        -0.2671 
  88   0.0000       0.013138         0.3575 
  89   0.0000       0.041638         1.1330 
  90   0.0000       0.050417         1.3719 
  91   0.0000       0.054898         1.4938 
  92   0.0000       0.062901         1.7116 
  93   0.0000       0.063923         1.7394 
  94   0.0000       0.070878         1.9287 
  95   0.0000       0.077975         2.1218 
  96   0.0000       0.084387         2.2963 
  97   0.0000       0.087180         2.3723 
  98   0.0000       0.092244         2.5101 
  99   0.0000       0.094138         2.5616 
 100   0.0000       0.095664         2.6032 
 101   0.0000       0.101674         2.7667 
 102   0.0000       0.103747         2.8231 
 103   0.0000       0.117460         3.1962 
 104   0.0000       0.119884         3.2622 
 105   0.0000       0.125711         3.4208 
 106   0.0000       0.130344         3.5469 
 107   0.0000       0.134028         3.6471 
 108   0.0000       0.144623         3.9354 
 109   0.0000       0.146264         3.9800 
 110   0.0000       0.149401         4.0654 
 111   0.0000       0.159564         4.3420 
 112   0.0000       0.159916         4.3515 
 113   0.0000       0.162484         4.4214 
 114   0.0000       0.165911         4.5147 
 115   0.0000       0.169257         4.6057 
 116   0.0000       0.170248         4.6327 
 117   0.0000       0.178892         4.8679 
 118   0.0000       0.184497         5.0204 
 119   0.0000       0.204617         5.5679 
 120   0.0000       0.212976         5.7954 
 121   0.0000       0.213699         5.8150 
 122   0.0000       0.216883         5.9017 
 123   0.0000       0.219097         5.9619 
 124   0.0000       0.226118         6.1530 
 125   0.0000       0.243822         6.6347 
 126   0.0000       0.247090         6.7237 
 127   0.0000       0.262877         7.1532 
 128   0.0000       0.279562         7.6073 
 129   0.0000       0.281165         7.6509 
 130   0.0000       0.291377         7.9288 
 131   0.0000       0.291534         7.9330 
 132   0.0000       0.310097         8.4382 
 133   0.0000       0.315585         8.5875 
 134   0.0000       0.320178         8.7125 
 135   0.0000       0.333054         9.0629 
 136   0.0000       0.342486         9.3195 
 137   0.0000       0.359438         9.7808 
 138   0.0000       0.367981        10.0133 
 139   0.0000       0.375348        10.2137 
 140   0.0000       0.397493        10.8163 
 141   0.0000       0.409820        11.1518 
 142   0.0000       0.411966        11.2102 
 143   0.0000       0.413064        11.2400 
 144   0.0000       0.419882        11.4256 
 145   0.0000       0.421373        11.4661 
 146   0.0000       0.430786        11.7223 
 147   0.0000       0.439624        11.9628 
 148   0.0000       0.440405        11.9840 
 149   0.0000       0.445110        12.1120 
 150   0.0000       0.450014        12.2455 
 151   0.0000       0.452354        12.3092 
 152   0.0000       0.464075        12.6281 
 153   0.0000       0.471634        12.8338 
 154   0.0000       0.473122        12.8743 
 155   0.0000       0.474387        12.9087 
 156   0.0000       0.477837        13.0026 
 157   0.0000       0.482360        13.1257 
 158   0.0000       0.489747        13.3267 
 159   0.0000       0.501224        13.6390 
 160   0.0000       0.503212        13.6931 
 161   0.0000       0.506056        13.7705 
 162   0.0000       0.508097        13.8260 
 163   0.0000       0.510336        13.8869 
 164   0.0000       0.514515        14.0007 
 165   0.0000       0.515375        14.0241 
 166   0.0000       0.515651        14.0316 
 167   0.0000       0.516845        14.0641 
 168   0.0000       0.525973        14.3124 
 169   0.0000       0.526184        14.3182 
 170   0.0000       0.536468        14.5980 
 171   0.0000       0.546175        14.8622 
 172   0.0000       0.558054        15.1854 
 173   0.0000       0.560511        15.2523 
 174   0.0000       0.573316        15.6007 
 175   0.0000       0.573669        15.6103 
 176   0.0000       0.587602        15.9895 
 177   0.0000       0.589042        16.0287 
 178   0.0000       0.593369        16.1464 
 179   0.0000       0.597602        16.2616 
 180   0.0000       0.606383        16.5005 
 181   0.0000       0.608725        16.5643 
 182   0.0000       0.618535        16.8312 
 183   0.0000       0.620629        16.8882 
 184   0.0000       0.626109        17.0373 
 185   0.0000       0.631641        17.1878 
 186   0.0000       0.638626        17.3779 
 187   0.0000       0.638682        17.3794 
 188   0.0000       0.642845        17.4927 
 189   0.0000       0.642993        17.4967 
 190   0.0000       0.648523        17.6472 
 191   0.0000       0.654489        17.8096 
 192   0.0000       0.655699        17.8425 
 193   0.0000       0.656186        17.8557 
 194   0.0000       0.660157        17.9638 
 195   0.0000       0.662185        18.0190 
 196   0.0000       0.665050        18.0969 
 197   0.0000       0.665759        18.1162 
 198   0.0000       0.671361        18.2686 
 199   0.0000       0.674526        18.3548 
 200   0.0000       0.678105        18.4522 
 201   0.0000       0.682692        18.5770 
 202   0.0000       0.683962        18.6115 
 203   0.0000       0.685833        18.6625 
 204   0.0000       0.689161        18.7530 
 205   0.0000       0.691860        18.8265 
 206   0.0000       0.694362        18.8945 
 207   0.0000       0.703629        19.1467 
 208   0.0000       0.707424        19.2500 
 209   0.0000       0.716288        19.4912 
 210   0.0000       0.719380        19.5753 
 211   0.0000       0.729243        19.8437 
 212   0.0000       0.729542        19.8518 
 213   0.0000       0.735562        20.0156 
 214   0.0000       0.739426        20.1208 
 215   0.0000       0.745318        20.2811 
 216   0.0000       0.750840        20.4314 
 217   0.0000       0.758920        20.6513 
 218   0.0000       0.767985        20.8979 
 219   0.0000       0.780353        21.2345 
 220   0.0000       0.784829        21.3563 
 221   0.0000       0.793861        21.6021 
 222   0.0000       0.812246        22.1023 
 223   0.0000       0.816907        22.2292 
 224   0.0000       0.833414        22.6784 
 225   0.0000       0.833830        22.6897 
 226   0.0000       0.841995        22.9119 
 227   0.0000       0.851133        23.1605 
 228   0.0000       0.866192        23.5703 
 229   0.0000       0.869650        23.6644 
 230   0.0000       0.882217        24.0063 
 231   0.0000       0.888854        24.1869 
 232   0.0000       0.900899        24.5147 
 233   0.0000       0.912458        24.8292 
 234   0.0000       0.915399        24.9093 
 235   0.0000       0.916541        24.9404 
 236   0.0000       0.928459        25.2647 
 237   0.0000       0.938484        25.5374 
 238   0.0000       0.953013        25.9328 
 239   0.0000       0.958882        26.0925 
 240   0.0000       0.974072        26.5059 
 241   0.0000       0.976170        26.5629 
 242   0.0000       0.981864        26.7179 
 243   0.0000       0.988708        26.9041 
 244   0.0000       0.994258        27.0551 
 245   0.0000       0.994831        27.0707 
 246   0.0000       1.002031        27.2666 
 247   0.0000       1.018650        27.7189 
 248   0.0000       1.026898        27.9433 
 249   0.0000       1.032539        28.0968 
 250   0.0000       1.039744        28.2929 
 251   0.0000       1.041368        28.3371 
 252   0.0000       1.041807        28.3490 
 253   0.0000       1.052047        28.6276 
 254   0.0000       1.059152        28.8210 
 255   0.0000       1.059432        28.8286 
 256   0.0000       1.071751        29.1638 
 257   0.0000       1.072348        29.1801 
 258   0.0000       1.092503        29.7285 
 259   0.0000       1.103140        30.0180 
 260   0.0000       1.116456        30.3803 
 261   0.0000       1.133508        30.8443 
 262   0.0000       1.152537        31.3621 
 263   0.0000       1.155095        31.4317 
 264   0.0000       1.171184        31.8695 
 265   0.0000       1.181640        32.1541 
 266   0.0000       1.196115        32.5480 
 267   0.0000       1.203360        32.7451 
 268   0.0000       1.207493        32.8576 
 269   0.0000       1.209959        32.9247 
 270   0.0000       1.217702        33.1354 
 271   0.0000       1.218163        33.1479 
 272   0.0000       1.222001        33.2524 
 273   0.0000       1.231919        33.5222 
 274   0.0000       1.234961        33.6050 
 275   0.0000       1.254859        34.1465 
 276   0.0000       1.279215        34.8092 
 277   0.0000       1.291543        35.1447 
 278   0.0000       1.295899        35.2632 
 279   0.0000       1.300416        35.3861 
 280   0.0000       1.315242        35.7896 
 281   0.0000       1.316088        35.8126 
 282   0.0000       1.332598        36.2618 
 283   0.0000       1.339827        36.4585 
 284   0.0000       1.340973        36.4897 
 285   0.0000       1.364706        37.1355 
 286   0.0000       1.372823        37.3564 
 287   0.0000       1.384542        37.6753 
 288   0.0000       1.389485        37.8098 
 289   0.0000       1.392392        37.8889 
 290   0.0000       1.408033        38.3145 
 291   0.0000       1.419567        38.6284 
 292   0.0000       1.421400        38.6783 
 293   0.0000       1.425169        38.7808 
 294   0.0000       1.426715        38.8229 
 295   0.0000       1.436868        39.0992 
 296   0.0000       1.446427        39.3593 
 297   0.0000       1.453769        39.5591 
 298   0.0000       1.468127        39.9498 
 299   0.0000       1.471594        40.0441 
 300   0.0000       1.479904        40.2702 
 301   0.0000       1.482742        40.3475 
 302   0.0000       1.483875        40.3783 
 303   0.0000       1.494102        40.6566 
 304   0.0000       1.500250        40.8239 
 305   0.0000       1.502521        40.8857 
 306   0.0000       1.511484        41.1296 
 307   0.0000       1.523772        41.4639 
 308   0.0000       1.529187        41.6113 
 309   0.0000       1.543849        42.0103 
 310   0.0000       1.551816        42.2270 
 311   0.0000       1.576994        42.9122 
 312   0.0000       1.583884        43.0997 
 313   0.0000       1.584618        43.1196 
 314   0.0000       1.591955        43.3193 
 315   0.0000       1.598316        43.4924 
 316   0.0000       1.601629        43.5825 
 317   0.0000       1.604847        43.6701 
 318   0.0000       1.612169        43.8693 
 319   0.0000       1.616203        43.9791 
 320   0.0000       1.623609        44.1806 
 321   0.0000       1.627377        44.2832 
 322   0.0000       1.630657        44.3724 
 323   0.0000       1.633354        44.4458 
 324   0.0000       1.638022        44.5728 
 325   0.0000       1.640195        44.6320 
 326   0.0000       1.642490        44.6944 
 327   0.0000       1.646147        44.7939 
 328   0.0000       1.648335        44.8535 
 329   0.0000       1.652164        44.9577 
 330   0.0000       1.660196        45.1762 
 331   0.0000       1.670708        45.4623 
 332   0.0000       1.671433        45.4820 
 333   0.0000       1.672955        45.5234 
 334   0.0000       1.682567        45.7850 
 335   0.0000       1.685556        45.8663 
 336   0.0000       1.688769        45.9537 
 337   0.0000       1.688794        45.9544 
 338   0.0000       1.695880        46.1472 
 339   0.0000       1.699295        46.2402 
 340   0.0000       1.703193        46.3462 
 341   0.0000       1.706773        46.4437 
 342   0.0000       1.709601        46.5206 
 343   0.0000       1.718221        46.7552 
 344   0.0000       1.719969        46.8027 
 345   0.0000       1.742161        47.4066 
 346   0.0000       1.742633        47.4195 
 347   0.0000       1.748919        47.5905 
 348   0.0000       1.750230        47.6262 
 349   0.0000       1.761800        47.9410 
 350   0.0000       1.768498        48.1233 
 351   0.0000       1.771240        48.1979 
 352   0.0000       1.781660        48.4814 
 353   0.0000       1.784651        48.5628 
 354   0.0000       1.789862        48.7046 
 355   0.0000       1.794299        48.8254 
 356   0.0000       1.800128        48.9840 
 357   0.0000       1.803607        49.0786 
 358   0.0000       1.808773        49.2192 
 359   0.0000       1.813220        49.3402 
 360   0.0000       1.826604        49.7044 
 361   0.0000       1.830321        49.8056 
 362   0.0000       1.836916        49.9850 
 363   0.0000       1.843484        50.1637 
 364   0.0000       1.847888        50.2836 
 365   0.0000       1.852658        50.4134 
 366   0.0000       1.854057        50.4515 
 367   0.0000       1.859114        50.5891 
 368   0.0000       1.877457        51.0882 
 369   0.0000       1.883019        51.2396 
 370   0.0000       1.892297        51.4920 
 371   0.0000       1.903624        51.8002 
 372   0.0000       1.921951        52.2989 
 373   0.0000       1.922740        52.3204 
 374   0.0000       1.927232        52.4427 
 375   0.0000       1.934710        52.6461 
 376   0.0000       1.943918        52.8967 
 377   0.0000       1.953169        53.1484 
 378   0.0000       1.965639        53.4878 
 379   0.0000       1.973518        53.7022 
 380   0.0000       1.985560        54.0298 
 381   0.0000       1.989650        54.1411 
 382   0.0000       1.994215        54.2653 
 383   0.0000       1.994890        54.2837 
 384   0.0000       2.015868        54.8546 
 385   0.0000       2.027929        55.1828 
 386   0.0000       2.037427        55.4412 
 387   0.0000       2.067958        56.2720 
 388   0.0000       2.071498        56.3683 
 389   0.0000       2.075064        56.4654 
 390   0.0000       2.075602        56.4800 
 391   0.0000       2.089066        56.8464 
 392   0.0000       2.101720        57.1907 
 393   0.0000       2.120923        57.7133 
 394   0.0000       2.126101        57.8541 
 395   0.0000       2.149330        58.4862 
 396   0.0000       2.155563        58.6559 
 397   0.0000       2.156103        58.6706 
 398   0.0000       2.189390        59.5763 
 399   0.0000       2.196778        59.7774 
 400   0.0000       2.198791        59.8321 
 401   0.0000       2.203890        59.9709 
 402   0.0000       2.210494        60.1506 
 403   0.0000       2.217800        60.3494 
 404   0.0000       2.225287        60.5531 
 405   0.0000       2.230105        60.6842 
 406   0.0000       2.237550        60.8868 
 407   0.0000       2.244632        61.0795 
 408   0.0000       2.270620        61.7867 
 409   0.0000       2.283097        62.1262 
 410   0.0000       2.292533        62.3830 
 411   0.0000       2.298116        62.5349 
 412   0.0000       2.302656        62.6585 
 413   0.0000       2.321572        63.1732 
 414   0.0000       2.325263        63.2736 
 415   0.0000       2.336071        63.5677 
 416   0.0000       2.352728        64.0210 
 417   0.0000       2.369315        64.4723 
 418   0.0000       2.371177        64.5230 
 419   0.0000       2.406948        65.4964 
 420   0.0000       2.409656        65.5701 
 421   0.0000       2.412283        65.6415 
 422   0.0000       2.412729        65.6537 
 423   0.0000       2.413348        65.6705 
 424   0.0000       2.417943        65.7956 
 425   0.0000       2.420464        65.8642 
 426   0.0000       2.429265        66.1037 
 427   0.0000       2.443874        66.5012 
 428   0.0000       2.451770        66.7161 
 429   0.0000       2.453772        66.7705 
 430   0.0000       2.482941        67.5643 
 431   0.0000       2.508135        68.2498 
 432   0.0000       2.529100        68.8203 
 433   0.0000       2.540339        69.1261 
 434   0.0000       2.540570        69.1324 
 435   0.0000       2.556771        69.5733 
 436   0.0000       2.581861        70.2560 
 437   0.0000       2.600850        70.7727 
 438   0.0000       2.615776        71.1789 
 439   0.0000       2.628104        71.5143 
 440   0.0000       2.635371        71.7121 
 441   0.0000       2.642092        71.8950 
 442   0.0000       2.665471        72.5311 
 443   0.0000       2.680637        72.9438 
 444   0.0000       2.705543        73.6216 
 445   0.0000       2.714192        73.8569 
 446   0.0000       2.720706        74.0342 
 447   0.0000       2.723078        74.0987 
 448   0.0000       2.732726        74.3612 
 449   0.0000       2.776244        75.5454 
 450   0.0000       2.818918        76.7067 
 451   0.0000       2.847745        77.4911 
 452   0.0000       2.860972        77.8510 
 453   0.0000       2.877029        78.2880 
 454   0.0000       2.907203        79.1090 
 455   0.0000       2.945196        80.1429 
 456   0.0000       3.088566        84.0442 
 457   0.0000       3.120921        84.9246 
 458   0.0000       3.193229        86.8922 
 459   0.0000       3.394799        92.3772 
 460   0.0000       3.584524        97.5399 

                 SPIN DOWN ORBITALS
  NO   OCC          E(Eh)            E(eV) 
   0   1.0000     -10.215908      -277.9890 
   1   1.0000     -10.213285      -277.9176 
   2   1.0000     -10.210875      -277.8520 
   3   1.0000     -10.200808      -277.5781 
   4   1.0000     -10.199315      -277.5375 
   5   1.0000     -10.196125      -277.4507 
   6   1.0000     -10.195871      -277.4438 
   7   1.0000     -10.194916      -277.4178 
   8   1.0000     -10.194609      -277.4094 
   9   1.0000     -10.194263      -277.4000 
  10   1.0000     -10.192134      -277.3421 
  11   1.0000     -10.191290      -277.3191 
  12   1.0000     -10.191156      -277.3155 
  13   1.0000     -10.189121      -277.2601 
  14   1.0000     -10.188762      -277.2503 
  15   1.0000     -10.186752      -277.1956 
  16   1.0000     -10.186695      -277.1941 
  17   1.0000     -10.186682      -277.1937 
  18   1.0000     -10.184374      -277.1309 
  19   1.0000     -10.182705      -277.0855 
  20   1.0000     -10.181579      -277.0548 
  21   1.0000     -10.181389      -277.0497 
  22   1.0000     -10.177412      -276.9415 
  23   1.0000     -10.175483      -276.8890 
  24   1.0000      -0.870573       -23.6895 
  25   1.0000      -0.862065       -23.4580 
  26   1.0000      -0.815183       -22.1823 
  27   1.0000      -0.796343       -21.6696 
  28   1.0000      -0.794688       -21.6246 
  29   1.0000      -0.777281       -21.1509 
  30   1.0000      -0.765716       -20.8362 
  31   1.0000      -0.749894       -20.4057 
  32   1.0000      -0.743504       -20.2318 
  33   1.0000      -0.726473       -19.7683 
  34   1.0000      -0.712761       -19.3952 
  35   1.0000      -0.695505       -18.9256 
  36   1.0000      -0.653824       -17.7915 
  37   1.0000      -0.642589       -17.4857 
  38   1.0000      -0.614386       -16.7183 
  39   1.0000      -0.609824       -16.5941 
  40   1.0000      -0.607922       -16.5424 
  41   1.0000      -0.591746       -16.1022 
  42   1.0000      -0.578751       -15.7486 
  43   1.0000      -0.559645       -15.2287 
  44   1.0000      -0.540226       -14.7003 
  45   1.0000      -0.528004       -14.3677 
  46   1.0000      -0.503507       -13.7011 
  47   1.0000      -0.490996       -13.3607 
  48   1.0000      -0.478650       -13.0247 
  49   1.0000      -0.475040       -12.9265 
  50   1.0000      -0.469537       -12.7767 
  51   1.0000      -0.459202       -12.4955 
  52   1.0000      -0.456656       -12.4262 
  53   1.0000      -0.435338       -11.8461 
  54   1.0000      -0.430482       -11.7140 
  55   1.0000      -0.428162       -11.6509 
  56   1.0000      -0.425015       -11.5652 
  57   1.0000      -0.423310       -11.5189 
  58   1.0000      -0.419002       -11.4016 
  59   1.0000      -0.411342       -11.1932 
  60   1.0000      -0.396889       -10.7999 
  61   1.0000      -0.391133       -10.6433 
  62   1.0000      -0.381276       -10.3750 
  63   1.0000      -0.376365       -10.2414 
  64   1.0000      -0.374440       -10.1890 
  65   1.0000      -0.364161        -9.9093 
  66   1.0000      -0.360558        -9.8113 
  67   1.0000      -0.355631        -9.6772 
  68   1.0000      -0.350706        -9.5432 
  69   1.0000      -0.349520        -9.5109 
  70   1.0000      -0.338191        -9.2027 
  71   1.0000      -0.332428        -9.0458 
  72   1.0000      -0.329868        -8.9762 
  73   1.0000      -0.329001        -8.9526 
  74   1.0000      -0.327178        -8.9030 
  75   1.0000      -0.323401        -8.8002 
  76   1.0000      -0.320638        -8.7250 
  77   1.0000      -0.296874        -8.0783 
  78   1.0000      -0.275081        -7.4853 
  79   1.0000      -0.267002        -7.2655 
  80   1.0000      -0.259936        -7.0732 
  81   1.0000      -0.257392        -7.0040 
  82   1.0000      -0.250530        -6.8173 
  83   1.0000      -0.210242        -5.7210 
  84   0.0000      -0.085866        -2.3365 
  85   0.0000      -0.048576        -1.3218 
  86   0.0000      -0.008949        -0.2435 
  87   0.0000      -0.006430        -0.1750 
  88   0.0000       0.029352         0.7987 
  89   0.0000       0.041975         1.1422 
  90   0.0000       0.050708         1.3798 
  91   0.0000       0.055344         1.5060 
  92   0.0000       0.063053         1.7158 
  93   0.0000       0.064310         1.7500 
  94   0.0000       0.075505         2.0546 
  95   0.0000       0.078847         2.1455 
  96   0.0000       0.084477         2.2987 
  97   0.0000       0.087135         2.3711 
  98   0.0000       0.092531         2.5179 
  99   0.0000       0.094578         2.5736 
 100   0.0000       0.095809         2.6071 
 101   0.0000       0.102420         2.7870 
 102   0.0000       0.103902         2.8273 
 103   0.0000       0.117589         3.1998 
 104   0.0000       0.121681         3.3111 
 105   0.0000       0.126275         3.4361 
 106   0.0000       0.130524         3.5517 
 107   0.0000       0.134712         3.6657 
 108   0.0000       0.144761         3.9392 
 109   0.0000       0.146449         3.9851 
 110   0.0000       0.150523         4.0959 
 111   0.0000       0.160279         4.3614 
 112   0.0000       0.160456         4.3662 
 113   0.0000       0.162709         4.4275 
 114   0.0000       0.167196         4.5496 
 115   0.0000       0.170990         4.6529 
 116   0.0000       0.172394         4.6911 
 117   0.0000       0.180564         4.9134 
 118   0.0000       0.186294         5.0693 
 119   0.0000       0.205887         5.6025 
 120   0.0000       0.215023         5.8511 
 121   0.0000       0.218011         5.9324 
 122   0.0000       0.219978         5.9859 
 123   0.0000       0.220087         5.9889 
 124   0.0000       0.227272         6.1844 
 125   0.0000       0.245055         6.6683 
 126   0.0000       0.249143         6.7795 
 127   0.0000       0.264744         7.2040 
 128   0.0000       0.279856         7.6153 
 129   0.0000       0.282817         7.6958 
 130   0.0000       0.291981         7.9452 
 131   0.0000       0.292813         7.9679 
 132   0.0000       0.311379         8.4731 
 133   0.0000       0.316073         8.6008 
 134   0.0000       0.321133         8.7385 
 135   0.0000       0.334636         9.1059 
 136   0.0000       0.343482         9.3466 
 137   0.0000       0.360188         9.8012 
 138   0.0000       0.368952        10.0397 
 139   0.0000       0.376231        10.2378 
 140   0.0000       0.398449        10.8423 
 141   0.0000       0.410384        11.1671 
 142   0.0000       0.412387        11.2216 
 143   0.0000       0.413561        11.2536 
 144   0.0000       0.420238        11.4353 
 145   0.0000       0.422740        11.5033 
 146   0.0000       0.432406        11.7664 
 147   0.0000       0.442814        12.0496 
 148   0.0000       0.447207        12.1691 
 149   0.0000       0.449091        12.2204 
 150   0.0000       0.451030        12.2732 
 151   0.0000       0.458828        12.4854 
 152   0.0000       0.468600        12.7513 
 153   0.0000       0.473128        12.8745 
 154   0.0000       0.474057        12.8998 
 155   0.0000       0.475303        12.9337 
 156   0.0000       0.480989        13.0884 
 157   0.0000       0.483604        13.1595 
 158   0.0000       0.491700        13.3798 
 159   0.0000       0.502342        13.6694 
 160   0.0000       0.504140        13.7184 
 161   0.0000       0.507050        13.7975 
 162   0.0000       0.508782        13.8447 
 163   0.0000       0.510968        13.9041 
 164   0.0000       0.515822        14.0362 
 165   0.0000       0.516207        14.0467 
 166   0.0000       0.516521        14.0553 
 167   0.0000       0.521075        14.1792 
 168   0.0000       0.527424        14.3519 
 169   0.0000       0.531615        14.4660 
 170   0.0000       0.539721        14.6866 
 171   0.0000       0.547460        14.8972 
 172   0.0000       0.561774        15.2866 
 173   0.0000       0.568948        15.4819 
 174   0.0000       0.574127        15.6228 
 175   0.0000       0.576583        15.6896 
 176   0.0000       0.588483        16.0134 
 177   0.0000       0.591677        16.1003 
 178   0.0000       0.594193        16.1688 
 179   0.0000       0.599230        16.3059 
 180   0.0000       0.606806        16.5120 
 181   0.0000       0.609888        16.5959 
 182   0.0000       0.618872        16.8404 
 183   0.0000       0.625165        17.0116 
 184   0.0000       0.626628        17.0514 
 185   0.0000       0.632033        17.1985 
 186   0.0000       0.638781        17.3821 
 187   0.0000       0.639139        17.3919 
 188   0.0000       0.643042        17.4981 
 189   0.0000       0.645157        17.5556 
 190   0.0000       0.649024        17.6608 
[...]
  Y           0.9688545           -0.2476269            0.0013692
  Z           0.0015773            0.0006419           -0.9999986

Notes:  (1) The A matrix conforms to the "SAI" spin Hamiltonian convention.
        (2) Tensor is right-handed.

 -----------------------------------------------------------
 Nucleus  46H : A:ISTP=    1 I=  0.5 P=533.5514 MHz/au**3
                Q:ISTP=    2 I=  1.0 Q=  0.0029 barn     
 -----------------------------------------------------------
 Solving for nuclear perturbation:
Forming RHS of the CP-SCF equations         ... 
Calc. nucleus orbit integrals (SHARK)       ... done

------------------------------------------------------------------------------
                           ORCA CP-SCF CALCULATION
------------------------------------------------------------------------------

Input orbitals are from        ... cc-pVDZ.gbw
Input Perturbation             ... cc-pVDZ.pin.tmp
Wavefunction output            ... cc-pVDZ.pout.tmp
Perturbation mode              ... Imaginary perturbation
Solver                         ... POPLE
Max. number of iterations      ... 64
Convergence tolerance          ... 1.000e-03
Integral handling              ... Direct
DFT GridXC                     ... 1
COSX GridX                     ... 1
COSX IntAccX                   ... 3.067
COSX Algorithm                 ... Auto
Number of perturbations        ... 3
Number of operators            ... 2
Orbital ranges used for CP-SCF:
 Operator 0:  Orbitals   0... 84  to  85...460
 Operator 1:  Orbitals   0... 83  to  84...460
Variables per perturbation     ... 63628
DFT calculation                         ... on
XC functional terms                     ... off
Hybrid DFT                              ... on
   Exchange mixing (SCF)                ...  0.200
   Exchange mixing (CP-SCF)             ...  0.200
   GGA exch. scaling(SCF)               ...  0.720
   GGA exch. scaling (CP-SCF)           ...  0.720
   GGA corr. scaling (SCF)              ...  0.810
   GGA corr. scaling (CP-SCF)           ...  0.810

CP-SCF GRID
-----------

General Integration Accuracy     IntAcc      ... 3.467
Radial Grid Type                 RadialGrid  ... OptM3 with GC (2021)
Angular Grid (max. ang.)         AngularGrid ... 1 (Lebedev-50)
Angular grid pruning method      GridPruning ... 4 (adaptive)
Weight generation scheme         WeightScheme... Becke
Basis function cutoff            BFCut       ... 1.0000e-10
Integration weight cutoff        WCut        ... 1.0000e-14
Angular grids for H and He will be reduced by one unit
Partially contracted basis set               ... off
Rotationally invariant grid construction     ... off

Total number of grid points                  ...    31902
Total number of batches                      ...      518
Average number of points per batch           ...       61
Average number of grid points per atom       ...      651

CP-SCF GRIDX
------------

General Integration Accuracy     IntAcc      ... 3.067
Radial Grid Type                 RadialGrid  ... OptM3 with GC (2021)
Angular Grid (max. ang.)         AngularGrid ... 1 (Lebedev-50)
Angular grid pruning method      GridPruning ... 4 (adaptive)
Weight generation scheme         WeightScheme... Becke
Basis function cutoff            BFCut       ... 1.0000e-10
Integration weight cutoff        WCut        ... 1.0000e-14
Angular grids for H and He will be reduced by one unit
Partially contracted basis set               ... on
Rotationally invariant grid construction     ... off

Total number of grid points                  ...    14955
Total number of batches                      ...      263
Average number of points per batch           ...       56
Average number of grid points per atom       ...      305

Memory available               ... 876.1 MB
Memory needed per perturbation ...  13.4 MB
Perturbations treated per batch... 3
Number of batches              ... 1
     CP-SCF ITERATION   0:   4.1648e-02 (   1.8 sec   0/  3 done)
     CP-SCF ITERATION   1:   1.7123e-03 (   1.9 sec   2/  3 done)
     CP-SCF ITERATION   2:   9.0178e-05 (   1.4 sec   3/  3 done)
                    *** THE CP-SCF HAS CONVERGED ***

Forming final perturbed densities           ... done
Transforming perturbed density to AO basis  ... done

 Raw HFC matrix (all values in MHz): 
 -----------------------------------
                 1.3506              -0.2699               0.0020
                -0.2699               0.5345              -0.0005
                 0.0020              -0.0005               0.3344

 A(FC)           0.7399               0.7399               0.7399
 A(SD)          -0.4054              -0.2866               0.6921
 A(ORB+DIA)     -0.0000               0.0001              -0.0002    A(PC) =  -0.0000
 A(ORB)         -0.0000               0.0001              -0.0002    A(PC) =  -0.0000
 A(DIA)          0.0000               0.0000               0.0000    A(PC) =   0.0000
             ----------           ----------           ----------
 A(Tot)          0.3344               0.4533               1.4318    A(iso)=    0.7398
 Orientation: 
  X          -0.0020063           -0.2880587            0.9576107
  Y          -0.0001020           -0.9576125           -0.2880594
  Z           0.9999980           -0.0006756            0.0018919

Notes:  (1) The A matrix conforms to the "SAI" spin Hamiltonian convention.
        (2) Tensor is right-handed.

 -----------------------------------------------------------
 Nucleus  47H : A:ISTP=    1 I=  0.5 P=533.5514 MHz/au**3
                Q:ISTP=    2 I=  1.0 Q=  0.0029 barn     
 -----------------------------------------------------------
 Solving for nuclear perturbation:
Forming RHS of the CP-SCF equations         ... 
Calc. nucleus orbit integrals (SHARK)       ... done

------------------------------------------------------------------------------
                           ORCA CP-SCF CALCULATION
------------------------------------------------------------------------------

Input orbitals are from        ... cc-pVDZ.gbw
Input Perturbation             ... cc-pVDZ.pin.tmp
Wavefunction output            ... cc-pVDZ.pout.tmp
Perturbation mode              ... Imaginary perturbation
Solver                         ... POPLE
Max. number of iterations      ... 64
Convergence tolerance          ... 1.000e-03
Integral handling              ... Direct
DFT GridXC                     ... 1
COSX GridX                     ... 1
COSX IntAccX                   ... 3.067
COSX Algorithm                 ... Auto
Number of perturbations        ... 3
Number of operators            ... 2
Orbital ranges used for CP-SCF:
 Operator 0:  Orbitals   0... 84  to  85...460
 Operator 1:  Orbitals   0... 83  to  84...460
Variables per perturbation     ... 63628
DFT calculation                         ... on
XC functional terms                     ... off
Hybrid DFT                              ... on
   Exchange mixing (SCF)                ...  0.200
   Exchange mixing (CP-SCF)             ...  0.200
   GGA exch. scaling(SCF)               ...  0.720
   GGA exch. scaling (CP-SCF)           ...  0.720
   GGA corr. scaling (SCF)              ...  0.810
   GGA corr. scaling (CP-SCF)           ...  0.810

CP-SCF GRID
-----------

General Integration Accuracy     IntAcc      ... 3.467
Radial Grid Type                 RadialGrid  ... OptM3 with GC (2021)
Angular Grid (max. ang.)         AngularGrid ... 1 (Lebedev-50)
Angular grid pruning method      GridPruning ... 4 (adaptive)
Weight generation scheme         WeightScheme... Becke
Basis function cutoff            BFCut       ... 1.0000e-10
Integration weight cutoff        WCut        ... 1.0000e-14
Angular grids for H and He will be reduced by one unit
Partially contracted basis set               ... off
Rotationally invariant grid construction     ... off

Total number of grid points                  ...    31902
Total number of batches                      ...      518
Average number of points per batch           ...       61
Average number of grid points per atom       ...      651

CP-SCF GRIDX
------------

General Integration Accuracy     IntAcc      ... 3.067
Radial Grid Type                 RadialGrid  ... OptM3 with GC (2021)
Angular Grid (max. ang.)         AngularGrid ... 1 (Lebedev-50)
Angular grid pruning method      GridPruning ... 4 (adaptive)
Weight generation scheme         WeightScheme... Becke
Basis function cutoff            BFCut       ... 1.0000e-10
Integration weight cutoff        WCut        ... 1.0000e-14
Angular grids for H and He will be reduced by one unit
Partially contracted basis set               ... on
Rotationally invariant grid construction     ... off

Total number of grid points                  ...    14955
Total number of batches                      ...      263
Average number of points per batch           ...       56
Average number of grid points per atom       ...      305

Memory available               ... 875.6 MB
Memory needed per perturbation ...  13.4 MB
Perturbations treated per batch... 3
Number of batches              ... 1
     CP-SCF ITERATION   0:   4.1612e-02 (   1.9 sec   0/  3 done)
     CP-SCF ITERATION   1:   1.6872e-03 (   1.9 sec   2/  3 done)
     CP-SCF ITERATION   2:   7.7525e-05 (   1.4 sec   3/  3 done)
                    *** THE CP-SCF HAS CONVERGED ***

Forming final perturbed densities           ... done
Transforming perturbed density to AO basis  ... done

 Raw HFC matrix (all values in MHz): 
 -----------------------------------
                 1.2037               0.0464               0.0019
                 0.0463               0.6263               0.0004
                 0.0019               0.0004               0.3911

 A(FC)           0.7404               0.7404               0.7404
 A(SD)          -0.3493              -0.1179               0.4672
 A(ORB+DIA)      0.0000               0.0001              -0.0001    A(PC) =  -0.0000
 A(ORB)         -0.0000               0.0001              -0.0002    A(PC) =  -0.0000
 A(DIA)          0.0000              -0.0000               0.0001    A(PC) =   0.0000
             ----------           ----------           ----------
 A(Tot)          0.3911               0.6226               1.2074    A(iso)=    0.7404
 Orientation: 
  X          -0.0023211           -0.0796229           -0.9968224
  Y          -0.0012098            0.9968245           -0.0796203
  Z           0.9999966            0.0010211           -0.0024101

Notes:  (1) The A matrix conforms to the "SAI" spin Hamiltonian convention.
        (2) Tensor is right-handed.

 -----------------------------------------------------------
 Nucleus  48H : A:ISTP=    1 I=  0.5 P=533.5514 MHz/au**3
                Q:ISTP=    2 I=  1.0 Q=  0.0029 barn     
 -----------------------------------------------------------
 Solving for nuclear perturbation:
Forming RHS of the CP-SCF equations         ... 
Calc. nucleus orbit integrals (SHARK)       ... done

------------------------------------------------------------------------------
                           ORCA CP-SCF CALCULATION
------------------------------------------------------------------------------

Input orbitals are from        ... cc-pVDZ.gbw
Input Perturbation             ... cc-pVDZ.pin.tmp
Wavefunction output            ... cc-pVDZ.pout.tmp
Perturbation mode              ... Imaginary perturbation
Solver                         ... POPLE
Max. number of iterations      ... 64
Convergence tolerance          ... 1.000e-03
Integral handling              ... Direct
DFT GridXC                     ... 1
COSX GridX                     ... 1
COSX IntAccX                   ... 3.067
COSX Algorithm                 ... Auto
Number of perturbations        ... 3
Number of operators            ... 2
Orbital ranges used for CP-SCF:
 Operator 0:  Orbitals   0... 84  to  85...460
 Operator 1:  Orbitals   0... 83  to  84...460
Variables per perturbation     ... 63628
DFT calculation                         ... on
XC functional terms                     ... off
Hybrid DFT                              ... on
   Exchange mixing (SCF)                ...  0.200
   Exchange mixing (CP-SCF)             ...  0.200
   GGA exch. scaling(SCF)               ...  0.720
   GGA exch. scaling (CP-SCF)           ...  0.720
   GGA corr. scaling (SCF)              ...  0.810
   GGA corr. scaling (CP-SCF)           ...  0.810

CP-SCF GRID
-----------

General Integration Accuracy     IntAcc      ... 3.467
Radial Grid Type                 RadialGrid  ... OptM3 with GC (2021)
Angular Grid (max. ang.)         AngularGrid ... 1 (Lebedev-50)
Angular grid pruning method      GridPruning ... 4 (adaptive)
Weight generation scheme         WeightScheme... Becke
Basis function cutoff            BFCut       ... 1.0000e-10
Integration weight cutoff        WCut        ... 1.0000e-14
Angular grids for H and He will be reduced by one unit
Partially contracted basis set               ... off
Rotationally invariant grid construction     ... off

Total number of grid points                  ...    31902
Total number of batches                      ...      518
Average number of points per batch           ...       61
Average number of grid points per atom       ...      651

CP-SCF GRIDX
------------

General Integration Accuracy     IntAcc      ... 3.067
Radial Grid Type                 RadialGrid  ... OptM3 with GC (2021)
Angular Grid (max. ang.)         AngularGrid ... 1 (Lebedev-50)
Angular grid pruning method      GridPruning ... 4 (adaptive)
Weight generation scheme         WeightScheme... Becke
Basis function cutoff            BFCut       ... 1.0000e-10
Integration weight cutoff        WCut        ... 1.0000e-14
Angular grids for H and He will be reduced by one unit
Partially contracted basis set               ... on
Rotationally invariant grid construction     ... off

Total number of grid points                  ...    14955
Total number of batches                      ...      263
Average number of points per batch           ...       56
Average number of grid points per atom       ...      305

Memory available               ... 875.0 MB
Memory needed per perturbation ...  13.4 MB
Perturbations treated per batch... 3
Number of batches              ... 1
     CP-SCF ITERATION   0:   4.5832e-02 (   1.8 sec   0/  3 done)
     CP-SCF ITERATION   1:   2.0699e-03 (   1.9 sec   0/  3 done)
     CP-SCF ITERATION   2:   1.4368e-04 (   1.9 sec   3/  3 done)
                    *** THE CP-SCF HAS CONVERGED ***

Forming final perturbed densities           ... done
Transforming perturbed density to AO basis  ... done

 Raw HFC matrix (all values in MHz): 
 -----------------------------------
                -1.0597              -0.5717               0.0019
                -0.5715              -1.4750              -0.0008
                 0.0019              -0.0008              -2.5409

 A(FC)          -1.6923              -1.6923              -1.6923
 A(SD)           1.0325              -0.1840              -0.8485
 A(ORB+DIA)      0.0006               0.0008              -0.0001    A(PC) =   0.0004
 A(ORB)          0.0005               0.0006               0.0000    A(PC) =   0.0004
 A(DIA)          0.0001               0.0001              -0.0001    A(PC) =   0.0000
             ----------           ----------           ----------
 A(Tot)         -0.6592              -1.8755              -2.5409    A(iso)=   -1.6919
 Orientation: 
  X          -0.8189611            0.5738476            0.0012827
  Y           0.5738480            0.8189618           -0.0000311
  Z          -0.0010684            0.0007106           -0.9999992

Notes:  (1) The A matrix conforms to the "SAI" spin Hamiltonian convention.
        (2) Tensor is right-handed.


--------------------------------------------------------------------------------
----------------------------------------------------------------------------
                           ORCA EULER ANGLE PROGRAM
----------------------------------------------------------------------------

Only g-tensor available        -->  using g-tensor as reference tensor

Reference tensor               ...  g

g-tensor ordering              ...  |g_min> --> |gx>
                                    |g_mid> --> |gy>
                                    |g_max> --> |gz>

A- and EFG-tensor ordering     ...  the axes |Ax>, |Qx>, |Ay>, etc. are assigned
                                    such that the Euler rotation is minimal. You
                                    can find the respective eigenvalues as Ax,
                                    EFGx, Ay, etc. in the tables below.
                                    The relation of |Ax>, |Ay>,  etc. to Amin, Amid, etc.
                                    (as printed in the ORCA EPR/NMR CALCULATION Output)
                                    is obtained in the detailed printout.

Euler rotation around          ...  z - y - z
   First rotation              -->  by alpha around z
   Second rotation             -->  by beta around y'
   Third rotation              -->  by gamma around z''
   Positive / Negative angle   -->  clockwise / counterclockwise rotation

Plot EFG-tensors                    (-)
Plot HFC-tensors                    (-)
Detailed Printout                   (-)

-------------------------------------------------------------------------
          Euler rotation of hyperfine tensor to g-tensor
-------------------------------------------------------------------------

-------------------------------------------------------------------
 Atom  |   Alpha    Beta    Gamma   |   Ax       Ay       Az 
       |          [degrees]         |           [MHz]         
-------------------------------------------------------------------
  9H      -90.1     20.6     90.1     -15.92    -6.99   -19.46
 10H      -90.0     23.7     90.0       4.08     4.67     9.47
 12H       90.0     29.0    -90.0     -45.59   -17.07   -70.28
 14H      -73.4     20.7     53.7      56.29    65.72    57.56
 15H     -105.8     20.6    125.4      56.02    65.45    57.30
 17H       -4.0     16.2    -27.3      -3.14    -2.97     3.12
 18H     -176.0     16.0   -152.6      -3.13    -2.97     3.12
 20H      118.6     39.0    -74.0      -0.10     0.03     2.21
 21H       61.0     38.9   -105.9      -0.10     0.03     2.21
 23H      176.9     23.5    138.5      20.67    20.11    23.74
 24H        3.0     23.5     41.4      20.68    20.11    23.75
 26H       79.4     44.0    -72.0      -0.96    -0.83     0.95
 27H      100.5     44.0   -108.0      -0.96    -0.83     0.95
 29H       89.6     14.3   -127.5      -0.10    -0.14     0.79
 30H       90.5     14.3    -52.6      -0.10    -0.14     0.79
 32H      100.9     30.3   -104.8      -0.12    -0.10     0.37
 33H       79.1     30.3    -75.2      -0.12    -0.10     0.37
 35H       89.9     26.9    -90.0       3.22     2.12     4.81
 36H       91.2     21.5    -89.9      -0.78    -0.80     0.75
 37H       89.8     19.9    -90.1      -0.13    -0.13     0.24
 44H       89.9     25.3    -90.0      -1.98    -0.50    -3.06
 45H       89.8     16.1    -89.9      -2.23    -1.92    -0.92
 46H       90.0     13.7    -90.1       0.33     1.43     0.45
 47H       89.9     35.0    -90.0       0.39     1.21     0.62
 48H      -90.2      4.6     90.1      -2.54    -0.66    -1.88
-------------------------------------------------------------------


Maximum memory used throughout the entire EPRNMR-calculation: 219.2 MB

Timings for individual modules:

Sum of individual times         ...     4784.179 sec (=  79.736 min)
GTO integral calculation        ...        4.716 sec (=   0.079 min)   0.1 %
Spin-Orbit-Coupling Matrices    ...        9.622 sec (=   0.160 min)   0.2 %
SCF iterations                  ...       30.742 sec (=   0.512 min)   0.6 %
EPR/NMR calculation             ...     4739.099 sec (=  78.985 min)  99.1 %
                             ****ORCA TERMINATED NORMALLY****
TOTAL RUN TIME: 0 days 1 hours 19 minutes 48 seconds 397 msec
