
                                 *****************
                                 * O   R   C   A *
                                 *****************

                                            #,                                       
                                            ###                                      
                                            ####                                     
                                            #####                                    
                                            ######                                   
                                           ########,                                 
                                     ,,################,,,,,                         
                               ,,#################################,,                 
                          ,,##########################################,,             
                       ,#########################################, ''#####,          
                    ,#############################################,,   '####,        
                  ,##################################################,,,,####,       
                ,###########''''           ''''###############################       
              ,#####''   ,,,,##########,,,,          '''####'''          '####       
            ,##' ,,,,###########################,,,                        '##       
           ' ,,###''''                  '''############,,,                           
         ,,##''                                '''############,,,,        ,,,,,,###''
      ,#''                                            '''#######################'''  
     '                                                          ''''####''''         
             ,#######,   #######,   ,#######,      ##                                
            ,#'     '#,  ##    ##  ,#'     '#,    #''#        ######   ,####,        
            ##       ##  ##   ,#'  ##            #'  '#       #        #'  '#        
            ##       ##  #######   ##           ,######,      #####,   #    #        
            '#,     ,#'  ##    ##  '#,     ,#' ,#      #,         ##   #,  ,#        
             '#######'   ##     ##  '#######'  #'      '#     #####' # '####'        



                  #######################################################
                  #                        -***-                        #
                  #          Department of theory and spectroscopy      #
                  #    Directorship and core code : Frank Neese         #
                  #        Max Planck Institute fuer Kohlenforschung    #
                  #                Kaiser Wilhelm Platz 1               #
                  #                 D-45470 Muelheim/Ruhr               #
                  #                      Germany                        #
                  #                                                     #
                  #                  All rights reserved                #
                  #                        -***-                        #
                  #######################################################


                         Program Version 5.0.4 -  RELEASE  -


 With contributions from (in alphabetic order):
   Daniel Aravena         : Magnetic Suceptibility
   Michael Atanasov       : Ab Initio Ligand Field Theory (pilot matlab implementation)
   Alexander A. Auer      : GIAO ZORA, VPT2 properties, NMR spectrum
   Ute Becker             : Parallelization
   Giovanni Bistoni       : ED, misc. LED, open-shell LED, HFLD
   Martin Brehm           : Molecular dynamics
   Dmytro Bykov           : SCF Hessian
   Vijay G. Chilkuri      : MRCI spin determinant printing, contributions to CSF-ICE
   Dipayan Datta          : RHF DLPNO-CCSD density
   Achintya Kumar Dutta   : EOM-CC, STEOM-CC
   Dmitry Ganyushin       : Spin-Orbit,Spin-Spin,Magnetic field MRCI
   Miquel Garcia          : C-PCM and meta-GGA Hessian, CC/C-PCM, Gaussian charge scheme
   Yang Guo               : DLPNO-NEVPT2, F12-NEVPT2, CIM, IAO-localization
   Andreas Hansen         : Spin unrestricted coupled pair/coupled cluster methods
   Benjamin Helmich-Paris : MC-RPA, TRAH-SCF, COSX integrals
   Lee Huntington         : MR-EOM, pCC
   Robert Izsak           : Overlap fitted RIJCOSX, COSX-SCS-MP3, EOM
   Marcus Kettner         : VPT2
   Christian Kollmar      : KDIIS, OOCD, Brueckner-CCSD(T), CCSD density, CASPT2, CASPT2-K
   Simone Kossmann        : Meta GGA functionals, TD-DFT gradient, OOMP2, MP2 Hessian
   Martin Krupicka        : Initial AUTO-CI
   Lucas Lang             : DCDCAS
   Marvin Lechner         : AUTO-CI (C++ implementation), FIC-MRCC
   Dagmar Lenk            : GEPOL surface, SMD
   Dimitrios Liakos       : Extrapolation schemes; Compound Job, initial MDCI parallelization
   Dimitrios Manganas     : Further ROCIS development; embedding schemes
   Dimitrios Pantazis     : SARC Basis sets
   Anastasios Papadopoulos: AUTO-CI, single reference methods and gradients
   Taras Petrenko         : DFT Hessian,TD-DFT gradient, ASA, ECA, R-Raman, ABS, FL, XAS/XES, NRVS
   Peter Pinski           : DLPNO-MP2, DLPNO-MP2 Gradient
   Christoph Reimann      : Effective Core Potentials
   Marius Retegan         : Local ZFS, SOC
   Christoph Riplinger    : Optimizer, TS searches, QM/MM, DLPNO-CCSD(T), (RO)-DLPNO pert. Triples
   Tobias Risthaus        : Range-separated hybrids, TD-DFT gradient, RPA, STAB
   Michael Roemelt        : Original ROCIS implementation
   Masaaki Saitow         : Open-shell DLPNO-CCSD energy and density
   Barbara Sandhoefer     : DKH picture change effects
   Avijit Sen             : IP-ROCIS
   Kantharuban Sivalingam : CASSCF convergence, NEVPT2, FIC-MRCI
   Bernardo de Souza      : ESD, SOC TD-DFT
   Georgi Stoychev        : AutoAux, RI-MP2 NMR, DLPNO-MP2 response
   Willem Van den Heuvel  : Paramagnetic NMR
   Boris Wezisla          : Elementary symmetry handling
   Frank Wennmohs         : Technical directorship


 We gratefully acknowledge several colleagues who have allowed us to
 interface, adapt or use parts of their codes:
   Stefan Grimme, W. Hujo, H. Kruse, P. Pracht,  : VdW corrections, initial TS optimization,
                  C. Bannwarth, S. Ehlert          DFT functionals, gCP, sTDA/sTD-DF
   Ed Valeev, F. Pavosevic, A. Kumar             : LibInt (2-el integral package), F12 methods
   Garnet Chan, S. Sharma, J. Yang, R. Olivares  : DMRG
   Ulf Ekstrom                                   : XCFun DFT Library
   Mihaly Kallay                                 : mrcc  (arbitrary order and MRCC methods)
   Jiri Pittner, Ondrej Demel                    : Mk-CCSD
   Frank Weinhold                                : gennbo (NPA and NBO analysis)
   Christopher J. Cramer and Donald G. Truhlar   : smd solvation model
   Lars Goerigk                                  : TD-DFT with DH, B97 family of functionals
   V. Asgeirsson, H. Jonsson                     : NEB implementation
   FAccTs GmbH                                   : IRC, NEB, NEB-TS, DLPNO-Multilevel, CI-OPT
                                                   MM, QMMM, 2- and 3-layer-ONIOM, Crystal-QMMM,
                                                   LR-CPCM, SF, NACMEs, symmetry and pop. for TD-DFT,
                                                   nearIR, NL-DFT gradient (VV10), updates on ESD,
                                                   ML-optimized integration grids
   S Lehtola, MJT Oliveira, MAL Marques          : LibXC Library
   Liviu Ungur et al                             : ANISO software


 Your calculation uses the libint2 library for the computation of 2-el integrals
 For citations please refer to: http://libint.valeyev.net

 Your ORCA version has been built with support for libXC version: 5.1.0
 For citations please refer to: https://tddft.org/programs/libxc/

 This ORCA versions uses:
   CBLAS   interface :  Fast vector & matrix operations
   LAPACKE interface :  Fast linear algebra routines
   SCALAPACK package :  Parallel linear algebra routines
   Shared memory     :  Shared parallel matrices
   BLAS/LAPACK       :  OpenBLAS 0.3.15  USE64BITINT DYNAMIC_ARCH NO_AFFINITY SkylakeX SINGLE_THREADED
        Core in use  :  SkylakeX
   Copyright (c) 2011-2014, The OpenBLAS Project




***************************************
The coordinates will be read from file: opt_EPRII.xyz
***************************************


================================================================================

----- Orbital basis set information -----
Your calculation utilizes the basis: EPR-II
   V. Barone, in Recent Advances in Density Functional Methods, Part 1 (ed. D. P. Chong), World Scientific, Singapore, 1995, p. 287.

----- AuxJ basis set information -----
Your calculation utilizes the AutoAux generation procedure.
  G. L. Stoychev, A. A. Auer, F. Neese, J. Chem. Theory Comput. 13, 554 (2017)

----- AuxC basis set information -----
Your calculation utilizes the AutoAux generation procedure.
  G. L. Stoychev, A. A. Auer, F. Neese, J. Chem. Theory Comput. 13, 554 (2017)

----- AuxJK basis set information -----
Your calculation utilizes the AutoAux generation procedure.
  G. L. Stoychev, A. A. Auer, F. Neese, J. Chem. Theory Comput. 13, 554 (2017)

================================================================================
                                        WARNINGS
                       Please study these warnings very carefully!
================================================================================

WARNING: Old DensityContainer found on disk!
         Will remove this file - 
         If you want to keep old densities, please start your calculation with a different basename. 


WARNING: your system is open-shell and RHF/RKS was chosen
  ===> : WILL SWITCH to UHF/UKS


INFO   : the flag for use of the SHARK integral package has been found!

================================================================================
                                       INPUT FILE
================================================================================
NAME = EPRII_i.inp
|  1> ! B3LYP EPR-II AUTOAUX
|  2> %pal nprocs 16 end
|  3> *XYZFile 0 2 opt_EPRII.xyz
|  4> %EPRNMR
|  5>         GTENSOR   TRUE
|  6>         NUCLEI    = ALL H {SHIFT, AISO, ADIP, AORB}
|  7>         ORI       GIAO
|  8> END
|  9> 
| 10>                          ****END OF INPUT****
================================================================================

                       ****************************
                       * Single Point Calculation *
                       ****************************

---------------------------------
CARTESIAN COORDINATES (ANGSTROEM)
---------------------------------
  C      4.056806   -0.075107    0.000987
  C      2.831075   -0.015247   -0.001957
  C     -2.856691    0.022164   -0.006721
  C      1.407980    0.029084   -0.002965
  C      0.697313    1.290948   -0.002944
  C     -0.728576    1.222563   -0.004345
  C     -1.420228    0.007051   -0.005439
  C     -0.710323   -1.238279   -0.005176
  C      0.687725   -1.185075   -0.004073
  H     -1.303318    2.142043   -0.004518
  H      1.259191   -2.106067   -0.003982
  C      1.381871    2.529466   -0.001368
  H      2.468255    2.499461   -0.000331
  C      0.717227    3.880714   -0.001279
  H      0.060018    3.977204   -0.880187
  H      0.051519    3.973005    0.871605
  C      1.718912    5.050707    0.006459
  H      2.365529    4.963269    0.888934
  H      2.374398    4.967475   -0.869874
  C      1.030429    6.425729    0.006250
  H      0.390878    6.546562    0.887945
  H      0.399677    6.550691   -0.881193
  C     -1.485074   -2.545236   -0.006098
  H     -2.155575   -2.548390    0.864305
  H     -2.153450   -2.548476   -0.878141
  C     -0.652575   -3.836931   -0.004992
  H      0.004232   -3.859373   -0.884856
  H      0.002221   -3.859116    0.876378
  C     -1.531601   -5.100749   -0.005804
  H     -2.190977   -5.083335    0.872096
  H     -2.188855   -5.083689   -0.885299
  C     -0.710777   -6.402135   -0.004548
  H     -0.067506   -6.460952    0.880721
  H     -0.065250   -6.461228   -0.888154
  C     -4.077022    0.029148   -0.008538
  H     -5.142881    0.040087   -0.010481
  H      1.764520    7.237891    0.011791
  H     -1.360545   -7.283423   -0.005233
  C      8.306013   -0.328427    0.010363
  C      7.674297    0.927139    0.009003
  C      6.277793    1.016520    0.005896
  C      5.485015   -0.157854    0.004124
  C      6.130668   -1.419396    0.005474
  C      7.527661   -1.498777    0.008580
  H      9.390693   -0.394124    0.012778
  H      5.527121   -2.322182    0.004079
  H      8.270944    1.835618    0.010356
  H      8.010834   -2.472385    0.009608
  H      5.788588    1.986033    0.004828

----------------------------
CARTESIAN COORDINATES (A.U.)
----------------------------
  NO LB      ZA    FRAG     MASS         X           Y           Z
   0 C     6.0000    0    12.011    7.666252   -0.141932    0.001864
   1 C     6.0000    0    12.011    5.349956   -0.028812   -0.003698
   2 C     6.0000    0    12.011   -5.398364    0.041884   -0.012702
   3 C     6.0000    0    12.011    2.660697    0.054960   -0.005604
   4 C     6.0000    0    12.011    1.317730    2.439538   -0.005564
   5 C     6.0000    0    12.011   -1.376808    2.310309   -0.008212
   6 C     6.0000    0    12.011   -2.683841    0.013324   -0.010278
   7 C     6.0000    0    12.011   -1.342316   -2.340008   -0.009781
   8 C     6.0000    0    12.011    1.299612   -2.239468   -0.007697
   9 H     1.0000    0     1.008   -2.462913    4.047874   -0.008538
  10 H     1.0000    0     1.008    2.379526   -3.979889   -0.007525
  11 C     6.0000    0    12.011    2.611357    4.779998   -0.002585
  12 H     1.0000    0     1.008    4.664325    4.723297   -0.000626
  13 C     6.0000    0    12.011    1.355362    7.333486   -0.002416
  14 H     1.0000    0     1.008    0.113418    7.515826   -1.663313
  15 H     1.0000    0     1.008    0.097356    7.507891    1.647096
  16 C     6.0000    0    12.011    3.248272    9.544454    0.012206
  17 H     1.0000    0     1.008    4.470202    9.379219    1.679842
  18 H     1.0000    0     1.008    4.486962    9.387167   -1.643823
  19 C     6.0000    0    12.011    1.947228   12.142868    0.011811
  20 H     1.0000    0     1.008    0.738652   12.371210    1.677973
  21 H     1.0000    0     1.008    0.755280   12.379012   -1.665213
  22 C     6.0000    0    12.011   -2.806382   -4.809798   -0.011524
  23 H     1.0000    0     1.008   -4.073447   -4.815759    1.633300
  24 H     1.0000    0     1.008   -4.069431   -4.815921   -1.659446
  25 C     6.0000    0    12.011   -1.233188   -7.250749   -0.009434
  26 H     1.0000    0     1.008    0.007998   -7.293159   -1.672136
  27 H     1.0000    0     1.008    0.004198   -7.292673    1.656115
  28 C     6.0000    0    12.011   -2.894306   -9.639018   -0.010967
  29 H     1.0000    0     1.008   -4.140346   -9.606112    1.648022
  30 H     1.0000    0     1.008   -4.136337   -9.606780   -1.672972
  31 C     6.0000    0    12.011   -1.343174  -12.098282   -0.008595
  32 H     1.0000    0     1.008   -0.127567  -12.209430    1.664321
  33 H     1.0000    0     1.008   -0.123305  -12.209951   -1.678369
  34 C     6.0000    0    12.011   -7.704455    0.055082   -0.016134
  35 H     1.0000    0     1.008   -9.718637    0.075754   -0.019806
  36 H     1.0000    0     1.008    3.334459   13.677632    0.022282
  37 H     1.0000    0     1.008   -2.571058  -13.763675   -0.009889
  38 C     6.0000    0    12.011   15.696090   -0.620637    0.019583
  39 C     6.0000    0    12.011   14.502319    1.752039    0.017013
  40 C     6.0000    0    12.011   11.863309    1.920945    0.011142
  41 C     6.0000    0    12.011   10.365176   -0.298301    0.007793
  42 C     6.0000    0    12.011   11.585283   -2.682269    0.010345
  43 C     6.0000    0    12.011   14.225217   -2.832278    0.016214
  44 H     1.0000    0     1.008   17.745837   -0.744787    0.024146
  45 H     1.0000    0     1.008   10.444746   -4.388287    0.007709
  46 H     1.0000    0     1.008   15.629820    3.468816    0.019571
  47 H     1.0000    0     1.008   15.138283   -4.672130    0.018156
  48 H     1.0000    0     1.008   10.938846    3.753058    0.009124

--------------------------------
INTERNAL COORDINATES (ANGSTROEM)
--------------------------------
 C      0   0   0     0.000000000000     0.00000000     0.00000000
 C      1   0   0     1.227195513205     0.00000000     0.00000000
 C      2   1   0     5.687890951657   177.57929643     0.00000000
 C      2   1   3     1.423785248046   178.98369534     3.35107067
 C      4   2   1     1.448223033591   121.17192435   174.50717633
 C      5   4   2     1.427527962040   116.64190617   179.98461440
 C      6   5   4     1.398518070059   122.38660040     0.00000000
 C      7   6   5     1.433460957583   120.67372961     0.00000000
 C      8   7   6     1.399060326723   117.50609448     0.00000000
 H      6   5   4     1.084330134902   119.26259534   180.00811223
 H      9   8   7     1.083881104923   119.63981416   180.00848543
 C      5   4   2     1.415114427487   121.68182381   359.97347167
 H     12   5   4     1.086798894361   117.34842342     0.00000000
 C     12   5   4     1.505862456300   124.87815897   179.99806805
 H     14  12   5     1.101686663276   109.98917159   301.97801604
 H     14  12   5     1.101640493184   109.99490489    57.54985520
 C     14  12   5     1.540232813698   113.24000078   179.76362193
 H     17  14  12     1.097506829228   109.06765444   302.01420727
 H     17  14  12     1.097519789239   109.07444410    57.96380709
 C     17  14  12     1.537755637845   112.83387259   179.99024829
 H     20  17  14     1.095907242912   111.08556978    59.89376475
 H     20  17  14     1.095909940561   111.08512057   300.10789927
 C      8   7   6     1.519334064726   119.65549731   179.98769626
 H     23   8   7     1.098719614249   108.25073153   303.41876582
 H     23   8   7     1.098725092166   108.25326944    56.64016271
 C     23   8   7     1.536727939389   116.53913007   180.03154095
 H     26  23   8     1.098207757052   109.91322278   301.46774868
 H     26  23   8     1.098209857426   109.91105805    58.51476888
 C     26  23   8     1.539454806559   112.37830458   179.99014540
 H     29  26  23     1.098082967376   109.23433378   302.06328898
 H     29  26  23     1.098082936568   109.23460936    57.94934897
 C     29  26  23     1.538623007718   112.93923047   180.00652920
 H     32  29  26     1.095882467408   111.05115274    59.86084747
 H     32  29  26     1.095881735507   111.05078514   300.14800965
 C      3   2   1     1.220352151180   179.93846530   320.60075959
 H     35   3   7     1.065916956348   179.73917280   191.29281230
 H     20  17  14     1.094772959258   111.29265921   180.00133259
 H     32  29  26     1.094928059114   111.35796531   180.00420635
 C      1   2   4     4.256761648306   179.38411558     6.50787375
 C     39   1   2     1.405529794442    59.87980441   178.96554504
 C     40  39   1     1.399365124205   120.37063970     0.00000000
 C     41  40  39     1.416917468094   120.35979316     0.00000000
 C     42  41  40     1.417164909353   118.87480148     0.00000000
 C     43  42  41     1.399249649590   120.35549265     0.00000000
 H     39   1   2     1.086669973298   179.94562590   357.77979483
 H     43  42  41     1.085952622851   119.13243363   180.00272948
 H     40  39   1     1.086887521476   119.99634879   179.99933681
 H     44  43  42     1.086908387577   119.64617432   179.99882984
 H     41  40  39     1.085944659733   120.43715282   180.00089215

---------------------------
INTERNAL COORDINATES (A.U.)
---------------------------
 C      0   0   0     0.000000000000     0.00000000     0.00000000
 C      1   0   0     2.319063432735     0.00000000     0.00000000
 C      2   1   0    10.748556178241   177.57929643     0.00000000
 C      2   1   3     2.690564192324   178.98369534     3.35107067
 C      4   2   1     2.736744914323   121.17192435   174.50717633
 C      5   4   2     2.697636896770   116.64190617   179.98461440
 C      6   5   4     2.642816145751   122.38660040     0.00000000
 C      7   6   5     2.708848633500   120.67372961     0.00000000
 C      8   7   6     2.643840862340   117.50609448     0.00000000
 H      6   5   4     2.049086993723   119.26259534   180.00811223
 H      9   8   7     2.048238450037   119.63981416   180.00848543
 C      5   4   2     2.674178716110   121.68182381   359.97347167
 H     12   5   4     2.053752272991   117.34842342     0.00000000
 C     12   5   4     2.845667637760   124.87815897   179.99806805
 H     14  12   5     2.081886078985   109.98917159   301.97801604
 H     14  12   5     2.081798830155   109.99490489    57.54985520
 C     14  12   5     2.910618200367   113.24000078   179.76362193
 H     17  14  12     2.073987337350   109.06765444   302.01420727
 H     17  14  12     2.074011828221   109.07444410    57.96380709
 C     17  14  12     2.905937016420   112.83387259   179.99024829
 H     20  17  14     2.070964557284   111.08556978    59.89376475
 H     20  17  14     2.070969655103   111.08512057   300.10789927
 C      8   7   6     2.871125288269   119.65549731   179.98769626
 H     23   8   7     2.076279168898   108.25073153   303.41876582
 H     23   8   7     2.076289520661   108.25326944    56.64016271
 C     23   8   7     2.903994947790   116.53913007   180.03154095
 H     26  23   8     2.075311898976   109.91322278   301.46774868
 H     26  23   8     2.075315868108   109.91105805    58.51476888
 C     26  23   8     2.909147979946   112.37830458   179.99014540
 H     29  26  23     2.075076080665   109.23433378   302.06328898
 H     29  26  23     2.075076022446   109.23460936    57.94934897
 C     29  26  23     2.907576107937   112.93923047   180.00652920
 H     32  29  26     2.070917738367   111.05115274    59.86084747
 H     32  29  26     2.070916355274   111.05078514   300.14800965
 C      3   2   1     2.306131352673   179.93846530   320.60075959
 H     35   3   7     2.014291129000   179.73917280   191.29281230
 H     20  17  14     2.068821071820   111.29265921   180.00133259
 H     32  29  26     2.069114168071   111.35796531   180.00420635
 C      1   2   4     8.044113732677   179.38411558     6.50787375
 C     39   1   2     2.656066384562    59.87980441   178.96554504
 C     40  39   1     2.644416846108   120.37063970     0.00000000
 C     41  40  39     2.677585969066   120.35979316     0.00000000
 C     42  41  40     2.678053565280   118.87480148     0.00000000
 C     43  42  41     2.644198630710   120.35549265     0.00000000
 H     39   1   2     2.053508647490   179.94562590   357.77979483
 H     43  42  41     2.052153051602   119.13243363   180.00272948
 H     40  39   1     2.053919753967   119.99634879   179.99933681
 H     44  43  42     2.053959185182   119.64617432   179.99882984
 H     41  40  39     2.052138003489   120.43715282   180.00089215

---------------------
BASIS SET INFORMATION
---------------------
There are 2 groups of distinct atoms

 Group   1 Type C   : 10s5p1d contracted to 6s2p1d pattern {511111/41/1}
 Group   2 Type H   : 6s1p contracted to 4s1p pattern {3111/1}

Atom   0C    basis set group =>   1
Atom   1C    basis set group =>   1
Atom   2C    basis set group =>   1
Atom   3C    basis set group =>   1
Atom   4C    basis set group =>   1
Atom   5C    basis set group =>   1
Atom   6C    basis set group =>   1
Atom   7C    basis set group =>   1
Atom   8C    basis set group =>   1
Atom   9H    basis set group =>   2
Atom  10H    basis set group =>   2
Atom  11C    basis set group =>   1
Atom  12H    basis set group =>   2
Atom  13C    basis set group =>   1
Atom  14H    basis set group =>   2
Atom  15H    basis set group =>   2
Atom  16C    basis set group =>   1
Atom  17H    basis set group =>   2
Atom  18H    basis set group =>   2
Atom  19C    basis set group =>   1
Atom  20H    basis set group =>   2
Atom  21H    basis set group =>   2
Atom  22C    basis set group =>   1
Atom  23H    basis set group =>   2
Atom  24H    basis set group =>   2
Atom  25C    basis set group =>   1
Atom  26H    basis set group =>   2
Atom  27H    basis set group =>   2
Atom  28C    basis set group =>   1
Atom  29H    basis set group =>   2
Atom  30H    basis set group =>   2
Atom  31C    basis set group =>   1
Atom  32H    basis set group =>   2
Atom  33H    basis set group =>   2
Atom  34C    basis set group =>   1
Atom  35H    basis set group =>   2
Atom  36H    basis set group =>   2
Atom  37H    basis set group =>   2
Atom  38C    basis set group =>   1
Atom  39C    basis set group =>   1
Atom  40C    basis set group =>   1
Atom  41C    basis set group =>   1
Atom  42C    basis set group =>   1
Atom  43C    basis set group =>   1
Atom  44H    basis set group =>   2
Atom  45H    basis set group =>   2
Atom  46H    basis set group =>   2
Atom  47H    basis set group =>   2
Atom  48H    basis set group =>   2
---------------------------------
AUXILIARY/J BASIS SET INFORMATION
---------------------------------
There are 2 groups of distinct atoms

 Group   1 Type C   : 17s13p12d2f contracted to 17s13p12d2f pattern {11111111111111111/1111111111111/111111111111/11}
 Group   2 Type H   : 15s6p1d contracted to 15s6p1d pattern {111111111111111/111111/1}

Atom   0C    basis set group =>   1
Atom   1C    basis set group =>   1
Atom   2C    basis set group =>   1
Atom   3C    basis set group =>   1
Atom   4C    basis set group =>   1
Atom   5C    basis set group =>   1
Atom   6C    basis set group =>   1
Atom   7C    basis set group =>   1
Atom   8C    basis set group =>   1
Atom   9H    basis set group =>   2
Atom  10H    basis set group =>   2
Atom  11C    basis set group =>   1
Atom  12H    basis set group =>   2
Atom  13C    basis set group =>   1
Atom  14H    basis set group =>   2
Atom  15H    basis set group =>   2
Atom  16C    basis set group =>   1
Atom  17H    basis set group =>   2
Atom  18H    basis set group =>   2
Atom  19C    basis set group =>   1
Atom  20H    basis set group =>   2
Atom  21H    basis set group =>   2
Atom  22C    basis set group =>   1
Atom  23H    basis set group =>   2
Atom  24H    basis set group =>   2
Atom  25C    basis set group =>   1
Atom  26H    basis set group =>   2
Atom  27H    basis set group =>   2
Atom  28C    basis set group =>   1
Atom  29H    basis set group =>   2
Atom  30H    basis set group =>   2
Atom  31C    basis set group =>   1
Atom  32H    basis set group =>   2
Atom  33H    basis set group =>   2
Atom  34C    basis set group =>   1
Atom  35H    basis set group =>   2
Atom  36H    basis set group =>   2
Atom  37H    basis set group =>   2
Atom  38C    basis set group =>   1
Atom  39C    basis set group =>   1
Atom  40C    basis set group =>   1
Atom  41C    basis set group =>   1
Atom  42C    basis set group =>   1
Atom  43C    basis set group =>   1
Atom  44H    basis set group =>   2
Atom  45H    basis set group =>   2
Atom  46H    basis set group =>   2
Atom  47H    basis set group =>   2
Atom  48H    basis set group =>   2
---------------------------------
AUXILIARY/C BASIS SET INFORMATION
---------------------------------
There are 2 groups of distinct atoms

 Group   1 Type C   : 17s13p12d2f contracted to 17s13p12d2f pattern {11111111111111111/1111111111111/111111111111/11}
 Group   2 Type H   : 15s6p1d contracted to 15s6p1d pattern {111111111111111/111111/1}

Atom   0C    basis set group =>   1
Atom   1C    basis set group =>   1
Atom   2C    basis set group =>   1
Atom   3C    basis set group =>   1
Atom   4C    basis set group =>   1
Atom   5C    basis set group =>   1
Atom   6C    basis set group =>   1
Atom   7C    basis set group =>   1
Atom   8C    basis set group =>   1
Atom   9H    basis set group =>   2
Atom  10H    basis set group =>   2
Atom  11C    basis set group =>   1
Atom  12H    basis set group =>   2
Atom  13C    basis set group =>   1
Atom  14H    basis set group =>   2
Atom  15H    basis set group =>   2
Atom  16C    basis set group =>   1
Atom  17H    basis set group =>   2
Atom  18H    basis set group =>   2
Atom  19C    basis set group =>   1
Atom  20H    basis set group =>   2
Atom  21H    basis set group =>   2
Atom  22C    basis set group =>   1
Atom  23H    basis set group =>   2
Atom  24H    basis set group =>   2
Atom  25C    basis set group =>   1
Atom  26H    basis set group =>   2
Atom  27H    basis set group =>   2
Atom  28C    basis set group =>   1
Atom  29H    basis set group =>   2
Atom  30H    basis set group =>   2
Atom  31C    basis set group =>   1
Atom  32H    basis set group =>   2
Atom  33H    basis set group =>   2
Atom  34C    basis set group =>   1
Atom  35H    basis set group =>   2
Atom  36H    basis set group =>   2
Atom  37H    basis set group =>   2
Atom  38C    basis set group =>   1
Atom  39C    basis set group =>   1
Atom  40C    basis set group =>   1
Atom  41C    basis set group =>   1
Atom  42C    basis set group =>   1
Atom  43C    basis set group =>   1
Atom  44H    basis set group =>   2
Atom  45H    basis set group =>   2
Atom  46H    basis set group =>   2
Atom  47H    basis set group =>   2
Atom  48H    basis set group =>   2
----------------------------------
AUXILIARY/JK BASIS SET INFORMATION
----------------------------------
There are 2 groups of distinct atoms

 Group   1 Type C   : 17s13p12d2f contracted to 17s13p12d2f pattern {11111111111111111/1111111111111/111111111111/11}
 Group   2 Type H   : 15s6p1d contracted to 15s6p1d pattern {111111111111111/111111/1}

Atom   0C    basis set group =>   1
Atom   1C    basis set group =>   1
Atom   2C    basis set group =>   1
Atom   3C    basis set group =>   1
Atom   4C    basis set group =>   1
Atom   5C    basis set group =>   1
Atom   6C    basis set group =>   1
Atom   7C    basis set group =>   1
Atom   8C    basis set group =>   1
Atom   9H    basis set group =>   2
Atom  10H    basis set group =>   2
Atom  11C    basis set group =>   1
Atom  12H    basis set group =>   2
Atom  13C    basis set group =>   1
Atom  14H    basis set group =>   2
Atom  15H    basis set group =>   2
Atom  16C    basis set group =>   1
Atom  17H    basis set group =>   2
Atom  18H    basis set group =>   2
Atom  19C    basis set group =>   1
Atom  20H    basis set group =>   2
Atom  21H    basis set group =>   2
Atom  22C    basis set group =>   1
Atom  23H    basis set group =>   2
Atom  24H    basis set group =>   2
Atom  25C    basis set group =>   1
Atom  26H    basis set group =>   2
Atom  27H    basis set group =>   2
Atom  28C    basis set group =>   1
Atom  29H    basis set group =>   2
Atom  30H    basis set group =>   2
Atom  31C    basis set group =>   1
Atom  32H    basis set group =>   2
Atom  33H    basis set group =>   2
Atom  34C    basis set group =>   1
Atom  35H    basis set group =>   2
Atom  36H    basis set group =>   2
Atom  37H    basis set group =>   2
Atom  38C    basis set group =>   1
Atom  39C    basis set group =>   1
Atom  40C    basis set group =>   1
Atom  41C    basis set group =>   1
Atom  42C    basis set group =>   1
Atom  43C    basis set group =>   1
Atom  44H    basis set group =>   2
Atom  45H    basis set group =>   2
Atom  46H    basis set group =>   2
Atom  47H    basis set group =>   2
Atom  48H    basis set group =>   2

Checking for AutoStart:
The File: EPRII_i.gbw exists
Trying to determine its content:
     ... Fine, the file contains calculation information
     ... Fine, the calculation information was read
     ... Fine, the file contains a basis set
     ... Fine, the basis set was read
     ... Fine, the file contains a geometry
     ... Fine, the geometry was read
     ... Fine, the file contains a set of orbitals
     ... Fine, the orbitals can be read
     => possible old guess file was deleted
     => GBW file was renamed to GES file
     => GES file is set as startup file
     => Guess is set to MORead
     ... now leaving AutoStart



           ************************************************************
           *        Program running with 16 parallel MPI-processes    *
           *              working on a common directory               *
           ************************************************************
------------------------------------------------------------------------------
                           ORCA GTO INTEGRAL CALCULATION
                           -- RI-GTO INTEGRALS CHOSEN --
------------------------------------------------------------------------------
------------------------------------------------------------------------------
                   ___                                                        
                  /   \      - P O W E R E D   B Y -                         
                 /     \                                                     
                 |  |  |   _    _      __       _____    __    __             
                 |  |  |  | |  | |    /  \     |  _  \  |  |  /  |          
                  \  \/   | |  | |   /    \    | | | |  |  | /  /          
                 / \  \   | |__| |  /  /\  \   | |_| |  |  |/  /          
                |  |  |   |  __  | /  /__\  \  |    /   |      \           
                |  |  |   | |  | | |   __   |  |    \   |  |\   \          
                \     /   | |  | | |  |  |  |  | |\  \  |  | \   \       
                 \___/    |_|  |_| |__|  |__|  |_| \__\ |__|  \__/        
                                                                              
                      - O R C A' S   B I G   F R I E N D -                    
                                      &                                       
                       - I N T E G R A L  F E E D E R -                       
                                                                              
 v1 FN, 2020, v2 2021                                                         
------------------------------------------------------------------------------


Reading SHARK input file EPRII_i.SHARKINP.tmp ... ok
----------------------
SHARK INTEGRAL PACKAGE
----------------------

Number of atoms                             ...     49
Number of basis functions                   ...    583
Number of shells                            ...    341
Maximum angular momentum                    ...      2
Integral batch strategy                     ... SHARK/LIBINT Hybrid
RI-J (if used) integral strategy            ... SPLIT-RIJ (Revised 2003 algorithm where possible)
Printlevel                                  ...      1
Contraction scheme used                     ... SEGMENTED contraction
Coulomb Range Separation                    ... NOT USED
Exchange Range Separation                   ... NOT USED
Finite Nucleus Model                        ... NOT USED
Auxiliary Coulomb fitting basis             ... AVAILABLE
   # of basis functions in Aux-J            ...   4070
   # of shells in Aux-J                     ...   1606
   Maximum angular momentum in Aux-J        ...      3
Auxiliary J/K fitting basis                 ... AVAILABLE
   # of basis functions in Aux-JK           ...   4070
   # of shells in Aux-JK                    ...   1606
   Maximum angular momentum in Aux-JK       ...      3
Auxiliary Correlation fitting basis         ... AVAILABLE
   # of basis functions in Aux-C            ...   4070
   # of shells in Aux-C                     ...   1606
   Maximum angular momentum in Aux-C        ...      3
Auxiliary 'external' fitting basis          ... NOT available
Integral threshold                          ...     1.000000e-10
Primitive cut-off                           ...     1.000000e-11
Primitive pair pre-selection threshold      ...     1.000000e-11

Calculating pre-screening integrals         ... done (  0.0 sec) Dimension = 341
Organizing shell pair data                  ... done (  0.2 sec)
Shell pair information
Total number of shell pairs                 ...     58311
Shell pairs after pre-screening             ...     29257
Total number of primitive shell pairs       ...    156979
Primitive shell pairs kept                  ...     55127
          la=0 lb=0:  13402 shell pairs
          la=1 lb=0:  10059 shell pairs
          la=1 lb=1:   1809 shell pairs
          la=2 lb=0:   2772 shell pairs
          la=2 lb=1:   1052 shell pairs
          la=2 lb=2:    163 shell pairs

Calculating one electron integrals          ... done (  0.0 sec)
Calculating RI/J V-Matrix + Cholesky decomp.... done (  1.0 sec)
Calculating RI/JK V-Matrix + Cholesky decomp... done (  1.0 sec)
Calculating RI/C V-Matrix + Cholesky decomp.... done (  1.0 sec)
Calculating Nuclear repulsion               ... done (  0.0 sec) ENN=   1721.123070063343 Eh

SHARK setup successfully completed in   3.6 seconds

Maximum memory used throughout the entire GTOINT-calculation: 59.3 MB


           ************************************************************
           *        Program running with 16 parallel MPI-processes    *
           *              working on a common directory               *
           ************************************************************
-------------------------------------------------------------------------------
                                 ORCA SCF
-------------------------------------------------------------------------------

------------
SCF SETTINGS
------------
Hamiltonian:
 Density Functional     Method          .... DFT(GTOs)
 Exchange Functional    Exchange        .... B88
   X-Alpha parameter    XAlpha          ....  0.666667
   Becke's b parameter  XBeta           ....  0.004200
 Correlation Functional Correlation     .... LYP
 LDA part of GGA corr.  LDAOpt          .... VWN-5
 Gradients option       PostSCFGGA      .... off
 Hybrid DFT is turned on
   Fraction HF Exchange ScalHFX         ....  0.200000
   Scaling of DF-GGA-X  ScalDFX         ....  0.720000
   Scaling of DF-GGA-C  ScalDFC         ....  0.810000
   Scaling of DF-LDA-C  ScalLDAC        ....  1.000000
   Perturbative correction              ....  0.000000
   Density functional embedding theory  .... OFF
   NL short-range parameter             ....  4.800000
 RI-approximation to the Coulomb term is turned on
   Number of AuxJ basis functions       .... 4070
   RIJ-COSX (HFX calculated with COS-X)).... on


General Settings:
 Integral files         IntName         .... EPRII_i
 Hartree-Fock type      HFTyp           .... UHF
 Total Charge           Charge          ....    0
 Multiplicity           Mult            ....    2
 Number of Electrons    NEL             ....  169
 Basis Dimension        Dim             ....  583
 Nuclear Repulsion      ENuc            ....   1721.1230700633 Eh

Convergence Acceleration:
 DIIS                   CNVDIIS         .... on
   Start iteration      DIISMaxIt       ....    12
   Startup error        DIISStart       ....  0.200000
   # of expansion vecs  DIISMaxEq       ....     5
   Bias factor          DIISBfac        ....   1.050
   Max. coefficient     DIISMaxC        ....  10.000
 Trust-Rad. Augm. Hess. CNVTRAH         .... auto
   Auto Start mean grad. ratio tolernc. ....  1.125000
   Auto Start start iteration           ....     1
   Auto Start num. interpolation iter.  ....    10
   Max. Number of Micro iterations      ....    16
   Max. Number of Macro iterations      .... Maxiter - #DIIS iter
   Number of Davidson start vectors     ....     2
   Converg. threshold I  (grad. norm)   ....   5.000e-05
   Converg. threshold II (energy diff.) ....   1.000e-06
   Grad. Scal. Fac. for Micro threshold ....   0.100
   Minimum threshold for Micro iter.    ....   0.010
   NR start threshold (gradient norm)   ....   0.001
   Initial trust radius                 ....   0.400
   Minimum AH scaling param. (alpha)    ....   1.000
   Maximum AH scaling param. (alpha)    .... 1000.000
   Orbital update algorithm             .... Taylor
   White noise on init. David. guess    .... on
   Maximum white noise                  ....   0.010
   Quad. conv. algorithm                .... NR
 SOSCF                  CNVSOSCF        .... off
 Level Shifting         CNVShift        .... on
   Level shift para.    LevelShift      ....    0.2500
   Turn off err/grad.   ShiftErr        ....    0.0010
 Zerner damping         CNVZerner       .... off
 Static damping         CNVDamp         .... on
   Fraction old density DampFac         ....    0.7000
   Max. Damping (<1)    DampMax         ....    0.9800
   Min. Damping (>=0)   DampMin         ....    0.0000
   Turn off err/grad.   DampErr         ....    0.1000
 Fernandez-Rico         CNVRico         .... off

SCF Procedure:
 Maximum # iterations   MaxIter         ....   125
 SCF integral mode      SCFMode         .... Direct
   Integral package                     .... SHARK and LIBINT hybrid scheme
 Reset frequency        DirectResetFreq ....    20
 Integral Threshold     Thresh          ....  1.000e-10 Eh
 Primitive CutOff       TCut            ....  1.000e-11 Eh

Convergence Tolerance:
 Convergence Check Mode ConvCheckMode   .... Total+1el-Energy
 Convergence forced     ConvForced      .... 0
 Energy Change          TolE            ....  1.000e-06 Eh
 1-El. energy change                    ....  1.000e-03 Eh
 DIIS Error             TolErr          ....  1.000e-06


Diagonalization of the overlap matrix:
Smallest eigenvalue                        ... 6.714e-05
Time for diagonalization                   ...    0.063 sec
Threshold for overlap eigenvalues          ... 1.000e-08
Number of eigenvalues below threshold      ... 0
Time for construction of square roots      ...    0.064 sec
Total time needed                          ...    0.129 sec

---------------------
INITIAL GUESS: MOREAD
---------------------
Guess MOs are being read from file: EPRII_i.ges
Input geometry compatible with but different from current geometry
Input basis set matches current basis set (good)
MOs were renormalized
MOs were reorthogonalized (Cholesky)
                      ------------------
                      INITIAL GUESS DONE (   0.3 sec)
                      ------------------
-------------------
DFT GRID GENERATION
-------------------

General Integration Accuracy     IntAcc      ... 4.388
Radial Grid Type                 RadialGrid  ... OptM3 with GC (2021)
Angular Grid (max. ang.)         AngularGrid ... 4 (Lebedev-302)
Angular grid pruning method      GridPruning ... 4 (adaptive)
Weight generation scheme         WeightScheme... Becke
Basis function cutoff            BFCut       ... 1.0000e-10
Integration weight cutoff        WCut        ... 1.0000e-14
Angular grids for H and He will be reduced by one unit
Partially contracted basis set               ... off
Rotationally invariant grid construction     ... off

Total number of grid points                  ...   223193
Total number of batches                      ...     3514
Average number of points per batch           ...       63
Average number of grid points per atom       ...     4555
Time for grid setup =    1.391 sec

--------------------
COSX GRID GENERATION
--------------------

GRIDX 1
-------
General Integration Accuracy     IntAcc      ... 3.816
Radial Grid Type                 RadialGrid  ... OptM3 with GC (2021)
Angular Grid (max. ang.)         AngularGrid ... 1 (Lebedev-50)
Angular grid pruning method      GridPruning ... 4 (adaptive)
Weight generation scheme         WeightScheme... Becke
Basis function cutoff            BFCut       ... 1.0000e-10
Integration weight cutoff        WCut        ... 1.0000e-14
Angular grids for H and He will be reduced by one unit
Partially contracted basis set               ... on
Rotationally invariant grid construction     ... off

Total number of grid points                  ...    28440
Total number of batches                      ...      468
Average number of points per batch           ...       60
Average number of grid points per atom       ...      580
UseSFitting                                  ... on

GRIDX 2
-------
General Integration Accuracy     IntAcc      ... 4.020
Radial Grid Type                 RadialGrid  ... OptM3 with GC (2021)
Angular Grid (max. ang.)         AngularGrid ... 2 (Lebedev-110)
Angular grid pruning method      GridPruning ... 4 (adaptive)
Weight generation scheme         WeightScheme... Becke
Basis function cutoff            BFCut       ... 1.0000e-10
Integration weight cutoff        WCut        ... 1.0000e-14
Angular grids for H and He will be reduced by one unit
Partially contracted basis set               ... on
Rotationally invariant grid construction     ... off

Total number of grid points                  ...    60667
Total number of batches                      ...      976
Average number of points per batch           ...       62
Average number of grid points per atom       ...     1238
UseSFitting                                  ... on

GRIDX 3
-------
General Integration Accuracy     IntAcc      ... 4.338
Radial Grid Type                 RadialGrid  ... OptM3 with GC (2021)
Angular Grid (max. ang.)         AngularGrid ... 3 (Lebedev-194)
Angular grid pruning method      GridPruning ... 4 (adaptive)
Weight generation scheme         WeightScheme... Becke
Basis function cutoff            BFCut       ... 1.0000e-10
Integration weight cutoff        WCut        ... 1.0000e-14
Angular grids for H and He will be reduced by one unit
Partially contracted basis set               ... on
Rotationally invariant grid construction     ... off

Total number of grid points                  ...   132677
Total number of batches                      ...     2101
Average number of points per batch           ...       63
Average number of grid points per atom       ...     2708
UseSFitting                                  ... on

Time for X-Grid setup             =    2.566 sec

--------------
SCF ITERATIONS
--------------
ITER       Energy         Delta-E        Max-DP      RMS-DP      [F,P]     Damp
               ***  Starting incremental Fock matrix formation  ***
  0   -928.9726832210   0.000000000000 0.00674533  0.00004707  0.0021979 0.7000
  1   -928.9728560860  -0.000172865076 0.00655887  0.00004172  0.0015890 0.7000
                               ***Turning on DIIS***
  2   -928.9729791215  -0.000123035467 0.01698214  0.00010378  0.0011304 0.0000
  3   -928.9732657632  -0.000286641715 0.00067022  0.00001008  0.0003318 0.0000
               *** Restarting incremental Fock matrix formation ***
                                   *** Resetting DIIS ***
  4   -928.9732608158   0.000004947425 0.00090689  0.00001157  0.0003817 0.0000
  5   -928.9732560895   0.000004726341 0.00045664  0.00000640  0.0004503 0.0000
  6   -928.9732672617  -0.000011172238 0.00027052  0.00000160  0.0001273 0.0000
  7   -928.9732673464  -0.000000084707 0.00012024  0.00000098  0.0001458 0.0000
                 **** Energy Check signals convergence ****

               *****************************************************
               *                     SUCCESS                       *
               *           SCF CONVERGED AFTER   8 CYCLES          *
               *****************************************************

Old exchange energy                            =    -26.606496651 Eh
New exchange energy                            =    -26.606496678 Eh
Exchange energy change after final integration =     -0.000000026 Eh
Total energy after final integration           =   -928.973267535 Eh
Final COS-X integration done in                =     9.677 sec

----------------
TOTAL SCF ENERGY
----------------

Total Energy       :         -928.97326753 Eh          -25278.64775 eV

Components:
Nuclear Repulsion  :         1721.12307006 Eh           46834.13974 eV
Electronic Energy  :        -2650.09633760 Eh          -72112.78749 eV
One Electron Energy:        -4671.11727909 Eh         -127107.56319 eV
Two Electron Energy:         2021.02094149 Eh           54994.77570 eV
Max COSX asymmetry :            0.00000330 Eh               0.00009 eV

Virial components:
Potential Energy   :        -1850.51413302 Eh          -50355.04956 eV
Kinetic Energy     :          921.54086548 Eh           25076.40181 eV
Virial Ratio       :            2.00806519


DFT components:
N(Alpha)           :       85.000118696813 electrons
N(Beta)            :       84.000107617623 electrons
N(Total)           :      169.000226314436 electrons
E(X)               :     -105.553792944144 Eh       
E(C)               :       -6.576206350992 Eh       
E(XC)              :     -112.129999295136 Eh       
DFET-embed. en.    :        0.000000000000 Eh       

---------------
SCF CONVERGENCE
---------------

  Last Energy change         ...   -1.6190e-07  Tolerance :   1.0000e-06
  Last MAX-Density change    ...    0.0000e+00  Tolerance :   1.0000e-05
  Last RMS-Density change    ...    0.0000e+00  Tolerance :   1.0000e-06
  Last DIIS Error            ...    4.4454e-05  Tolerance :   1.0000e-06

             **** THE GBW FILE WAS UPDATED (EPRII_i.gbw) ****
             **** DENSITY EPRII_i.scfp WAS UPDATED ****
             **** ENERGY FILE WAS UPDATED (EPRII_i.en.tmp) ****
----------------------
UHF SPIN CONTAMINATION
----------------------

Warning: in a DFT calculation there is little theoretical justification to 
         calculate <S**2> as in Hartree-Fock theory. We will do it anyways
         but you should keep in mind that the values have only limited relevance

Expectation value of <S**2>     :     0.788261
Ideal value S*(S+1) for S=0.5   :     0.750000
Deviation                       :     0.038261

             **** THE GBW FILE WAS UPDATED (EPRII_i.gbw) ****
             **** DENSITY EPRII_i.scfp WAS UPDATED ****
----------------
ORBITAL ENERGIES
----------------
                 SPIN UP ORBITALS
  NO   OCC          E(Eh)            E(eV) 
   0   1.0000     -10.227896      -278.3152 
   1   1.0000     -10.224942      -278.2348 
   2   1.0000     -10.222895      -278.1791 
   3   1.0000     -10.212576      -277.8983 
   4   1.0000     -10.209280      -277.8086 
   5   1.0000     -10.206639      -277.7368 
   6   1.0000     -10.205376      -277.7024 
   7   1.0000     -10.205080      -277.6943 
   8   1.0000     -10.204897      -277.6894 
   9   1.0000     -10.203994      -277.6648 
  10   1.0000     -10.203807      -277.6597 
  11   1.0000     -10.202867      -277.6341 
  12   1.0000     -10.202731      -277.6304 
  13   1.0000     -10.200104      -277.5590 
  14   1.0000     -10.198373      -277.5118 
  15   1.0000     -10.196882      -277.4713 
  16   1.0000     -10.196832      -277.4699 
  17   1.0000     -10.189003      -277.2569 
  18   1.0000     -10.186600      -277.1915 
  19   1.0000     -10.184302      -277.1289 
  20   1.0000     -10.181040      -277.0402 
  21   1.0000     -10.180672      -277.0302 
  22   1.0000     -10.173221      -276.8274 
  23   1.0000     -10.170790      -276.7613 
  24   1.0000      -0.872028       -23.7291 
  25   1.0000      -0.860435       -23.4136 
  26   1.0000      -0.817971       -22.2581 
  27   1.0000      -0.797740       -21.7076 
  28   1.0000      -0.793281       -21.5863 
  29   1.0000      -0.777337       -21.1524 
  30   1.0000      -0.765797       -20.8384 
  31   1.0000      -0.750110       -20.4115 
  32   1.0000      -0.744531       -20.2597 
  33   1.0000      -0.728973       -19.8364 
  34   1.0000      -0.713796       -19.4234 
  35   1.0000      -0.696552       -18.9541 
  36   1.0000      -0.656245       -17.8573 
  37   1.0000      -0.643880       -17.5209 
  38   1.0000      -0.618414       -16.8279 
  39   1.0000      -0.613104       -16.6834 
  40   1.0000      -0.609342       -16.5810 
  41   1.0000      -0.593386       -16.1469 
  42   1.0000      -0.581409       -15.8209 
  43   1.0000      -0.563288       -15.3278 
  44   1.0000      -0.542172       -14.7532 
  45   1.0000      -0.531332       -14.4583 
  46   1.0000      -0.506755       -13.7895 
  47   1.0000      -0.493208       -13.4209 
  48   1.0000      -0.480994       -13.0885 
  49   1.0000      -0.476301       -12.9608 
  50   1.0000      -0.470886       -12.8135 
  51   1.0000      -0.463759       -12.6195 
  52   1.0000      -0.455061       -12.3828 
  53   1.0000      -0.437642       -11.9088 
  54   1.0000      -0.432469       -11.7681 
  55   1.0000      -0.428721       -11.6661 
  56   1.0000      -0.425599       -11.5811 
  57   1.0000      -0.425259       -11.5719 
  58   1.0000      -0.422413       -11.4944 
  59   1.0000      -0.411695       -11.2028 
  60   1.0000      -0.399561       -10.8726 
  61   1.0000      -0.396927       -10.8009 
  62   1.0000      -0.383673       -10.4403 
  63   1.0000      -0.378692       -10.3047 
  64   1.0000      -0.376469       -10.2443 
  65   1.0000      -0.364830        -9.9275 
  66   1.0000      -0.362635        -9.8678 
  67   1.0000      -0.356412        -9.6985 
  68   1.0000      -0.355187        -9.6651 
  69   1.0000      -0.352134        -9.5821 
  70   1.0000      -0.338476        -9.2104 
  71   1.0000      -0.333621        -9.0783 
  72   1.0000      -0.332547        -9.0491 
  73   1.0000      -0.331946        -9.0327 
  74   1.0000      -0.326911        -8.8957 
  75   1.0000      -0.322760        -8.7827 
  76   1.0000      -0.321947        -8.7606 
  77   1.0000      -0.299635        -8.1535 
  78   1.0000      -0.276278        -7.5179 
  79   1.0000      -0.273457        -7.4411 
  80   1.0000      -0.268182        -7.2976 
  81   1.0000      -0.258472        -7.0334 
  82   1.0000      -0.255878        -6.9628 
  83   1.0000      -0.217439        -5.9168 
  84   1.0000      -0.171703        -4.6723 
  85   0.0000      -0.059455        -1.6179 
  86   0.0000      -0.015782        -0.4295 
  87   0.0000      -0.015199        -0.4136 
  88   0.0000       0.009659         0.2628 
  89   0.0000       0.015500         0.4218 
  90   0.0000       0.019772         0.5380 
  91   0.0000       0.022356         0.6083 
  92   0.0000       0.028623         0.7789 
  93   0.0000       0.034409         0.9363 
  94   0.0000       0.037167         1.0114 
  95   0.0000       0.039649         1.0789 
  96   0.0000       0.044114         1.2004 
  97   0.0000       0.046214         1.2575 
  98   0.0000       0.048063         1.3079 
  99   0.0000       0.056932         1.5492 
 100   0.0000       0.062668         1.7053 
 101   0.0000       0.065464         1.7814 
 102   0.0000       0.070271         1.9122 
 103   0.0000       0.074216         2.0195 
 104   0.0000       0.082977         2.2579 
 105   0.0000       0.084423         2.2973 
 106   0.0000       0.092140         2.5073 
 107   0.0000       0.099343         2.7033 
 108   0.0000       0.110792         3.0148 
 109   0.0000       0.113527         3.0892 
 110   0.0000       0.124636         3.3915 
 111   0.0000       0.126726         3.4484 
 112   0.0000       0.135793         3.6951 
 113   0.0000       0.148233         4.0336 
 114   0.0000       0.151103         4.1117 
 115   0.0000       0.159212         4.3324 
 116   0.0000       0.161903         4.4056 
 117   0.0000       0.175204         4.7675 
 118   0.0000       0.176821         4.8116 
 119   0.0000       0.184537         5.0215 
 120   0.0000       0.186487         5.0746 
 121   0.0000       0.193960         5.2779 
 122   0.0000       0.197112         5.3637 
 123   0.0000       0.197678         5.3791 
 124   0.0000       0.200647         5.4599 
 125   0.0000       0.201237         5.4759 
 126   0.0000       0.202518         5.5108 
 127   0.0000       0.205490         5.5917 
 128   0.0000       0.216237         5.8841 
 129   0.0000       0.219070         5.9612 
 130   0.0000       0.220701         6.0056 
 131   0.0000       0.222970         6.0673 
 132   0.0000       0.225845         6.1456 
 133   0.0000       0.235237         6.4011 
 134   0.0000       0.239776         6.5246 
 135   0.0000       0.245835         6.6895 
 136   0.0000       0.247742         6.7414 
 137   0.0000       0.253355         6.8942 
 138   0.0000       0.254187         6.9168 
 139   0.0000       0.254778         6.9329 
 140   0.0000       0.257681         7.0119 
 141   0.0000       0.264850         7.2069 
 142   0.0000       0.266591         7.2543 
 143   0.0000       0.273548         7.4436 
 144   0.0000       0.275826         7.5056 
 145   0.0000       0.278153         7.5689 
 146   0.0000       0.283697         7.7198 
 147   0.0000       0.286792         7.8040 
 148   0.0000       0.288230         7.8431 
 149   0.0000       0.293402         7.9839 
 150   0.0000       0.293676         7.9913 
 151   0.0000       0.296624         8.0716 
 152   0.0000       0.300085         8.1657 
 153   0.0000       0.300855         8.1867 
 154   0.0000       0.303763         8.2658 
 155   0.0000       0.306892         8.3510 
 156   0.0000       0.313821         8.5395 
 157   0.0000       0.314520         8.5585 
 158   0.0000       0.317257         8.6330 
 159   0.0000       0.321162         8.7393 
 160   0.0000       0.323674         8.8076 
 161   0.0000       0.323993         8.8163 
 162   0.0000       0.326966         8.8972 
 163   0.0000       0.333840         9.0842 
 164   0.0000       0.334761         9.1093 
 165   0.0000       0.344704         9.3799 
 166   0.0000       0.346635         9.4324 
 167   0.0000       0.347840         9.4652 
 168   0.0000       0.349931         9.5221 
 169   0.0000       0.354401         9.6437 
 170   0.0000       0.362129         9.8540 
 171   0.0000       0.368310        10.0222 
 172   0.0000       0.369065        10.0428 
 173   0.0000       0.376186        10.2365 
 174   0.0000       0.377770        10.2796 
 175   0.0000       0.384821        10.4715 
 176   0.0000       0.387230        10.5371 
 177   0.0000       0.397757        10.8235 
 178   0.0000       0.402075        10.9410 
 179   0.0000       0.405957        11.0466 
 180   0.0000       0.412822        11.2335 
 181   0.0000       0.415521        11.3069 
 182   0.0000       0.417800        11.3689 
 183   0.0000       0.421113        11.4591 
 184   0.0000       0.423750        11.5308 
 185   0.0000       0.424557        11.5528 
 186   0.0000       0.430299        11.7090 
 187   0.0000       0.438158        11.9229 
 188   0.0000       0.445845        12.1321 
 189   0.0000       0.447197        12.1688 
 190   0.0000       0.448425        12.2023 
 191   0.0000       0.456789        12.4299 
 192   0.0000       0.457879        12.4595 
 193   0.0000       0.464637        12.6434 
 194   0.0000       0.467620        12.7246 
 195   0.0000       0.471741        12.8367 
 196   0.0000       0.479075        13.0363 
 197   0.0000       0.483582        13.1589 
 198   0.0000       0.487286        13.2597 
 199   0.0000       0.489816        13.3286 
 200   0.0000       0.503230        13.6936 
 201   0.0000       0.505253        13.7486 
 202   0.0000       0.508301        13.8316 
 203   0.0000       0.512902        13.9568 
 204   0.0000       0.516588        14.0571 
 205   0.0000       0.519482        14.1358 
 206   0.0000       0.532187        14.4815 
 207   0.0000       0.534512        14.5448 
 208   0.0000       0.536581        14.6011 
 209   0.0000       0.539927        14.6922 
 210   0.0000       0.548353        14.9214 
 211   0.0000       0.552678        15.0391 
 212   0.0000       0.561340        15.2748 
 213   0.0000       0.572832        15.5876 
 214   0.0000       0.583169        15.8688 
 215   0.0000       0.590208        16.0604 
 216   0.0000       0.590890        16.0789 
 217   0.0000       0.592530        16.1236 
 218   0.0000       0.600129        16.3303 
 219   0.0000       0.602535        16.3958 
 220   0.0000       0.613313        16.6891 
 221   0.0000       0.621527        16.9126 
 222   0.0000       0.637449        17.3459 
 223   0.0000       0.642238        17.4762 
 224   0.0000       0.655715        17.8429 
 225   0.0000       0.662036        18.0149 
 226   0.0000       0.663729        18.0610 
 227   0.0000       0.674311        18.3489 
 228   0.0000       0.681768        18.5518 
 229   0.0000       0.686189        18.6722 
 230   0.0000       0.704420        19.1682 
 231   0.0000       0.721010        19.6197 
 232   0.0000       0.736290        20.0355 
 233   0.0000       0.753739        20.5103 
 234   0.0000       0.774355        21.0713 
 235   0.0000       0.776028        21.1168 
 236   0.0000       0.790757        21.5176 
 237   0.0000       0.795049        21.6344 
 238   0.0000       0.815352        22.1869 
 239   0.0000       0.819587        22.3021 
 240   0.0000       0.834136        22.6980 
 241   0.0000       0.839016        22.8308 
 242   0.0000       0.844931        22.9917 
 243   0.0000       0.847497        23.0616 
 244   0.0000       0.856228        23.2991 
 245   0.0000       0.860338        23.4110 
 246   0.0000       0.864425        23.5222 
 247   0.0000       0.868147        23.6235 
 248   0.0000       0.870484        23.6871 
 249   0.0000       0.880009        23.9463 
 250   0.0000       0.885762        24.1028 
 251   0.0000       0.895299        24.3623 
 252   0.0000       0.900813        24.5124 
 253   0.0000       0.900912        24.5151 
 254   0.0000       0.907734        24.7007 
 255   0.0000       0.915070        24.9003 
 256   0.0000       0.920277        25.0420 
 257   0.0000       0.922859        25.1123 
 258   0.0000       0.927647        25.2426 
 259   0.0000       0.928330        25.2612 
 260   0.0000       0.938362        25.5341 
 261   0.0000       0.941002        25.6060 
 262   0.0000       0.943417        25.6717 
 263   0.0000       0.946130        25.7455 
 264   0.0000       0.959765        26.1165 
 265   0.0000       0.961436        26.1620 
 266   0.0000       0.965020        26.2595 
 267   0.0000       0.972806        26.4714 
 268   0.0000       0.978482        26.6258 
 269   0.0000       0.981232        26.7007 
 270   0.0000       0.990048        26.9406 
 271   0.0000       0.991557        26.9816 
 272   0.0000       0.995175        27.0801 
 273   0.0000       0.996474        27.1154 
 274   0.0000       1.000611        27.2280 
 275   0.0000       1.002265        27.2730 
 276   0.0000       1.008663        27.4471 
 277   0.0000       1.011112        27.5138 
 278   0.0000       1.020525        27.7699 
 279   0.0000       1.025919        27.9167 
 280   0.0000       1.027901        27.9706 
 281   0.0000       1.029821        28.0228 
 282   0.0000       1.034858        28.1599 
 283   0.0000       1.036747        28.2113 
 284   0.0000       1.056894        28.7596 
 285   0.0000       1.058489        28.8029 
 286   0.0000       1.060148        28.8481 
 287   0.0000       1.071272        29.1508 
 288   0.0000       1.071836        29.1661 
 289   0.0000       1.090901        29.6849 
 290   0.0000       1.102414        29.9982 
 291   0.0000       1.108087        30.1526 
 292   0.0000       1.110529        30.2190 
 293   0.0000       1.116471        30.3807 
 294   0.0000       1.120234        30.4831 
 295   0.0000       1.138639        30.9839 
 296   0.0000       1.139820        31.0161 
 297   0.0000       1.142232        31.0817 
 298   0.0000       1.169096        31.8127 
 299   0.0000       1.171744        31.8848 
 300   0.0000       1.178890        32.0792 
 301   0.0000       1.182190        32.1690 
 302   0.0000       1.187493        32.3133 
 303   0.0000       1.188854        32.3504 
 304   0.0000       1.196566        32.5602 
 305   0.0000       1.204165        32.7670 
 306   0.0000       1.207089        32.8466 
 307   0.0000       1.215176        33.0666 
 308   0.0000       1.243012        33.8241 
 309   0.0000       1.248243        33.9664 
 310   0.0000       1.257214        34.2105 
 311   0.0000       1.257921        34.2298 
 312   0.0000       1.269529        34.5457 
 313   0.0000       1.272830        34.6355 
 314   0.0000       1.279861        34.8268 
 315   0.0000       1.295683        35.2573 
 316   0.0000       1.303712        35.4758 
 317   0.0000       1.307232        35.5716 
 318   0.0000       1.311182        35.6791 
 319   0.0000       1.318424        35.8761 
 320   0.0000       1.332958        36.2716 
 321   0.0000       1.347851        36.6769 
 322   0.0000       1.354141        36.8481 
 323   0.0000       1.363056        37.0906 
 324   0.0000       1.364323        37.1251 
 325   0.0000       1.366456        37.1832 
 326   0.0000       1.383908        37.6581 
 327   0.0000       1.397619        38.0311 
 328   0.0000       1.404136        38.2085 
 329   0.0000       1.414393        38.4876 
 330   0.0000       1.428242        38.8645 
 331   0.0000       1.428448        38.8701 
 332   0.0000       1.430445        38.9244 
 333   0.0000       1.432045        38.9679 
 334   0.0000       1.440568        39.1999 
 335   0.0000       1.441293        39.2196 
 336   0.0000       1.451084        39.4860 
 337   0.0000       1.453923        39.5633 
 338   0.0000       1.464309        39.8459 
 339   0.0000       1.467377        39.9294 
 340   0.0000       1.476588        40.1800 
 341   0.0000       1.478992        40.2454 
 342   0.0000       1.498264        40.7698 
 343   0.0000       1.500913        40.8419 
 344   0.0000       1.506860        41.0038 
 345   0.0000       1.512131        41.1472 
 346   0.0000       1.514587        41.2140 
 347   0.0000       1.520750        41.3817 
 348   0.0000       1.541648        41.9504 
 349   0.0000       1.554883        42.3105 
 350   0.0000       1.561440        42.4889 
 351   0.0000       1.561738        42.4970 
 352   0.0000       1.563616        42.5481 
 353   0.0000       1.563669        42.5496 
 354   0.0000       1.573378        42.8138 
 355   0.0000       1.584594        43.1190 
 356   0.0000       1.590254        43.2730 
 357   0.0000       1.590761        43.2868 
 358   0.0000       1.596995        43.4564 
 359   0.0000       1.600045        43.5394 
 360   0.0000       1.605001        43.6743 
 361   0.0000       1.619962        44.0814 
 362   0.0000       1.625028        44.2193 
 363   0.0000       1.633346        44.4456 
 364   0.0000       1.636823        44.5402 
 365   0.0000       1.638642        44.5897 
 366   0.0000       1.641368        44.6639 
 367   0.0000       1.658984        45.1432 
 368   0.0000       1.659145        45.1476 
 369   0.0000       1.662502        45.2390 
 370   0.0000       1.677916        45.6584 
 371   0.0000       1.685617        45.8680 
 372   0.0000       1.689290        45.9679 
 373   0.0000       1.690809        46.0093 
 374   0.0000       1.696274        46.1580 
 375   0.0000       1.702121        46.3171 
 376   0.0000       1.705918        46.4204 
 377   0.0000       1.709551        46.5192 
 378   0.0000       1.716895        46.7191 
 379   0.0000       1.719840        46.7992 
 380   0.0000       1.732546        47.1450 
 381   0.0000       1.742870        47.4259 
 382   0.0000       1.746538        47.5257 
 383   0.0000       1.752346        47.6837 
 384   0.0000       1.768337        48.1189 
 385   0.0000       1.768860        48.1331 
 386   0.0000       1.777834        48.3773 
 387   0.0000       1.788141        48.6578 
 388   0.0000       1.789472        48.6940 
 389   0.0000       1.790901        48.7329 
 390   0.0000       1.794854        48.8405 
 391   0.0000       1.800393        48.9912 
 392   0.0000       1.808509        49.2120 
 393   0.0000       1.815153        49.3928 
 394   0.0000       1.824693        49.6524 
 395   0.0000       1.831757        49.8446 
 396   0.0000       1.838683        50.0331 
 397   0.0000       1.846743        50.2524 
 398   0.0000       1.855510        50.4910 
 399   0.0000       1.859316        50.5946 
 400   0.0000       1.879995        51.1573 
 401   0.0000       1.917289        52.1721 
 402   0.0000       1.917987        52.1911 
 403   0.0000       1.929143        52.4946 
 404   0.0000       1.936861        52.7047 
 405   0.0000       1.940991        52.8170 
 406   0.0000       1.952114        53.1197 
 407   0.0000       1.953718        53.1634 
 408   0.0000       1.975097        53.7451 
 409   0.0000       1.976933        53.7951 
 410   0.0000       2.015236        54.8373 
 411   0.0000       2.021132        54.9978 
 412   0.0000       2.035178        55.3800 
 413   0.0000       2.039956        55.5100 
 414   0.0000       2.045210        55.6530 
 415   0.0000       2.054867        55.9158 
 416   0.0000       2.073459        56.4217 
 417   0.0000       2.090083        56.8740 
 418   0.0000       2.101535        57.1857 
 419   0.0000       2.108082        57.3638 
 420   0.0000       2.111214        57.4491 
 421   0.0000       2.126591        57.8675 
 422   0.0000       2.150639        58.5219 
 423   0.0000       2.154695        58.6322 
 424   0.0000       2.182063        59.3769 
 425   0.0000       2.187229        59.5175 
 426   0.0000       2.191174        59.6249 
 427   0.0000       2.198449        59.8229 
 428   0.0000       2.211629        60.1815 
 429   0.0000       2.224423        60.5296 
 430   0.0000       2.245498        61.1031 
 431   0.0000       2.246678        61.1352 
 432   0.0000       2.249445        61.2105 
 433   0.0000       2.263788        61.6008 
 434   0.0000       2.266836        61.6837 
 435   0.0000       2.287798        62.2542 
 436   0.0000       2.312278        62.9203 
 437   0.0000       2.315848        63.0174 
 438   0.0000       2.324340        63.2485 
 439   0.0000       2.329477        63.3883 
 440   0.0000       2.333483        63.4973 
 441   0.0000       2.361559        64.2613 
 442   0.0000       2.382833        64.8402 
 443   0.0000       2.395710        65.1906 
 444   0.0000       2.396524        65.2127 
 445   0.0000       2.404479        65.4292 
 446   0.0000       2.417484        65.7831 
 447   0.0000       2.420280        65.8592 
 448   0.0000       2.433142        66.2091 
 449   0.0000       2.450366        66.6778 
 450   0.0000       2.453771        66.7705 
 451   0.0000       2.465860        67.0995 
 452   0.0000       2.474324        67.3298 
 453   0.0000       2.475234        67.3545 
 454   0.0000       2.486989        67.6744 
 455   0.0000       2.492378        67.8211 
 456   0.0000       2.505892        68.1888 
 457   0.0000       2.517626        68.5081 
 458   0.0000       2.524894        68.7058 
 459   0.0000       2.534472        68.9665 
 460   0.0000       2.534605        68.9701 
 461   0.0000       2.545122        69.2563 
 462   0.0000       2.562904        69.7402 
 463   0.0000       2.564283        69.7777 
 464   0.0000       2.564819        69.7923 
 465   0.0000       2.575915        70.0942 
 466   0.0000       2.583686        70.3057 
 467   0.0000       2.585888        70.3656 
 468   0.0000       2.606091        70.9153 
 469   0.0000       2.617467        71.2249 
 470   0.0000       2.619958        71.2927 
 471   0.0000       2.630449        71.5782 
 472   0.0000       2.649197        72.0883 
 473   0.0000       2.706735        73.6540 
 474   0.0000       2.743712        74.6602 
 475   0.0000       2.766285        75.2744 
 476   0.0000       2.794012        76.0289 
 477   0.0000       2.814494        76.5863 
 478   0.0000       2.868109        78.0452 
 479   0.0000       2.883237        78.4569 
 480   0.0000       2.955313        80.4182 
 481   0.0000       2.968338        80.7726 
 482   0.0000       3.082351        83.8750 
 483   0.0000       3.286038        89.4176 
 484   0.0000       3.421878        93.1140 
 485   0.0000       4.983818       135.6166 
 486   0.0000       4.991535       135.8266 
 487   0.0000       5.002915       136.1362 
 488   0.0000       5.015395       136.4758 
 489   0.0000       5.015442       136.4771 
 490   0.0000       5.023715       136.7022 
 491   0.0000       5.028574       136.8344 
 492   0.0000       5.029469       136.8588 
 493   0.0000       5.039668       137.1363 
 494   0.0000       5.051702       137.4638 
 495   0.0000       5.090255       138.5129 
 496   0.0000       5.097087       138.6988 
 497   0.0000       5.166638       140.5914 
 498   0.0000       5.200992       141.5262 
 499   0.0000       5.208550       141.7319 
 500   0.0000       5.238540       142.5479 
 501   0.0000       5.250354       142.8694 
 502   0.0000       5.252353       142.9238 
 503   0.0000       5.257944       143.0759 
 504   0.0000       5.283548       143.7727 
 505   0.0000       5.298408       144.1770 
 506   0.0000       5.309510       144.4791 
 507   0.0000       5.314933       144.6267 
 508   0.0000       5.318304       144.7184 
 509   0.0000       5.359779       145.8470 
 510   0.0000       5.368576       146.0864 
 511   0.0000       5.374580       146.2497 
 512   0.0000       5.382703       146.4708 
 513   0.0000       5.411289       147.2487 
 514   0.0000       5.425229       147.6280 
 515   0.0000       5.461918       148.6264 
 516   0.0000       5.484338       149.2364 
 517   0.0000       5.556181       151.1914 
 518   0.0000       5.571816       151.6168 
 519   0.0000       5.589312       152.0929 
 520   0.0000       5.626927       153.1165 
 521   0.0000       5.649844       153.7401 
 522   0.0000       5.659801       154.0110 
 523   0.0000       5.678270       154.5136 
 524   0.0000       5.733021       156.0034 
 525   0.0000       5.741444       156.2326 
 526   0.0000       5.776268       157.1802 
 527   0.0000       5.830433       158.6542 
 528   0.0000       5.851776       159.2349 
 529   0.0000       5.877985       159.9481 
 530   0.0000       5.920804       161.1133 
 531   0.0000       6.107599       166.1962 
 532   0.0000       6.275593       170.7676 
 533   0.0000       6.354404       172.9121 
 534   0.0000      29.612469       805.7963 
 535   0.0000      29.728834       808.9627 
 536   0.0000      29.805879       811.0592 
 537   0.0000      29.833863       811.8207 
 538   0.0000      29.854106       812.3715 
 539   0.0000      29.860610       812.5485 
 540   0.0000      29.957916       815.1963 
 541   0.0000      29.985264       815.9405 
 542   0.0000      29.994522       816.1924 
 543   0.0000      30.038335       817.3846 
 544   0.0000      30.075614       818.3991 
 545   0.0000      30.085025       818.6552 
 546   0.0000      30.099470       819.0482 
 547   0.0000      30.126931       819.7955 
 548   0.0000      30.135314       820.0236 
 549   0.0000      30.179564       821.2277 
 550   0.0000      30.209415       822.0400 
 551   0.0000      30.252481       823.2118 
 552   0.0000      30.256942       823.3332 
 553   0.0000      30.273513       823.7842 
 554   0.0000      30.296945       824.4218 
 555   0.0000      30.401219       827.2592 
 556   0.0000      30.503268       830.0361 
 557   0.0000      30.576704       832.0344 
 558   0.0000      36.608326       996.1632 
 559   0.0000      36.618269       996.4338 
 560   0.0000      36.632443       996.8194 
 561   0.0000      36.639092       997.0004 
 562   0.0000      36.642905       997.1041 
 563   0.0000      36.649161       997.2744 
 564   0.0000      36.654095       997.4086 
 565   0.0000      36.664784       997.6995 
 566   0.0000      36.675512       997.9914 
 567   0.0000      36.706238       998.8275 
 568   0.0000      36.718824       999.1700 
 569   0.0000      36.788716      1001.0719 
 570   0.0000      36.820483      1001.9363 
 571   0.0000      36.825907      1002.0839 
 572   0.0000      36.842851      1002.5450 
 573   0.0000      36.857516      1002.9440 
 574   0.0000      36.873360      1003.3751 
 575   0.0000      36.881333      1003.5921 
 576   0.0000      36.886877      1003.7429 
 577   0.0000      36.923597      1004.7421 
 578   0.0000      36.939523      1005.1755 
 579   0.0000      36.941167      1005.2203 
 580   0.0000      36.973959      1006.1126 
 581   0.0000      37.015761      1007.2501 
 582   0.0000      37.044361      1008.0283 

                 SPIN DOWN ORBITALS
  NO   OCC          E(Eh)            E(eV) 
   0   1.0000     -10.228250      -278.3248 
   1   1.0000     -10.224539      -278.2238 
   2   1.0000     -10.221572      -278.1431 
   3   1.0000     -10.211740      -277.8756 
   4   1.0000     -10.209163      -277.8054 
   5   1.0000     -10.206204      -277.7249 
   6   1.0000     -10.205039      -277.6932 
   7   1.0000     -10.204784      -277.6863 
   8   1.0000     -10.204560      -277.6802 
   9   1.0000     -10.204118      -277.6682 
  10   1.0000     -10.203857      -277.6611 
  11   1.0000     -10.202326      -277.6194 
  12   1.0000     -10.200221      -277.5621 
  13   1.0000     -10.199645      -277.5465 
  14   1.0000     -10.198428      -277.5133 
  15   1.0000     -10.197549      -277.4894 
  16   1.0000     -10.189652      -277.2745 
  17   1.0000     -10.188581      -277.2454 
  18   1.0000     -10.186793      -277.1967 
  19   1.0000     -10.184266      -277.1280 
  20   1.0000     -10.181037      -277.0401 
  21   1.0000     -10.180673      -277.0302 
  22   1.0000     -10.173230      -276.8277 
  23   1.0000     -10.170792      -276.7613 
  24   1.0000      -0.868739       -23.6396 
  25   1.0000      -0.859976       -23.4011 
  26   1.0000      -0.813175       -22.1276 
  27   1.0000      -0.795157       -21.6373 
  28   1.0000      -0.791870       -21.5479 
  29   1.0000      -0.776519       -21.1302 
  30   1.0000      -0.763836       -20.7850 
  31   1.0000      -0.749756       -20.4019 
  32   1.0000      -0.743552       -20.2331 
  33   1.0000      -0.724956       -19.7271 
  34   1.0000      -0.713074       -19.4037 
  35   1.0000      -0.694412       -18.8959 
  36   1.0000      -0.653147       -17.7730 
  37   1.0000      -0.642661       -17.4877 
  38   1.0000      -0.614903       -16.7324 
  39   1.0000      -0.610153       -16.6031 
  40   1.0000      -0.609106       -16.5746 
  41   1.0000      -0.592499       -16.1227 
  42   1.0000      -0.579764       -15.7762 
  43   1.0000      -0.560859       -15.2617 
  44   1.0000      -0.541595       -14.7376 
  45   1.0000      -0.530147       -14.4260 
  46   1.0000      -0.503587       -13.7033 
  47   1.0000      -0.492296       -13.3961 
  48   1.0000      -0.480063       -13.0632 
  49   1.0000      -0.474946       -12.9239 
  50   1.0000      -0.470046       -12.7906 
  51   1.0000      -0.460460       -12.5297 
  52   1.0000      -0.454852       -12.3771 
  53   1.0000      -0.437164       -11.8958 
  54   1.0000      -0.431381       -11.7385 
  55   1.0000      -0.426467       -11.6048 
  56   1.0000      -0.425388       -11.5754 
  57   1.0000      -0.424157       -11.5419 
  58   1.0000      -0.419962       -11.4277 
  59   1.0000      -0.411311       -11.1923 
  60   1.0000      -0.395795       -10.7701 
  61   1.0000      -0.392251       -10.6737 
  62   1.0000      -0.380687       -10.3590 
  63   1.0000      -0.376372       -10.2416 
  64   1.0000      -0.374199       -10.1825 
  65   1.0000      -0.363682        -9.8963 
  66   1.0000      -0.362253        -9.8574 
  67   1.0000      -0.355560        -9.6753 
  68   1.0000      -0.352245        -9.5851 
  69   1.0000      -0.351965        -9.5775 
  70   1.0000      -0.336118        -9.1462 
  71   1.0000      -0.332054        -9.0357 
  72   1.0000      -0.331823        -9.0294 
  73   1.0000      -0.330038        -8.9808 
  74   1.0000      -0.326542        -8.8857 
  75   1.0000      -0.322039        -8.7631 
  76   1.0000      -0.321302        -8.7431 
  77   1.0000      -0.296781        -8.0758 
  78   1.0000      -0.276237        -7.5168 
  79   1.0000      -0.267766        -7.2863 
  80   1.0000      -0.260011        -7.0753 
  81   1.0000      -0.257471        -7.0061 
[...]
  Y           0.9665752           -0.2563821            0.0008033
  Z           0.0008907            0.0002250           -0.9999996

Notes:  (1) The A matrix conforms to the "SAI" spin Hamiltonian convention.
        (2) Tensor is right-handed.

 -----------------------------------------------------------
 Nucleus  46H : A:ISTP=    1 I=  0.5 P=533.5514 MHz/au**3
                Q:ISTP=    2 I=  1.0 Q=  0.0029 barn     
 -----------------------------------------------------------
 Solving for nuclear perturbation:
Forming RHS of the CP-SCF equations         ... 
Calc. nucleus orbit integrals (SHARK)       ... done

------------------------------------------------------------------------------
                           ORCA CP-SCF CALCULATION
------------------------------------------------------------------------------

Input orbitals are from        ... EPRII_i.gbw
Input Perturbation             ... EPRII_i.pin.tmp
Wavefunction output            ... EPRII_i.pout.tmp
Perturbation mode              ... Imaginary perturbation
Solver                         ... POPLE
Max. number of iterations      ... 64
Convergence tolerance          ... 1.000e-03
Integral handling              ... Direct
DFT GridXC                     ... 1
COSX GridX                     ... 1
COSX IntAccX                   ... 3.067
COSX Algorithm                 ... Auto
Number of perturbations        ... 3
Number of operators            ... 2
Orbital ranges used for CP-SCF:
 Operator 0:  Orbitals   0... 84  to  85...582
 Operator 1:  Orbitals   0... 83  to  84...582
Variables per perturbation     ... 84246
DFT calculation                         ... on
XC functional terms                     ... off
Hybrid DFT                              ... on
   Exchange mixing (SCF)                ...  0.200
   Exchange mixing (CP-SCF)             ...  0.200
   GGA exch. scaling(SCF)               ...  0.720
   GGA exch. scaling (CP-SCF)           ...  0.720
   GGA corr. scaling (SCF)              ...  0.810
   GGA corr. scaling (CP-SCF)           ...  0.810

CP-SCF GRID
-----------

General Integration Accuracy     IntAcc      ... 3.467
Radial Grid Type                 RadialGrid  ... OptM3 with GC (2021)
Angular Grid (max. ang.)         AngularGrid ... 1 (Lebedev-50)
Angular grid pruning method      GridPruning ... 4 (adaptive)
Weight generation scheme         WeightScheme... Becke
Basis function cutoff            BFCut       ... 1.0000e-10
Integration weight cutoff        WCut        ... 1.0000e-14
Angular grids for H and He will be reduced by one unit
Partially contracted basis set               ... off
Rotationally invariant grid construction     ... off

Total number of grid points                  ...    31908
Total number of batches                      ...      520
Average number of points per batch           ...       61
Average number of grid points per atom       ...      651

CP-SCF GRIDX
------------

General Integration Accuracy     IntAcc      ... 3.067
Radial Grid Type                 RadialGrid  ... OptM3 with GC (2021)
Angular Grid (max. ang.)         AngularGrid ... 1 (Lebedev-50)
Angular grid pruning method      GridPruning ... 4 (adaptive)
Weight generation scheme         WeightScheme... Becke
Basis function cutoff            BFCut       ... 1.0000e-10
Integration weight cutoff        WCut        ... 1.0000e-14
Angular grids for H and He will be reduced by one unit
Partially contracted basis set               ... on
Rotationally invariant grid construction     ... off

Total number of grid points                  ...    14957
Total number of batches                      ...      263
Average number of points per batch           ...       56
Average number of grid points per atom       ...      305

Memory available               ... 850.3 MB
Memory needed per perturbation ...  20.0 MB
Perturbations treated per batch... 3
Number of batches              ... 1
     CP-SCF ITERATION   0:   4.2116e-02 (   2.4 sec   0/  3 done)
     CP-SCF ITERATION   1:   1.7509e-03 (   2.2 sec   1/  3 done)
     CP-SCF ITERATION   2:   9.3424e-05 (   1.9 sec   3/  3 done)
                    *** THE CP-SCF HAS CONVERGED ***

Forming final perturbed densities           ... done
Transforming perturbed density to AO basis  ... done

 Raw HFC matrix (all values in MHz): 
 -----------------------------------
                 1.4442              -0.2809               0.0020
                -0.2808               0.6044              -0.0006
                 0.0020              -0.0006               0.4142

 A(FC)           0.8209               0.8209               0.8209
 A(SD)          -0.4068              -0.3019               0.7087
 A(ORB+DIA)     -0.0000               0.0001              -0.0002    A(PC) =  -0.0000
 A(ORB)         -0.0000               0.0001              -0.0002    A(PC) =  -0.0000
 A(DIA)          0.0000              -0.0000               0.0000    A(PC) =   0.0000
             ----------           ----------           ----------
 A(Tot)          0.4142               0.5191               1.5295    A(iso)=    0.8209
 Orientation: 
  X          -0.0017470            0.2905300           -0.9568643
  Y           0.0006577            0.9568659            0.2905293
  Z           0.9999983           -0.0001218           -0.0018628

Notes:  (1) The A matrix conforms to the "SAI" spin Hamiltonian convention.
        (2) Tensor is right-handed.

 -----------------------------------------------------------
 Nucleus  47H : A:ISTP=    1 I=  0.5 P=533.5514 MHz/au**3
                Q:ISTP=    2 I=  1.0 Q=  0.0029 barn     
 -----------------------------------------------------------
 Solving for nuclear perturbation:
Forming RHS of the CP-SCF equations         ... 
Calc. nucleus orbit integrals (SHARK)       ... done

------------------------------------------------------------------------------
                           ORCA CP-SCF CALCULATION
------------------------------------------------------------------------------

Input orbitals are from        ... EPRII_i.gbw
Input Perturbation             ... EPRII_i.pin.tmp
Wavefunction output            ... EPRII_i.pout.tmp
Perturbation mode              ... Imaginary perturbation
Solver                         ... POPLE
Max. number of iterations      ... 64
Convergence tolerance          ... 1.000e-03
Integral handling              ... Direct
DFT GridXC                     ... 1
COSX GridX                     ... 1
COSX IntAccX                   ... 3.067
COSX Algorithm                 ... Auto
Number of perturbations        ... 3
Number of operators            ... 2
Orbital ranges used for CP-SCF:
 Operator 0:  Orbitals   0... 84  to  85...582
 Operator 1:  Orbitals   0... 83  to  84...582
Variables per perturbation     ... 84246
DFT calculation                         ... on
XC functional terms                     ... off
Hybrid DFT                              ... on
   Exchange mixing (SCF)                ...  0.200
   Exchange mixing (CP-SCF)             ...  0.200
   GGA exch. scaling(SCF)               ...  0.720
   GGA exch. scaling (CP-SCF)           ...  0.720
   GGA corr. scaling (SCF)              ...  0.810
   GGA corr. scaling (CP-SCF)           ...  0.810

CP-SCF GRID
-----------

General Integration Accuracy     IntAcc      ... 3.467
Radial Grid Type                 RadialGrid  ... OptM3 with GC (2021)
Angular Grid (max. ang.)         AngularGrid ... 1 (Lebedev-50)
Angular grid pruning method      GridPruning ... 4 (adaptive)
Weight generation scheme         WeightScheme... Becke
Basis function cutoff            BFCut       ... 1.0000e-10
Integration weight cutoff        WCut        ... 1.0000e-14
Angular grids for H and He will be reduced by one unit
Partially contracted basis set               ... off
Rotationally invariant grid construction     ... off

Total number of grid points                  ...    31908
Total number of batches                      ...      520
Average number of points per batch           ...       61
Average number of grid points per atom       ...      651

CP-SCF GRIDX
------------

General Integration Accuracy     IntAcc      ... 3.067
Radial Grid Type                 RadialGrid  ... OptM3 with GC (2021)
Angular Grid (max. ang.)         AngularGrid ... 1 (Lebedev-50)
Angular grid pruning method      GridPruning ... 4 (adaptive)
Weight generation scheme         WeightScheme... Becke
Basis function cutoff            BFCut       ... 1.0000e-10
Integration weight cutoff        WCut        ... 1.0000e-14
Angular grids for H and He will be reduced by one unit
Partially contracted basis set               ... on
Rotationally invariant grid construction     ... off

Total number of grid points                  ...    14957
Total number of batches                      ...      263
Average number of points per batch           ...       56
Average number of grid points per atom       ...      305

Memory available               ... 849.6 MB
Memory needed per perturbation ...  20.0 MB
Perturbations treated per batch... 3
Number of batches              ... 1
     CP-SCF ITERATION   0:   4.2080e-02 (   2.2 sec   0/  3 done)
     CP-SCF ITERATION   1:   1.7276e-03 (   2.2 sec   1/  3 done)
     CP-SCF ITERATION   2:   8.1015e-05 (   1.8 sec   3/  3 done)
                    *** THE CP-SCF HAS CONVERGED ***

Forming final perturbed densities           ... done
Transforming perturbed density to AO basis  ... done

 Raw HFC matrix (all values in MHz): 
 -----------------------------------
                 1.2912               0.0617               0.0017
                 0.0617               0.7011               0.0002
                 0.0017               0.0002               0.4724

 A(FC)           0.8216               0.8216               0.8216
 A(SD)          -0.3492              -0.1269               0.4762
 A(ORB+DIA)      0.0000               0.0001              -0.0002    A(PC) =  -0.0000
 A(ORB)         -0.0000               0.0001              -0.0002    A(PC) =  -0.0001
 A(DIA)          0.0000              -0.0000               0.0001    A(PC) =   0.0000
             ----------           ----------           ----------
 A(Tot)          0.4724               0.6947               1.2976    A(iso)=    0.8215
 Orientation: 
  X          -0.0019915           -0.1029604           -0.9946835
  Y          -0.0005027            0.9946854           -0.1029595
  Z           0.9999979            0.0002950           -0.0020327

Notes:  (1) The A matrix conforms to the "SAI" spin Hamiltonian convention.
        (2) Tensor is right-handed.

 -----------------------------------------------------------
 Nucleus  48H : A:ISTP=    1 I=  0.5 P=533.5514 MHz/au**3
                Q:ISTP=    2 I=  1.0 Q=  0.0029 barn     
 -----------------------------------------------------------
 Solving for nuclear perturbation:
Forming RHS of the CP-SCF equations         ... 
Calc. nucleus orbit integrals (SHARK)       ... done

------------------------------------------------------------------------------
                           ORCA CP-SCF CALCULATION
------------------------------------------------------------------------------

Input orbitals are from        ... EPRII_i.gbw
Input Perturbation             ... EPRII_i.pin.tmp
Wavefunction output            ... EPRII_i.pout.tmp
Perturbation mode              ... Imaginary perturbation
Solver                         ... POPLE
Max. number of iterations      ... 64
Convergence tolerance          ... 1.000e-03
Integral handling              ... Direct
DFT GridXC                     ... 1
COSX GridX                     ... 1
COSX IntAccX                   ... 3.067
COSX Algorithm                 ... Auto
Number of perturbations        ... 3
Number of operators            ... 2
Orbital ranges used for CP-SCF:
 Operator 0:  Orbitals   0... 84  to  85...582
 Operator 1:  Orbitals   0... 83  to  84...582
Variables per perturbation     ... 84246
DFT calculation                         ... on
XC functional terms                     ... off
Hybrid DFT                              ... on
   Exchange mixing (SCF)                ...  0.200
   Exchange mixing (CP-SCF)             ...  0.200
   GGA exch. scaling(SCF)               ...  0.720
   GGA exch. scaling (CP-SCF)           ...  0.720
   GGA corr. scaling (SCF)              ...  0.810
   GGA corr. scaling (CP-SCF)           ...  0.810

CP-SCF GRID
-----------

General Integration Accuracy     IntAcc      ... 3.467
Radial Grid Type                 RadialGrid  ... OptM3 with GC (2021)
Angular Grid (max. ang.)         AngularGrid ... 1 (Lebedev-50)
Angular grid pruning method      GridPruning ... 4 (adaptive)
Weight generation scheme         WeightScheme... Becke
Basis function cutoff            BFCut       ... 1.0000e-10
Integration weight cutoff        WCut        ... 1.0000e-14
Angular grids for H and He will be reduced by one unit
Partially contracted basis set               ... off
Rotationally invariant grid construction     ... off

Total number of grid points                  ...    31908
Total number of batches                      ...      520
Average number of points per batch           ...       61
Average number of grid points per atom       ...      651

CP-SCF GRIDX
------------

General Integration Accuracy     IntAcc      ... 3.067
Radial Grid Type                 RadialGrid  ... OptM3 with GC (2021)
Angular Grid (max. ang.)         AngularGrid ... 1 (Lebedev-50)
Angular grid pruning method      GridPruning ... 4 (adaptive)
Weight generation scheme         WeightScheme... Becke
Basis function cutoff            BFCut       ... 1.0000e-10
Integration weight cutoff        WCut        ... 1.0000e-14
Angular grids for H and He will be reduced by one unit
Partially contracted basis set               ... on
Rotationally invariant grid construction     ... off

Total number of grid points                  ...    14957
Total number of batches                      ...      263
Average number of points per batch           ...       56
Average number of grid points per atom       ...      305

Memory available               ... 848.8 MB
Memory needed per perturbation ...  20.0 MB
Perturbations treated per batch... 3
Number of batches              ... 1
     CP-SCF ITERATION   0:   4.6270e-02 (   2.2 sec   0/  3 done)
     CP-SCF ITERATION   1:   2.1112e-03 (   2.3 sec   0/  3 done)
     CP-SCF ITERATION   2:   1.4706e-04 (   2.3 sec   3/  3 done)
                    *** THE CP-SCF HAS CONVERGED ***

Forming final perturbed densities           ... done
Transforming perturbed density to AO basis  ... done

 Raw HFC matrix (all values in MHz): 
 -----------------------------------
                -1.1985              -0.5991               0.0018
                -0.5988              -1.6389              -0.0012
                 0.0018              -0.0012              -2.7056

 A(FC)          -1.8481              -1.8481              -1.8481
 A(SD)           1.0669              -0.2096              -0.8573
 A(ORB+DIA)      0.0007               0.0009              -0.0001    A(PC) =   0.0005
 A(ORB)          0.0006               0.0007               0.0000    A(PC) =   0.0004
 A(DIA)          0.0001               0.0001              -0.0001    A(PC) =   0.0000
             ----------           ----------           ----------
 A(Tot)         -0.7805              -2.0568              -2.7056    A(iso)=   -1.8476
 Orientation: 
  X          -0.8200581            0.5722796            0.0009104
  Y           0.5722792            0.8200586           -0.0006573
  Z          -0.0011228           -0.0000180           -0.9999994

Notes:  (1) The A matrix conforms to the "SAI" spin Hamiltonian convention.
        (2) Tensor is right-handed.


--------------------------------------------------------------------------------
----------------------------------------------------------------------------
                           ORCA EULER ANGLE PROGRAM
----------------------------------------------------------------------------

Only g-tensor available        -->  using g-tensor as reference tensor

Reference tensor               ...  g

g-tensor ordering              ...  |g_min> --> |gx>
                                    |g_mid> --> |gy>
                                    |g_max> --> |gz>

A- and EFG-tensor ordering     ...  the axes |Ax>, |Qx>, |Ay>, etc. are assigned
                                    such that the Euler rotation is minimal. You
                                    can find the respective eigenvalues as Ax,
                                    EFGx, Ay, etc. in the tables below.
                                    The relation of |Ax>, |Ay>,  etc. to Amin, Amid, etc.
                                    (as printed in the ORCA EPR/NMR CALCULATION Output)
                                    is obtained in the detailed printout.

Euler rotation around          ...  z - y - z
   First rotation              -->  by alpha around z
   Second rotation             -->  by beta around y'
   Third rotation              -->  by gamma around z''
   Positive / Negative angle   -->  clockwise / counterclockwise rotation

Plot EFG-tensors                    (-)
Plot HFC-tensors                    (-)
Detailed Printout                   (-)

-------------------------------------------------------------------------
          Euler rotation of hyperfine tensor to g-tensor
-------------------------------------------------------------------------

-------------------------------------------------------------------
 Atom  |   Alpha    Beta    Gamma   |   Ax       Ay       Az 
       |          [degrees]         |           [MHz]         
-------------------------------------------------------------------
  9H      -90.5      7.6     90.5     -17.14    -7.98   -20.83
 10H      -90.0     10.8     90.0       4.67     5.18    10.19
 12H       90.0     42.4    -90.0     -48.26   -19.74   -73.73
 14H      -28.8     14.1     10.1      65.98    75.59    67.45
 15H     -150.6     13.5    169.0      65.38    74.98    66.85
 17H       21.3     25.4    -54.9      -3.23    -3.06     3.01
 18H      158.7     25.2   -124.6      -3.22    -3.07     3.00
 20H      -53.0     50.3     53.0       0.04     2.25    -0.04
 21H     -126.1     49.8    126.0       0.04     2.25    -0.04
 23H     -130.0     17.8    171.1      23.63    24.24    27.34
 24H      -50.0     17.7      8.8      23.65    24.27    27.36
 26H      -79.7     33.8     92.2      -1.01     0.91    -0.89
 27H     -100.2     33.7     87.5      -1.01     0.91    -0.89
 29H       76.4     26.4   -109.8      -0.10    -0.14     0.79
 30H      103.7     26.4    -70.4      -0.10    -0.14     0.79
 32H       96.3     43.3   -100.8      -0.12    -0.10     0.37
 33H       83.7     43.3    -79.4      -0.12    -0.10     0.37
 35H       89.9     40.8    -90.1       3.85     2.74     5.50
 36H       92.6     35.3    -89.8      -0.82    -0.83     0.70
 37H       89.8     33.4    -90.1      -0.13    -0.13     0.23
 44H       90.0     39.1    -90.1      -2.13    -0.65    -3.24
 45H       90.0     29.1    -90.0      -2.40    -2.10    -1.07
 46H       90.1     27.1    -90.2       0.41     1.53     0.52
 47H      -89.9     40.1     89.9       0.47     0.69     1.30
 48H       90.4      9.0    -90.4      -2.71    -0.78    -2.06
-------------------------------------------------------------------


Maximum memory used throughout the entire EPRNMR-calculation: 282.7 MB

Timings for individual modules:

Sum of individual times         ...     5548.841 sec (=  92.481 min)
GTO integral calculation        ...        6.056 sec (=   0.101 min)   0.1 %
Spin-Orbit-Coupling Matrices    ...       14.704 sec (=   0.245 min)   0.3 %
SCF iterations                  ...       82.218 sec (=   1.370 min)   1.5 %
EPR/NMR calculation             ...     5445.864 sec (=  90.764 min)  98.1 %
                             ****ORCA TERMINATED NORMALLY****
TOTAL RUN TIME: 0 days 1 hours 32 minutes 33 seconds 428 msec
