
                                 *****************
                                 * O   R   C   A *
                                 *****************

                                            #,                                       
                                            ###                                      
                                            ####                                     
                                            #####                                    
                                            ######                                   
                                           ########,                                 
                                     ,,################,,,,,                         
                               ,,#################################,,                 
                          ,,##########################################,,             
                       ,#########################################, ''#####,          
                    ,#############################################,,   '####,        
                  ,##################################################,,,,####,       
                ,###########''''           ''''###############################       
              ,#####''   ,,,,##########,,,,          '''####'''          '####       
            ,##' ,,,,###########################,,,                        '##       
           ' ,,###''''                  '''############,,,                           
         ,,##''                                '''############,,,,        ,,,,,,###''
      ,#''                                            '''#######################'''  
     '                                                          ''''####''''         
             ,#######,   #######,   ,#######,      ##                                
            ,#'     '#,  ##    ##  ,#'     '#,    #''#        ######   ,####,        
            ##       ##  ##   ,#'  ##            #'  '#       #        #'  '#        
            ##       ##  #######   ##           ,######,      #####,   #    #        
            '#,     ,#'  ##    ##  '#,     ,#' ,#      #,         ##   #,  ,#        
             '#######'   ##     ##  '#######'  #'      '#     #####' # '####'        



                  #######################################################
                  #                        -***-                        #
                  #          Department of theory and spectroscopy      #
                  #    Directorship and core code : Frank Neese         #
                  #        Max Planck Institute fuer Kohlenforschung    #
                  #                Kaiser Wilhelm Platz 1               #
                  #                 D-45470 Muelheim/Ruhr               #
                  #                      Germany                        #
                  #                                                     #
                  #                  All rights reserved                #
                  #                        -***-                        #
                  #######################################################


                         Program Version 5.0.4 -  RELEASE  -


 With contributions from (in alphabetic order):
   Daniel Aravena         : Magnetic Suceptibility
   Michael Atanasov       : Ab Initio Ligand Field Theory (pilot matlab implementation)
   Alexander A. Auer      : GIAO ZORA, VPT2 properties, NMR spectrum
   Ute Becker             : Parallelization
   Giovanni Bistoni       : ED, misc. LED, open-shell LED, HFLD
   Martin Brehm           : Molecular dynamics
   Dmytro Bykov           : SCF Hessian
   Vijay G. Chilkuri      : MRCI spin determinant printing, contributions to CSF-ICE
   Dipayan Datta          : RHF DLPNO-CCSD density
   Achintya Kumar Dutta   : EOM-CC, STEOM-CC
   Dmitry Ganyushin       : Spin-Orbit,Spin-Spin,Magnetic field MRCI
   Miquel Garcia          : C-PCM and meta-GGA Hessian, CC/C-PCM, Gaussian charge scheme
   Yang Guo               : DLPNO-NEVPT2, F12-NEVPT2, CIM, IAO-localization
   Andreas Hansen         : Spin unrestricted coupled pair/coupled cluster methods
   Benjamin Helmich-Paris : MC-RPA, TRAH-SCF, COSX integrals
   Lee Huntington         : MR-EOM, pCC
   Robert Izsak           : Overlap fitted RIJCOSX, COSX-SCS-MP3, EOM
   Marcus Kettner         : VPT2
   Christian Kollmar      : KDIIS, OOCD, Brueckner-CCSD(T), CCSD density, CASPT2, CASPT2-K
   Simone Kossmann        : Meta GGA functionals, TD-DFT gradient, OOMP2, MP2 Hessian
   Martin Krupicka        : Initial AUTO-CI
   Lucas Lang             : DCDCAS
   Marvin Lechner         : AUTO-CI (C++ implementation), FIC-MRCC
   Dagmar Lenk            : GEPOL surface, SMD
   Dimitrios Liakos       : Extrapolation schemes; Compound Job, initial MDCI parallelization
   Dimitrios Manganas     : Further ROCIS development; embedding schemes
   Dimitrios Pantazis     : SARC Basis sets
   Anastasios Papadopoulos: AUTO-CI, single reference methods and gradients
   Taras Petrenko         : DFT Hessian,TD-DFT gradient, ASA, ECA, R-Raman, ABS, FL, XAS/XES, NRVS
   Peter Pinski           : DLPNO-MP2, DLPNO-MP2 Gradient
   Christoph Reimann      : Effective Core Potentials
   Marius Retegan         : Local ZFS, SOC
   Christoph Riplinger    : Optimizer, TS searches, QM/MM, DLPNO-CCSD(T), (RO)-DLPNO pert. Triples
   Tobias Risthaus        : Range-separated hybrids, TD-DFT gradient, RPA, STAB
   Michael Roemelt        : Original ROCIS implementation
   Masaaki Saitow         : Open-shell DLPNO-CCSD energy and density
   Barbara Sandhoefer     : DKH picture change effects
   Avijit Sen             : IP-ROCIS
   Kantharuban Sivalingam : CASSCF convergence, NEVPT2, FIC-MRCI
   Bernardo de Souza      : ESD, SOC TD-DFT
   Georgi Stoychev        : AutoAux, RI-MP2 NMR, DLPNO-MP2 response
   Willem Van den Heuvel  : Paramagnetic NMR
   Boris Wezisla          : Elementary symmetry handling
   Frank Wennmohs         : Technical directorship


 We gratefully acknowledge several colleagues who have allowed us to
 interface, adapt or use parts of their codes:
   Stefan Grimme, W. Hujo, H. Kruse, P. Pracht,  : VdW corrections, initial TS optimization,
                  C. Bannwarth, S. Ehlert          DFT functionals, gCP, sTDA/sTD-DF
   Ed Valeev, F. Pavosevic, A. Kumar             : LibInt (2-el integral package), F12 methods
   Garnet Chan, S. Sharma, J. Yang, R. Olivares  : DMRG
   Ulf Ekstrom                                   : XCFun DFT Library
   Mihaly Kallay                                 : mrcc  (arbitrary order and MRCC methods)
   Jiri Pittner, Ondrej Demel                    : Mk-CCSD
   Frank Weinhold                                : gennbo (NPA and NBO analysis)
   Christopher J. Cramer and Donald G. Truhlar   : smd solvation model
   Lars Goerigk                                  : TD-DFT with DH, B97 family of functionals
   V. Asgeirsson, H. Jonsson                     : NEB implementation
   FAccTs GmbH                                   : IRC, NEB, NEB-TS, DLPNO-Multilevel, CI-OPT
                                                   MM, QMMM, 2- and 3-layer-ONIOM, Crystal-QMMM,
                                                   LR-CPCM, SF, NACMEs, symmetry and pop. for TD-DFT,
                                                   nearIR, NL-DFT gradient (VV10), updates on ESD,
                                                   ML-optimized integration grids
   S Lehtola, MJT Oliveira, MAL Marques          : LibXC Library
   Liviu Ungur et al                             : ANISO software


 Your calculation uses the libint2 library for the computation of 2-el integrals
 For citations please refer to: http://libint.valeyev.net

 Your ORCA version has been built with support for libXC version: 5.1.0
 For citations please refer to: https://tddft.org/programs/libxc/

 This ORCA versions uses:
   CBLAS   interface :  Fast vector & matrix operations
   LAPACKE interface :  Fast linear algebra routines
   SCALAPACK package :  Parallel linear algebra routines
   Shared memory     :  Shared parallel matrices
   BLAS/LAPACK       :  OpenBLAS 0.3.15  USE64BITINT DYNAMIC_ARCH NO_AFFINITY SkylakeX SINGLE_THREADED
        Core in use  :  SkylakeX
   Copyright (c) 2011-2014, The OpenBLAS Project




***************************************
The coordinates will be read from file: opt.xyz
***************************************


================================================================================

----- Orbital basis set information -----
Your calculation utilizes the basis: EPR-II
   V. Barone, in Recent Advances in Density Functional Methods, Part 1 (ed. D. P. Chong), World Scientific, Singapore, 1995, p. 287.

----- AuxJ basis set information -----
Your calculation utilizes the AutoAux generation procedure.
  G. L. Stoychev, A. A. Auer, F. Neese, J. Chem. Theory Comput. 13, 554 (2017)

----- AuxC basis set information -----
Your calculation utilizes the AutoAux generation procedure.
  G. L. Stoychev, A. A. Auer, F. Neese, J. Chem. Theory Comput. 13, 554 (2017)

----- AuxJK basis set information -----
Your calculation utilizes the AutoAux generation procedure.
  G. L. Stoychev, A. A. Auer, F. Neese, J. Chem. Theory Comput. 13, 554 (2017)

================================================================================
                                        WARNINGS
                       Please study these warnings very carefully!
================================================================================

WARNING: Old DensityContainer found on disk!
         Will remove this file - 
         If you want to keep old densities, please start your calculation with a different basename. 


WARNING: your system is open-shell and RHF/RKS was chosen
  ===> : WILL SWITCH to UHF/UKS


INFO   : the flag for use of the SHARK integral package has been found!

================================================================================
                                       INPUT FILE
================================================================================
NAME = EPRII.inp
|  1> ! B3LYP EPR-II AUTOAUX
|  2> %pal nprocs 16 end
|  3> *XYZFile 0 2 opt.xyz
|  4> %EPRNMR
|  5>         GTENSOR   TRUE
|  6>         NUCLEI    = ALL H {SHIFT, AISO, ADIP, AORB}
|  7>         ORI       CenterOfElCharge
|  8> END
|  9> 
| 10>                          ****END OF INPUT****
================================================================================

                       ****************************
                       * Single Point Calculation *
                       ****************************

---------------------------------
CARTESIAN COORDINATES (ANGSTROEM)
---------------------------------
  C      4.055651   -0.073547    0.001259
  C      2.833542   -0.006600   -0.001853
  C     -2.844938    0.019403   -0.004605
  C      1.413420    0.037578   -0.002650
  C      0.700732    1.295437   -0.002274
  C     -0.721501    1.219563   -0.002939
  C     -1.411453    0.007143   -0.003953
  C     -0.698523   -1.233355   -0.004352
  C      0.695582   -1.174421   -0.003778
  H     -1.303965    2.141141   -0.002676
  H      1.274536   -2.097754   -0.004091
  C      1.376735    2.533606   -0.001170
  H      2.469590    2.505778   -0.000846
  C      0.711209    3.877604   -0.000569
  H      0.041247    3.969721   -0.880342
  H      0.037271    3.967005    0.876408
  C      1.701375    5.049653    0.003518
  H      2.358700    4.962416    0.887902
  H      2.362825    4.965169   -0.878056
  C      1.013980    6.416414    0.004035
  H      0.370653    6.541162    0.892218
  H      0.374821    6.543928   -0.886762
  C     -1.466096   -2.538946   -0.005338
  H     -2.145195   -2.541193    0.867755
  H     -2.144376   -2.540390   -0.879069
  C     -0.640631   -3.828188   -0.005524
  H      0.023196   -3.849353   -0.889420
  H      0.022302   -3.850153    0.879024
  C     -1.515380   -5.087922   -0.006538
  H     -2.182257   -5.068236    0.875347
  H     -2.181205   -5.067554   -0.889201
  C     -0.702663   -6.385165   -0.006558
  H     -0.052972   -6.450617    0.883324
  H     -0.051766   -6.449835   -0.895614
  C     -4.060832    0.033276   -0.006062
  H     -5.133143    0.050044   -0.008099
  H      1.748932    7.237402    0.007037
  H     -1.357003   -7.272006   -0.007390
  C      8.290611   -0.349909    0.011621
  C      7.669126    0.904242    0.011288
  C      6.278191    1.001489    0.007860
  C      5.479290   -0.163666    0.004675
  C      6.117697   -1.424276    0.005036
  C      7.509166   -1.511211    0.008484
  H      9.380725   -0.422104    0.014310
  H      5.506205   -2.328550    0.002590
  H      8.273734    1.814420    0.013750
  H      7.988600   -2.493123    0.008723
  H      5.792435    1.979098    0.007626

----------------------------
CARTESIAN COORDINATES (A.U.)
----------------------------
  NO LB      ZA    FRAG     MASS         X           Y           Z
   0 C     6.0000    0    12.011    7.664069   -0.138985    0.002378
   1 C     6.0000    0    12.011    5.354619   -0.012471   -0.003501
   2 C     6.0000    0    12.011   -5.376154    0.036665   -0.008702
   3 C     6.0000    0    12.011    2.670977    0.071013   -0.005008
   4 C     6.0000    0    12.011    1.324191    2.448021   -0.004297
   5 C     6.0000    0    12.011   -1.363439    2.304641   -0.005554
   6 C     6.0000    0    12.011   -2.667259    0.013499   -0.007470
   7 C     6.0000    0    12.011   -1.320018   -2.330703   -0.008224
   8 C     6.0000    0    12.011    1.314460   -2.219334   -0.007140
   9 H     1.0000    0     1.008   -2.464137    4.046170   -0.005057
  10 H     1.0000    0     1.008    2.408523   -3.964181   -0.007732
  11 C     6.0000    0    12.011    2.601652    4.787822   -0.002211
  12 H     1.0000    0     1.008    4.666848    4.735234   -0.001598
  13 C     6.0000    0    12.011    1.343990    7.327609   -0.001076
  14 H     1.0000    0     1.008    0.077945    7.501686   -1.663605
  15 H     1.0000    0     1.008    0.070432    7.496553    1.656171
  16 C     6.0000    0    12.011    3.215133    9.542461    0.006649
  17 H     1.0000    0     1.008    4.457296    9.377607    1.677892
  18 H     1.0000    0     1.008    4.465093    9.382810   -1.659286
  19 C     6.0000    0    12.011    1.916145   12.125265    0.007625
  20 H     1.0000    0     1.008    0.700433   12.361004    1.686048
  21 H     1.0000    0     1.008    0.708310   12.366232   -1.675737
  22 C     6.0000    0    12.011   -2.770520   -4.797913   -0.010087
  23 H     1.0000    0     1.008   -4.053831   -4.802158    1.639820
  24 H     1.0000    0     1.008   -4.052284   -4.800642   -1.661199
  25 C     6.0000    0    12.011   -1.210616   -7.234226   -0.010439
  26 H     1.0000    0     1.008    0.043833   -7.274224   -1.680761
  27 H     1.0000    0     1.008    0.042145   -7.275735    1.661115
  28 C     6.0000    0    12.011   -2.863654   -9.614779   -0.012354
  29 H     1.0000    0     1.008   -4.123869   -9.577579    1.654166
  30 H     1.0000    0     1.008   -4.121881   -9.576289   -1.680347
  31 C     6.0000    0    12.011   -1.327841  -12.066213   -0.012393
  32 H     1.0000    0     1.008   -0.100103  -12.189899    1.669240
  33 H     1.0000    0     1.008   -0.097823  -12.188421   -1.692465
  34 C     6.0000    0    12.011   -7.673860    0.062882   -0.011455
  35 H     1.0000    0     1.008   -9.700235    0.094570   -0.015304
  36 H     1.0000    0     1.008    3.305003   13.676708    0.013298
  37 H     1.0000    0     1.008   -2.564364  -13.742101   -0.013965
  38 C     6.0000    0    12.011   15.666984   -0.661233    0.021961
  39 C     6.0000    0    12.011   14.492548    1.708771    0.021331
  40 C     6.0000    0    12.011   11.864061    1.892540    0.014853
  41 C     6.0000    0    12.011   10.354357   -0.309284    0.008834
  42 C     6.0000    0    12.011   11.560771   -2.691492    0.009518
  43 C     6.0000    0    12.011   14.190267   -2.855775    0.016033
  44 H     1.0000    0     1.008   17.727002   -0.797661    0.027042
  45 H     1.0000    0     1.008   10.405219   -4.400322    0.004894
  46 H     1.0000    0     1.008   15.635091    3.428758    0.025984
  47 H     1.0000    0     1.008   15.096267   -4.711320    0.016484
  48 H     1.0000    0     1.008   10.946116    3.739953    0.014412

--------------------------------
INTERNAL COORDINATES (ANGSTROEM)
--------------------------------
 C      0   0   0     0.000000000000     0.00000000     0.00000000
 C      1   0   0     1.223944647573     0.00000000     0.00000000
 C      2   1   0     5.678540645159   177.12438180     0.00000000
 C      2   1   3     1.420809202642   178.64150904     2.44431677
 C      4   2   1     1.445729165687   121.31720245   175.16981916
 C      5   4   2     1.424255516326   116.48164806   180.00937570
 C      6   5   4     1.394989894114   122.69665584     0.00000000
 C      7   6   5     1.430770475003   120.47058161     0.00000000
 C      8   7   6     1.395350618297   117.46584694     0.00000000
 H      6   5   4     1.090215457928   119.24033859   179.99914683
 H      9   8   7     1.089831121132   119.66808581   180.00213207
 C      5   4   2     1.410689310921   121.83139226     0.00000000
 H     12   5   4     1.093209149059   117.17455913     0.00000000
 C     12   5   4     1.499751794170   125.02291054   180.00687956
 H     14  12   5     1.109654846731   109.99860095   302.48920861
 H     14  12   5     1.109627295780   110.00096960    57.27566589
 C     14  12   5     1.534322662643   113.46440707   179.88223754
 H     17  14  12     1.105359701805   109.00261219   302.33851858
 H     17  14  12     1.105363205741   109.00589269    57.65414182
 C     17  14  12     1.529884878207   113.10875966   179.99715414
 H     20  17  14     1.103766676989   111.29198241    59.86978372
 H     20  17  14     1.103767437557   111.29183324   300.12562852
 C      8   7   6     1.514509309906   119.66171924   179.99490633
 H     23   8   7     1.106106678311   108.20372483   303.78115592
 H     23   8   7     1.106106781022   108.20538527    56.23236455
 C     23   8   7     1.530861214263   116.91791859   180.00823965
 H     26  23   8     1.105615802611   109.87518301   301.74434795
 H     26  23   8     1.105616679730   109.87386616    58.25609416
 C     26  23   8     1.533661703851   112.59386665   179.99982985
 H     29  26  23     1.105817474584   109.19702637   302.35381928
 H     29  26  23     1.105817815154   109.19733801    57.66053976
 C     29  26  23     1.530800214028   113.15720454   180.00717205
 H     32  29  26     1.103753255283   111.26888837    59.86068768
 H     32  29  26     1.103752736605   111.26897896   300.15022909
 C      3   2   1     1.215973833186   179.60651930   183.61387337
 H     35   3   7     1.072444113162   179.75450435   354.82602579
 H     20  17  14     1.101900589981   111.46543257   179.99758572
 H     32  29  26     1.102111274406   111.51194430   180.00532062
 C      1   2   4     4.243980477130   179.40186820     5.34062787
 C     39   1   2     1.399692572308    59.90605783   179.51424035
 C     40  39   1     1.394335108547   120.35957136     0.00000000
 C     41  40  39     1.412741592642   120.43777592     0.00000000
 C     42  41  40     1.413046831520   118.70410868     0.00000000
 C     43  42  41     1.394186399331   120.43384454     0.00000000
 H     39   1   2     1.092506054340   179.94468773   358.29790612
 H     43  42  41     1.091622658465   119.07348878   179.99981101
 H     40  39   1     1.092694147880   120.04448756   179.99673554
 H     44  43  42     1.092707315883   119.59966557   179.99984571
 H     41  40  39     1.091639988254   120.42115855   179.99816908

---------------------------
INTERNAL COORDINATES (A.U.)
---------------------------
 C      0   0   0     0.000000000000     0.00000000     0.00000000
 C      1   0   0     2.312920186992     0.00000000     0.00000000
 C      2   1   0    10.730886659691   177.12438180     0.00000000
 C      2   1   3     2.684940281549   178.64150904     2.44431677
 C      4   2   1     2.732032186971   121.31720245   175.16981916
 C      5   4   2     2.691452870583   116.48164806   180.00937570
 C      6   5   4     2.636148859463   122.69665584     0.00000000
 C      7   6   5     2.703764358257   120.47058161     0.00000000
 C      8   7   6     2.636830529379   117.46584694     0.00000000
 H      6   5   4     2.060208642452   119.24033859   179.99914683
 H      9   8   7     2.059482351164   119.66808581   180.00213207
 C      5   4   2     2.665816457691   121.83139226     0.00000000
 H     12   5   4     2.065865898819   117.17455913     0.00000000
 C     12   5   4     2.834120159839   125.02291054   180.00687956
 H     14  12   5     2.096943763500   109.99860095   302.48920861
 H     14  12   5     2.096891699747   110.00096960    57.27566589
 C     14  12   5     2.899449633465   113.46440707   179.88223754
 H     17  14  12     2.088827115885   109.00261219   302.33851858
 H     17  14  12     2.088833737364   109.00589269    57.65414182
 C     17  14  12     2.891063436239   113.10875966   179.99715414
 H     20  17  14     2.085816735257   111.29198241    59.86978372
 H     20  17  14     2.085818172524   111.29183324   300.12562852
 C      8   7   6     2.862007822996   119.66171924   179.99490633
 H     23   8   7     2.090238696909   108.20372483   303.78115592
 H     23   8   7     2.090238891006   108.20538527    56.23236455
 C     23   8   7     2.892908444000   116.91791859   180.00823965
 H     26  23   8     2.089311076270   109.87518301   301.74434795
 H     26  23   8     2.089312733785   109.87386616    58.25609416
 C     26  23   8     2.898200602362   112.59386665   179.99982985
 H     29  26  23     2.089692181069   109.19702637   302.35381928
 H     29  26  23     2.089692824652   109.19733801    57.66053976
 C     29  26  23     2.892793170261   113.15720454   180.00717205
 H     32  29  26     2.085791371908   111.26888837    59.86068768
 H     32  29  26     2.085790391750   111.26897896   300.15022909
 C      3   2   1     2.297857530736   179.60651930   183.61387337
 H     35   3   7     2.026625667811   179.75450435   354.82602579
 H     20  17  14     2.082290341871   111.46543257   179.99758572
 H     32  29  26     2.082688477735   111.51194430   180.00532062
 C      1   2   4     8.019960819483   179.40186820     5.34062787
 C     39   1   2     2.645035633346    59.90605783   179.51424035
 C     40  39   1     2.634911494065   120.35957136     0.00000000
 C     41  40  39     2.669694708093   120.43777592     0.00000000
 C     42  41  40     2.670271525978   118.70410868     0.00000000
 C     43  42  41     2.634630474374   120.43384454     0.00000000
 H     39   1   2     2.064537242353   179.94468773   358.29790612
 H     43  42  41     2.062867866083   119.07348878   179.99981101
 H     40  39   1     2.064892687631   120.04448756   179.99673554
 H     44  43  42     2.064917571551   119.59966557   179.99984571
 H     41  40  39     2.062900614636   120.42115855   179.99816908

---------------------
BASIS SET INFORMATION
---------------------
There are 2 groups of distinct atoms

 Group   1 Type C   : 10s5p1d contracted to 6s2p1d pattern {511111/41/1}
 Group   2 Type H   : 6s1p contracted to 4s1p pattern {3111/1}

Atom   0C    basis set group =>   1
Atom   1C    basis set group =>   1
Atom   2C    basis set group =>   1
Atom   3C    basis set group =>   1
Atom   4C    basis set group =>   1
Atom   5C    basis set group =>   1
Atom   6C    basis set group =>   1
Atom   7C    basis set group =>   1
Atom   8C    basis set group =>   1
Atom   9H    basis set group =>   2
Atom  10H    basis set group =>   2
Atom  11C    basis set group =>   1
Atom  12H    basis set group =>   2
Atom  13C    basis set group =>   1
Atom  14H    basis set group =>   2
Atom  15H    basis set group =>   2
Atom  16C    basis set group =>   1
Atom  17H    basis set group =>   2
Atom  18H    basis set group =>   2
Atom  19C    basis set group =>   1
Atom  20H    basis set group =>   2
Atom  21H    basis set group =>   2
Atom  22C    basis set group =>   1
Atom  23H    basis set group =>   2
Atom  24H    basis set group =>   2
Atom  25C    basis set group =>   1
Atom  26H    basis set group =>   2
Atom  27H    basis set group =>   2
Atom  28C    basis set group =>   1
Atom  29H    basis set group =>   2
Atom  30H    basis set group =>   2
Atom  31C    basis set group =>   1
Atom  32H    basis set group =>   2
Atom  33H    basis set group =>   2
Atom  34C    basis set group =>   1
Atom  35H    basis set group =>   2
Atom  36H    basis set group =>   2
Atom  37H    basis set group =>   2
Atom  38C    basis set group =>   1
Atom  39C    basis set group =>   1
Atom  40C    basis set group =>   1
Atom  41C    basis set group =>   1
Atom  42C    basis set group =>   1
Atom  43C    basis set group =>   1
Atom  44H    basis set group =>   2
Atom  45H    basis set group =>   2
Atom  46H    basis set group =>   2
Atom  47H    basis set group =>   2
Atom  48H    basis set group =>   2
---------------------------------
AUXILIARY/J BASIS SET INFORMATION
---------------------------------
There are 2 groups of distinct atoms

 Group   1 Type C   : 17s13p12d2f contracted to 17s13p12d2f pattern {11111111111111111/1111111111111/111111111111/11}
 Group   2 Type H   : 15s6p1d contracted to 15s6p1d pattern {111111111111111/111111/1}

Atom   0C    basis set group =>   1
Atom   1C    basis set group =>   1
Atom   2C    basis set group =>   1
Atom   3C    basis set group =>   1
Atom   4C    basis set group =>   1
Atom   5C    basis set group =>   1
Atom   6C    basis set group =>   1
Atom   7C    basis set group =>   1
Atom   8C    basis set group =>   1
Atom   9H    basis set group =>   2
Atom  10H    basis set group =>   2
Atom  11C    basis set group =>   1
Atom  12H    basis set group =>   2
Atom  13C    basis set group =>   1
Atom  14H    basis set group =>   2
Atom  15H    basis set group =>   2
Atom  16C    basis set group =>   1
Atom  17H    basis set group =>   2
Atom  18H    basis set group =>   2
Atom  19C    basis set group =>   1
Atom  20H    basis set group =>   2
Atom  21H    basis set group =>   2
Atom  22C    basis set group =>   1
Atom  23H    basis set group =>   2
Atom  24H    basis set group =>   2
Atom  25C    basis set group =>   1
Atom  26H    basis set group =>   2
Atom  27H    basis set group =>   2
Atom  28C    basis set group =>   1
Atom  29H    basis set group =>   2
Atom  30H    basis set group =>   2
Atom  31C    basis set group =>   1
Atom  32H    basis set group =>   2
Atom  33H    basis set group =>   2
Atom  34C    basis set group =>   1
Atom  35H    basis set group =>   2
Atom  36H    basis set group =>   2
Atom  37H    basis set group =>   2
Atom  38C    basis set group =>   1
Atom  39C    basis set group =>   1
Atom  40C    basis set group =>   1
Atom  41C    basis set group =>   1
Atom  42C    basis set group =>   1
Atom  43C    basis set group =>   1
Atom  44H    basis set group =>   2
Atom  45H    basis set group =>   2
Atom  46H    basis set group =>   2
Atom  47H    basis set group =>   2
Atom  48H    basis set group =>   2
---------------------------------
AUXILIARY/C BASIS SET INFORMATION
---------------------------------
There are 2 groups of distinct atoms

 Group   1 Type C   : 17s13p12d2f contracted to 17s13p12d2f pattern {11111111111111111/1111111111111/111111111111/11}
 Group   2 Type H   : 15s6p1d contracted to 15s6p1d pattern {111111111111111/111111/1}

Atom   0C    basis set group =>   1
Atom   1C    basis set group =>   1
Atom   2C    basis set group =>   1
Atom   3C    basis set group =>   1
Atom   4C    basis set group =>   1
Atom   5C    basis set group =>   1
Atom   6C    basis set group =>   1
Atom   7C    basis set group =>   1
Atom   8C    basis set group =>   1
Atom   9H    basis set group =>   2
Atom  10H    basis set group =>   2
Atom  11C    basis set group =>   1
Atom  12H    basis set group =>   2
Atom  13C    basis set group =>   1
Atom  14H    basis set group =>   2
Atom  15H    basis set group =>   2
Atom  16C    basis set group =>   1
Atom  17H    basis set group =>   2
Atom  18H    basis set group =>   2
Atom  19C    basis set group =>   1
Atom  20H    basis set group =>   2
Atom  21H    basis set group =>   2
Atom  22C    basis set group =>   1
Atom  23H    basis set group =>   2
Atom  24H    basis set group =>   2
Atom  25C    basis set group =>   1
Atom  26H    basis set group =>   2
Atom  27H    basis set group =>   2
Atom  28C    basis set group =>   1
Atom  29H    basis set group =>   2
Atom  30H    basis set group =>   2
Atom  31C    basis set group =>   1
Atom  32H    basis set group =>   2
Atom  33H    basis set group =>   2
Atom  34C    basis set group =>   1
Atom  35H    basis set group =>   2
Atom  36H    basis set group =>   2
Atom  37H    basis set group =>   2
Atom  38C    basis set group =>   1
Atom  39C    basis set group =>   1
Atom  40C    basis set group =>   1
Atom  41C    basis set group =>   1
Atom  42C    basis set group =>   1
Atom  43C    basis set group =>   1
Atom  44H    basis set group =>   2
Atom  45H    basis set group =>   2
Atom  46H    basis set group =>   2
Atom  47H    basis set group =>   2
Atom  48H    basis set group =>   2
----------------------------------
AUXILIARY/JK BASIS SET INFORMATION
----------------------------------
There are 2 groups of distinct atoms

 Group   1 Type C   : 17s13p12d2f contracted to 17s13p12d2f pattern {11111111111111111/1111111111111/111111111111/11}
 Group   2 Type H   : 15s6p1d contracted to 15s6p1d pattern {111111111111111/111111/1}

Atom   0C    basis set group =>   1
Atom   1C    basis set group =>   1
Atom   2C    basis set group =>   1
Atom   3C    basis set group =>   1
Atom   4C    basis set group =>   1
Atom   5C    basis set group =>   1
Atom   6C    basis set group =>   1
Atom   7C    basis set group =>   1
Atom   8C    basis set group =>   1
Atom   9H    basis set group =>   2
Atom  10H    basis set group =>   2
Atom  11C    basis set group =>   1
Atom  12H    basis set group =>   2
Atom  13C    basis set group =>   1
Atom  14H    basis set group =>   2
Atom  15H    basis set group =>   2
Atom  16C    basis set group =>   1
Atom  17H    basis set group =>   2
Atom  18H    basis set group =>   2
Atom  19C    basis set group =>   1
Atom  20H    basis set group =>   2
Atom  21H    basis set group =>   2
Atom  22C    basis set group =>   1
Atom  23H    basis set group =>   2
Atom  24H    basis set group =>   2
Atom  25C    basis set group =>   1
Atom  26H    basis set group =>   2
Atom  27H    basis set group =>   2
Atom  28C    basis set group =>   1
Atom  29H    basis set group =>   2
Atom  30H    basis set group =>   2
Atom  31C    basis set group =>   1
Atom  32H    basis set group =>   2
Atom  33H    basis set group =>   2
Atom  34C    basis set group =>   1
Atom  35H    basis set group =>   2
Atom  36H    basis set group =>   2
Atom  37H    basis set group =>   2
Atom  38C    basis set group =>   1
Atom  39C    basis set group =>   1
Atom  40C    basis set group =>   1
Atom  41C    basis set group =>   1
Atom  42C    basis set group =>   1
Atom  43C    basis set group =>   1
Atom  44H    basis set group =>   2
Atom  45H    basis set group =>   2
Atom  46H    basis set group =>   2
Atom  47H    basis set group =>   2
Atom  48H    basis set group =>   2

Checking for AutoStart:
The File: EPRII.gbw exists
Trying to determine its content:
     ... Fine, the file contains calculation information
     ... Fine, the calculation information was read
     ... Fine, the file contains a basis set
     ... Fine, the basis set was read
     ... Fine, the file contains a geometry
     ... Fine, the geometry was read
     ... Fine, the file contains a set of orbitals
     ... Fine, the orbitals can be read
     => possible old guess file was deleted
     => GBW file was renamed to GES file
     => GES file is set as startup file
     => Guess is set to MORead
     ... now leaving AutoStart



           ************************************************************
           *        Program running with 16 parallel MPI-processes    *
           *              working on a common directory               *
           ************************************************************
------------------------------------------------------------------------------
                           ORCA GTO INTEGRAL CALCULATION
                           -- RI-GTO INTEGRALS CHOSEN --
------------------------------------------------------------------------------
------------------------------------------------------------------------------
                   ___                                                        
                  /   \      - P O W E R E D   B Y -                         
                 /     \                                                     
                 |  |  |   _    _      __       _____    __    __             
                 |  |  |  | |  | |    /  \     |  _  \  |  |  /  |          
                  \  \/   | |  | |   /    \    | | | |  |  | /  /          
                 / \  \   | |__| |  /  /\  \   | |_| |  |  |/  /          
                |  |  |   |  __  | /  /__\  \  |    /   |      \           
                |  |  |   | |  | | |   __   |  |    \   |  |\   \          
                \     /   | |  | | |  |  |  |  | |\  \  |  | \   \       
                 \___/    |_|  |_| |__|  |__|  |_| \__\ |__|  \__/        
                                                                              
                      - O R C A' S   B I G   F R I E N D -                    
                                      &                                       
                       - I N T E G R A L  F E E D E R -                       
                                                                              
 v1 FN, 2020, v2 2021                                                         
------------------------------------------------------------------------------


Reading SHARK input file EPRII.SHARKINP.tmp ... ok
----------------------
SHARK INTEGRAL PACKAGE
----------------------

Number of atoms                             ...     49
Number of basis functions                   ...    583
Number of shells                            ...    341
Maximum angular momentum                    ...      2
Integral batch strategy                     ... SHARK/LIBINT Hybrid
RI-J (if used) integral strategy            ... SPLIT-RIJ (Revised 2003 algorithm where possible)
Printlevel                                  ...      1
Contraction scheme used                     ... SEGMENTED contraction
Coulomb Range Separation                    ... NOT USED
Exchange Range Separation                   ... NOT USED
Finite Nucleus Model                        ... NOT USED
Auxiliary Coulomb fitting basis             ... AVAILABLE
   # of basis functions in Aux-J            ...   4070
   # of shells in Aux-J                     ...   1606
   Maximum angular momentum in Aux-J        ...      3
Auxiliary J/K fitting basis                 ... AVAILABLE
   # of basis functions in Aux-JK           ...   4070
   # of shells in Aux-JK                    ...   1606
   Maximum angular momentum in Aux-JK       ...      3
Auxiliary Correlation fitting basis         ... AVAILABLE
   # of basis functions in Aux-C            ...   4070
   # of shells in Aux-C                     ...   1606
   Maximum angular momentum in Aux-C        ...      3
Auxiliary 'external' fitting basis          ... NOT available
Integral threshold                          ...     1.000000e-10
Primitive cut-off                           ...     1.000000e-11
Primitive pair pre-selection threshold      ...     1.000000e-11

Calculating pre-screening integrals         ... done (  0.0 sec) Dimension = 341
Organizing shell pair data                  ... done (  0.2 sec)
Shell pair information
Total number of shell pairs                 ...     58311
Shell pairs after pre-screening             ...     29285
Total number of primitive shell pairs       ...    156979
Primitive shell pairs kept                  ...     55202
          la=0 lb=0:  13414 shell pairs
          la=1 lb=0:  10072 shell pairs
          la=1 lb=1:   1811 shell pairs
          la=2 lb=0:   2773 shell pairs
          la=2 lb=1:   1052 shell pairs
          la=2 lb=2:    163 shell pairs

Calculating one electron integrals          ... done (  0.0 sec)
Calculating RI/J V-Matrix + Cholesky decomp.... done (  1.4 sec)
Calculating RI/JK V-Matrix + Cholesky decomp... done (  1.5 sec)
Calculating RI/C V-Matrix + Cholesky decomp.... done (  1.1 sec)
Calculating Nuclear repulsion               ... done (  0.0 sec) ENN=   1724.107945491061 Eh

SHARK setup successfully completed in   5.0 seconds

Maximum memory used throughout the entire GTOINT-calculation: 59.3 MB


           ************************************************************
           *        Program running with 16 parallel MPI-processes    *
           *              working on a common directory               *
           ************************************************************
-------------------------------------------------------------------------------
                                 ORCA SCF
-------------------------------------------------------------------------------

------------
SCF SETTINGS
------------
Hamiltonian:
 Density Functional     Method          .... DFT(GTOs)
 Exchange Functional    Exchange        .... B88
   X-Alpha parameter    XAlpha          ....  0.666667
   Becke's b parameter  XBeta           ....  0.004200
 Correlation Functional Correlation     .... LYP
 LDA part of GGA corr.  LDAOpt          .... VWN-5
 Gradients option       PostSCFGGA      .... off
 Hybrid DFT is turned on
   Fraction HF Exchange ScalHFX         ....  0.200000
   Scaling of DF-GGA-X  ScalDFX         ....  0.720000
   Scaling of DF-GGA-C  ScalDFC         ....  0.810000
   Scaling of DF-LDA-C  ScalLDAC        ....  1.000000
   Perturbative correction              ....  0.000000
   Density functional embedding theory  .... OFF
   NL short-range parameter             ....  4.800000
 RI-approximation to the Coulomb term is turned on
   Number of AuxJ basis functions       .... 4070
   RIJ-COSX (HFX calculated with COS-X)).... on


General Settings:
 Integral files         IntName         .... EPRII
 Hartree-Fock type      HFTyp           .... UHF
 Total Charge           Charge          ....    0
 Multiplicity           Mult            ....    2
 Number of Electrons    NEL             ....  169
 Basis Dimension        Dim             ....  583
 Nuclear Repulsion      ENuc            ....   1724.1079454911 Eh

Convergence Acceleration:
 DIIS                   CNVDIIS         .... on
   Start iteration      DIISMaxIt       ....    12
   Startup error        DIISStart       ....  0.200000
   # of expansion vecs  DIISMaxEq       ....     5
   Bias factor          DIISBfac        ....   1.050
   Max. coefficient     DIISMaxC        ....  10.000
 Trust-Rad. Augm. Hess. CNVTRAH         .... auto
   Auto Start mean grad. ratio tolernc. ....  1.125000
   Auto Start start iteration           ....     1
   Auto Start num. interpolation iter.  ....    10
   Max. Number of Micro iterations      ....    16
   Max. Number of Macro iterations      .... Maxiter - #DIIS iter
   Number of Davidson start vectors     ....     2
   Converg. threshold I  (grad. norm)   ....   5.000e-05
   Converg. threshold II (energy diff.) ....   1.000e-06
   Grad. Scal. Fac. for Micro threshold ....   0.100
   Minimum threshold for Micro iter.    ....   0.010
   NR start threshold (gradient norm)   ....   0.001
   Initial trust radius                 ....   0.400
   Minimum AH scaling param. (alpha)    ....   1.000
   Maximum AH scaling param. (alpha)    .... 1000.000
   Orbital update algorithm             .... Taylor
   White noise on init. David. guess    .... on
   Maximum white noise                  ....   0.010
   Quad. conv. algorithm                .... NR
 SOSCF                  CNVSOSCF        .... off
 Level Shifting         CNVShift        .... on
   Level shift para.    LevelShift      ....    0.2500
   Turn off err/grad.   ShiftErr        ....    0.0010
 Zerner damping         CNVZerner       .... off
 Static damping         CNVDamp         .... on
   Fraction old density DampFac         ....    0.7000
   Max. Damping (<1)    DampMax         ....    0.9800
   Min. Damping (>=0)   DampMin         ....    0.0000
   Turn off err/grad.   DampErr         ....    0.1000
 Fernandez-Rico         CNVRico         .... off

SCF Procedure:
 Maximum # iterations   MaxIter         ....   125
 SCF integral mode      SCFMode         .... Direct
   Integral package                     .... SHARK and LIBINT hybrid scheme
 Reset frequency        DirectResetFreq ....    20
 Integral Threshold     Thresh          ....  1.000e-10 Eh
 Primitive CutOff       TCut            ....  1.000e-11 Eh

Convergence Tolerance:
 Convergence Check Mode ConvCheckMode   .... Total+1el-Energy
 Convergence forced     ConvForced      .... 0
 Energy Change          TolE            ....  1.000e-06 Eh
 1-El. energy change                    ....  1.000e-03 Eh
 DIIS Error             TolErr          ....  1.000e-06


Diagonalization of the overlap matrix:
Smallest eigenvalue                        ... 6.485e-05
Time for diagonalization                   ...    0.089 sec
Threshold for overlap eigenvalues          ... 1.000e-08
Number of eigenvalues below threshold      ... 0
Time for construction of square roots      ...    0.069 sec
Total time needed                          ...    0.160 sec

---------------------
INITIAL GUESS: MOREAD
---------------------
Guess MOs are being read from file: EPRII.ges
Input Geometry matches current geometry (good)
Input basis set matches current basis set (good)
MOs were renormalized
MOs were reorthogonalized (Cholesky)
                      ------------------
                      INITIAL GUESS DONE (   0.4 sec)
                      ------------------
-------------------
DFT GRID GENERATION
-------------------

General Integration Accuracy     IntAcc      ... 4.388
Radial Grid Type                 RadialGrid  ... OptM3 with GC (2021)
Angular Grid (max. ang.)         AngularGrid ... 4 (Lebedev-302)
Angular grid pruning method      GridPruning ... 4 (adaptive)
Weight generation scheme         WeightScheme... Becke
Basis function cutoff            BFCut       ... 1.0000e-10
Integration weight cutoff        WCut        ... 1.0000e-14
Angular grids for H and He will be reduced by one unit
Partially contracted basis set               ... off
Rotationally invariant grid construction     ... off

Total number of grid points                  ...   223180
Total number of batches                      ...     3508
Average number of points per batch           ...       63
Average number of grid points per atom       ...     4555
Time for grid setup =    1.438 sec

--------------------
COSX GRID GENERATION
--------------------

GRIDX 1
-------
General Integration Accuracy     IntAcc      ... 3.816
Radial Grid Type                 RadialGrid  ... OptM3 with GC (2021)
Angular Grid (max. ang.)         AngularGrid ... 1 (Lebedev-50)
Angular grid pruning method      GridPruning ... 4 (adaptive)
Weight generation scheme         WeightScheme... Becke
Basis function cutoff            BFCut       ... 1.0000e-10
Integration weight cutoff        WCut        ... 1.0000e-14
Angular grids for H and He will be reduced by one unit
Partially contracted basis set               ... on
Rotationally invariant grid construction     ... off

Total number of grid points                  ...    28434
Total number of batches                      ...      470
Average number of points per batch           ...       60
Average number of grid points per atom       ...      580
UseSFitting                                  ... on

GRIDX 2
-------
General Integration Accuracy     IntAcc      ... 4.020
Radial Grid Type                 RadialGrid  ... OptM3 with GC (2021)
Angular Grid (max. ang.)         AngularGrid ... 2 (Lebedev-110)
Angular grid pruning method      GridPruning ... 4 (adaptive)
Weight generation scheme         WeightScheme... Becke
Basis function cutoff            BFCut       ... 1.0000e-10
Integration weight cutoff        WCut        ... 1.0000e-14
Angular grids for H and He will be reduced by one unit
Partially contracted basis set               ... on
Rotationally invariant grid construction     ... off

Total number of grid points                  ...    60669
Total number of batches                      ...      975
Average number of points per batch           ...       62
Average number of grid points per atom       ...     1238
UseSFitting                                  ... on

GRIDX 3
-------
General Integration Accuracy     IntAcc      ... 4.338
Radial Grid Type                 RadialGrid  ... OptM3 with GC (2021)
Angular Grid (max. ang.)         AngularGrid ... 3 (Lebedev-194)
Angular grid pruning method      GridPruning ... 4 (adaptive)
Weight generation scheme         WeightScheme... Becke
Basis function cutoff            BFCut       ... 1.0000e-10
Integration weight cutoff        WCut        ... 1.0000e-14
Angular grids for H and He will be reduced by one unit
Partially contracted basis set               ... on
Rotationally invariant grid construction     ... off

Total number of grid points                  ...   132673
Total number of batches                      ...     2100
Average number of points per batch           ...       63
Average number of grid points per atom       ...     2708
UseSFitting                                  ... on

Time for X-Grid setup             =    2.770 sec

--------------
SCF ITERATIONS
--------------
ITER       Energy         Delta-E        Max-DP      RMS-DP      [F,P]     Damp
               ***  Starting incremental Fock matrix formation  ***
  0   -928.9721142507   0.000000000000 0.00005607  0.00000030  0.0000245 0.7000
                 **** Energy Check signals convergence ****

               *****************************************************
               *                     SUCCESS                       *
               *           SCF CONVERGED AFTER   1 CYCLES          *
               *****************************************************

Old exchange energy                            =    -26.605590864 Eh
New exchange energy                            =    -26.605587228 Eh
Exchange energy change after final integration =      0.000003636 Eh
Total energy after final integration           =   -928.972110467 Eh
Final COS-X integration done in                =     9.787 sec

----------------
TOTAL SCF ENERGY
----------------

Total Energy       :         -928.97211047 Eh          -25278.61627 eV

Components:
Nuclear Repulsion  :         1724.10794549 Eh           46915.36233 eV
Electronic Energy  :        -2653.08005596 Eh          -72193.97859 eV
One Electron Energy:        -4677.08647612 Eh         -127269.99330 eV
Two Electron Energy:         2024.00642016 Eh           55076.01470 eV
Max COSX asymmetry :            0.00000341 Eh               0.00009 eV

Virial components:
Potential Energy   :        -1850.51721838 Eh          -50355.13352 eV
Kinetic Energy     :          921.54510791 Eh           25076.51725 eV
Virial Ratio       :            2.00805929


DFT components:
N(Alpha)           :       85.000123041953 electrons
N(Beta)            :       84.000110981320 electrons
N(Total)           :      169.000234023274 electrons
E(X)               :     -105.549277617257 Eh       
E(C)               :       -6.576974690982 Eh       
E(XC)              :     -112.126252308239 Eh       
DFET-embed. en.    :        0.000000000000 Eh       

---------------
SCF CONVERGENCE
---------------

  Last Energy change         ...    1.4782e-07  Tolerance :   1.0000e-06
  Last MAX-Density change    ...    1.3182e-05  Tolerance :   1.0000e-05
  Last RMS-Density change    ...    8.5657e-08  Tolerance :   1.0000e-06
  Last DIIS Error            ...    1.8934e-05  Tolerance :   1.0000e-06

             **** THE GBW FILE WAS UPDATED (EPRII.gbw) ****
             **** DENSITY EPRII.scfp WAS UPDATED ****
             **** ENERGY FILE WAS UPDATED (EPRII.en.tmp) ****
----------------------
UHF SPIN CONTAMINATION
----------------------

Warning: in a DFT calculation there is little theoretical justification to 
         calculate <S**2> as in Hartree-Fock theory. We will do it anyways
         but you should keep in mind that the values have only limited relevance

Expectation value of <S**2>     :     0.787382
Ideal value S*(S+1) for S=0.5   :     0.750000
Deviation                       :     0.037382

             **** THE GBW FILE WAS UPDATED (EPRII.gbw) ****
             **** DENSITY EPRII.scfp WAS UPDATED ****
----------------
ORBITAL ENERGIES
----------------
                 SPIN UP ORBITALS
  NO   OCC          E(Eh)            E(eV) 
   0   1.0000     -10.226705      -278.2828 
   1   1.0000     -10.223990      -278.2089 
   2   1.0000     -10.221820      -278.1499 
   3   1.0000     -10.211581      -277.8712 
   4   1.0000     -10.208347      -277.7832 
   5   1.0000     -10.205638      -277.7095 
   6   1.0000     -10.204884      -277.6890 
   7   1.0000     -10.204564      -277.6803 
   8   1.0000     -10.204274      -277.6724 
   9   1.0000     -10.203379      -277.6481 
  10   1.0000     -10.203177      -277.6426 
  11   1.0000     -10.202333      -277.6196 
  12   1.0000     -10.201986      -277.6101 
  13   1.0000     -10.199187      -277.5340 
  14   1.0000     -10.198315      -277.5103 
  15   1.0000     -10.196657      -277.4651 
  16   1.0000     -10.196406      -277.4583 
  17   1.0000     -10.190128      -277.2875 
  18   1.0000     -10.187482      -277.2155 
  19   1.0000     -10.185580      -277.1637 
  20   1.0000     -10.182254      -277.0732 
  21   1.0000     -10.181980      -277.0657 
  22   1.0000     -10.175377      -276.8861 
  23   1.0000     -10.172991      -276.8211 
  24   1.0000      -0.873573       -23.7711 
  25   1.0000      -0.862763       -23.4770 
  26   1.0000      -0.819283       -22.2938 
  27   1.0000      -0.798866       -21.7382 
  28   1.0000      -0.794320       -21.6145 
  29   1.0000      -0.778626       -21.1875 
  30   1.0000      -0.766624       -20.8609 
  31   1.0000      -0.750808       -20.4305 
  32   1.0000      -0.745528       -20.2868 
  33   1.0000      -0.729519       -19.8512 
  34   1.0000      -0.714434       -19.4407 
  35   1.0000      -0.696598       -18.9554 
  36   1.0000      -0.655947       -17.8492 
  37   1.0000      -0.644381       -17.5345 
  38   1.0000      -0.617645       -16.8070 
  39   1.0000      -0.613018       -16.6811 
  40   1.0000      -0.609037       -16.5727 
  41   1.0000      -0.592378       -16.1194 
  42   1.0000      -0.579758       -15.7760 
  43   1.0000      -0.561939       -15.2911 
  44   1.0000      -0.542155       -14.7528 
  45   1.0000      -0.530757       -14.4426 
  46   1.0000      -0.506878       -13.7928 
  47   1.0000      -0.492942       -13.4136 
  48   1.0000      -0.480227       -13.0676 
  49   1.0000      -0.476429       -12.9643 
  50   1.0000      -0.470013       -12.7897 
  51   1.0000      -0.462708       -12.5909 
  52   1.0000      -0.456531       -12.4229 
  53   1.0000      -0.437008       -11.8916 
  54   1.0000      -0.432357       -11.7650 
  55   1.0000      -0.429270       -11.6810 
  56   1.0000      -0.425671       -11.5831 
  57   1.0000      -0.424815       -11.5598 
  58   1.0000      -0.421472       -11.4688 
  59   1.0000      -0.411377       -11.1941 
  60   1.0000      -0.398753       -10.8506 
  61   1.0000      -0.397524       -10.8172 
  62   1.0000      -0.383968       -10.4483 
  63   1.0000      -0.378572       -10.3015 
  64   1.0000      -0.377042       -10.2598 
  65   1.0000      -0.364767        -9.9258 
  66   1.0000      -0.362087        -9.8529 
  67   1.0000      -0.356563        -9.7026 
  68   1.0000      -0.353679        -9.6241 
  69   1.0000      -0.351223        -9.5573 
  70   1.0000      -0.339718        -9.2442 
  71   1.0000      -0.332629        -9.0513 
  72   1.0000      -0.331924        -9.0321 
  73   1.0000      -0.331251        -9.0138 
  74   1.0000      -0.326908        -8.8956 
  75   1.0000      -0.323024        -8.7899 
  76   1.0000      -0.320798        -8.7294 
  77   1.0000      -0.300397        -8.1742 
  78   1.0000      -0.276943        -7.5360 
  79   1.0000      -0.273442        -7.4407 
  80   1.0000      -0.268565        -7.3080 
  81   1.0000      -0.259095        -7.0503 
  82   1.0000      -0.256409        -6.9773 
  83   1.0000      -0.217656        -5.9227 
  84   1.0000      -0.171357        -4.6629 
  85   0.0000      -0.058926        -1.6035 
  86   0.0000      -0.014864        -0.4045 
  87   0.0000      -0.014076        -0.3830 
  88   0.0000       0.010622         0.2890 
  89   0.0000       0.015189         0.4133 
  90   0.0000       0.019539         0.5317 
  91   0.0000       0.022201         0.6041 
  92   0.0000       0.028366         0.7719 
  93   0.0000       0.033960         0.9241 
  94   0.0000       0.037508         1.0206 
  95   0.0000       0.039841         1.0841 
  96   0.0000       0.044507         1.2111 
  97   0.0000       0.045884         1.2486 
  98   0.0000       0.048282         1.3138 
  99   0.0000       0.056967         1.5501 
 100   0.0000       0.062463         1.6997 
 101   0.0000       0.066715         1.8154 
 102   0.0000       0.070182         1.9097 
 103   0.0000       0.073877         2.0103 
 104   0.0000       0.082614         2.2480 
 105   0.0000       0.084164         2.2902 
 106   0.0000       0.091282         2.4839 
 107   0.0000       0.099158         2.6982 
 108   0.0000       0.112312         3.0562 
 109   0.0000       0.113342         3.0842 
 110   0.0000       0.124378         3.3845 
 111   0.0000       0.126382         3.4390 
 112   0.0000       0.135383         3.6840 
 113   0.0000       0.149412         4.0657 
 114   0.0000       0.151309         4.1173 
 115   0.0000       0.159093         4.3292 
 116   0.0000       0.162271         4.4156 
 117   0.0000       0.174204         4.7403 
 118   0.0000       0.174990         4.7617 
 119   0.0000       0.181605         4.9417 
 120   0.0000       0.184833         5.0295 
 121   0.0000       0.194474         5.2919 
 122   0.0000       0.196469         5.3462 
 123   0.0000       0.197709         5.3799 
 124   0.0000       0.198585         5.4038 
 125   0.0000       0.201114         5.4726 
 126   0.0000       0.201529         5.4839 
 127   0.0000       0.206001         5.6056 
 128   0.0000       0.215246         5.8572 
 129   0.0000       0.216476         5.8906 
 130   0.0000       0.221594         6.0299 
 131   0.0000       0.222442         6.0530 
 132   0.0000       0.225843         6.1455 
 133   0.0000       0.234706         6.3867 
 134   0.0000       0.239614         6.5202 
 135   0.0000       0.244759         6.6602 
 136   0.0000       0.246312         6.7025 
 137   0.0000       0.252211         6.8630 
 138   0.0000       0.253555         6.8996 
 139   0.0000       0.254866         6.9353 
 140   0.0000       0.258089         7.0230 
 141   0.0000       0.264713         7.2032 
 142   0.0000       0.267146         7.2694 
 143   0.0000       0.273117         7.4319 
 144   0.0000       0.275993         7.5102 
 145   0.0000       0.278550         7.5797 
 146   0.0000       0.284506         7.7418 
 147   0.0000       0.286335         7.7916 
 148   0.0000       0.288854         7.8601 
 149   0.0000       0.293103         7.9757 
 150   0.0000       0.293623         7.9899 
 151   0.0000       0.296774         8.0756 
 152   0.0000       0.299891         8.1604 
 153   0.0000       0.301607         8.2071 
 154   0.0000       0.304586         8.2882 
 155   0.0000       0.307293         8.3619 
 156   0.0000       0.313590         8.5332 
 157   0.0000       0.316223         8.6049 
 158   0.0000       0.317029         8.6268 
 159   0.0000       0.321445         8.7470 
 160   0.0000       0.323979         8.8159 
 161   0.0000       0.324760         8.8372 
 162   0.0000       0.327848         8.9212 
 163   0.0000       0.334182         9.0936 
 164   0.0000       0.335409         9.1269 
 165   0.0000       0.345839         9.4107 
 166   0.0000       0.345945         9.4136 
 167   0.0000       0.348755         9.4901 
 168   0.0000       0.350251         9.5308 
 169   0.0000       0.355588         9.6760 
 170   0.0000       0.361850         9.8464 
 171   0.0000       0.368377        10.0240 
 172   0.0000       0.369791        10.0625 
 173   0.0000       0.375852        10.2274 
 174   0.0000       0.378033        10.2868 
 175   0.0000       0.384511        10.4631 
 176   0.0000       0.388264        10.5652 
 177   0.0000       0.398719        10.8497 
 178   0.0000       0.402563        10.9543 
 179   0.0000       0.406911        11.0726 
 180   0.0000       0.412628        11.2282 
 181   0.0000       0.415559        11.3079 
 182   0.0000       0.418330        11.3833 
 183   0.0000       0.421999        11.4832 
 184   0.0000       0.424162        11.5420 
 185   0.0000       0.425811        11.5869 
 186   0.0000       0.431371        11.7382 
 187   0.0000       0.438636        11.9359 
 188   0.0000       0.446559        12.1515 
 189   0.0000       0.447486        12.1767 
 190   0.0000       0.449086        12.2202 
 191   0.0000       0.457399        12.4465 
 192   0.0000       0.459116        12.4932 
 193   0.0000       0.465398        12.6641 
 194   0.0000       0.469124        12.7655 
 195   0.0000       0.472862        12.8672 
 196   0.0000       0.480340        13.0707 
 197   0.0000       0.485724        13.2172 
 198   0.0000       0.487694        13.2708 
 199   0.0000       0.490471        13.3464 
 200   0.0000       0.503678        13.7058 
 201   0.0000       0.506143        13.7729 
 202   0.0000       0.509847        13.8736 
 203   0.0000       0.514107        13.9896 
 204   0.0000       0.517697        14.0873 
 205   0.0000       0.520553        14.1650 
 206   0.0000       0.532611        14.4931 
 207   0.0000       0.536144        14.5892 
 208   0.0000       0.537279        14.6201 
 209   0.0000       0.541256        14.7283 
 210   0.0000       0.548738        14.9319 
 211   0.0000       0.553910        15.0727 
 212   0.0000       0.563019        15.3205 
 213   0.0000       0.573104        15.5950 
 214   0.0000       0.585535        15.9332 
 215   0.0000       0.591470        16.0947 
 216   0.0000       0.592023        16.1098 
 217   0.0000       0.593622        16.1533 
 218   0.0000       0.600736        16.3469 
 219   0.0000       0.603684        16.4271 
 220   0.0000       0.615216        16.7409 
 221   0.0000       0.622419        16.9369 
 222   0.0000       0.639121        17.3914 
 223   0.0000       0.643246        17.5036 
 224   0.0000       0.656681        17.8692 
 225   0.0000       0.663450        18.0534 
 226   0.0000       0.668310        18.1856 
 227   0.0000       0.676545        18.4097 
 228   0.0000       0.684307        18.6209 
 229   0.0000       0.688472        18.7343 
 230   0.0000       0.705774        19.2051 
 231   0.0000       0.724671        19.7193 
 232   0.0000       0.737643        20.0723 
 233   0.0000       0.755233        20.5509 
 234   0.0000       0.769613        20.9422 
 235   0.0000       0.777353        21.1528 
 236   0.0000       0.790772        21.5180 
 237   0.0000       0.791320        21.5329 
 238   0.0000       0.815396        22.1881 
 239   0.0000       0.820380        22.3237 
 240   0.0000       0.833382        22.6775 
 241   0.0000       0.836253        22.7556 
 242   0.0000       0.842649        22.9297 
 243   0.0000       0.847124        23.0514 
 244   0.0000       0.854120        23.2418 
 245   0.0000       0.857182        23.3251 
 246   0.0000       0.861495        23.4425 
 247   0.0000       0.866686        23.5837 
 248   0.0000       0.869206        23.6523 
 249   0.0000       0.880582        23.9618 
 250   0.0000       0.884063        24.0566 
 251   0.0000       0.891800        24.2671 
 252   0.0000       0.901245        24.5241 
 253   0.0000       0.901444        24.5295 
 254   0.0000       0.906804        24.6754 
 255   0.0000       0.913663        24.8620 
 256   0.0000       0.919410        25.0184 
 257   0.0000       0.919913        25.0321 
 258   0.0000       0.925125        25.1739 
 259   0.0000       0.925307        25.1789 
 260   0.0000       0.937276        25.5046 
 261   0.0000       0.939344        25.5609 
 262   0.0000       0.941015        25.6063 
 263   0.0000       0.944243        25.6942 
 264   0.0000       0.959284        26.1034 
 265   0.0000       0.960797        26.1446 
 266   0.0000       0.963875        26.2284 
 267   0.0000       0.972138        26.4532 
 268   0.0000       0.979960        26.6661 
 269   0.0000       0.980033        26.6681 
 270   0.0000       0.989761        26.9328 
 271   0.0000       0.991128        26.9700 
 272   0.0000       0.994187        27.0532 
 273   0.0000       0.997701        27.1488 
 274   0.0000       1.000512        27.2253 
 275   0.0000       1.002910        27.2906 
 276   0.0000       1.008970        27.4555 
 277   0.0000       1.011327        27.5196 
 278   0.0000       1.021371        27.7929 
 279   0.0000       1.027065        27.9478 
 280   0.0000       1.027884        27.9701 
 281   0.0000       1.030705        28.0469 
 282   0.0000       1.035595        28.1800 
 283   0.0000       1.037805        28.2401 
 284   0.0000       1.059398        28.8277 
 285   0.0000       1.059549        28.8318 
 286   0.0000       1.059786        28.8382 
 287   0.0000       1.071187        29.1485 
 288   0.0000       1.073027        29.1986 
 289   0.0000       1.092050        29.7162 
 290   0.0000       1.103906        30.0388 
 291   0.0000       1.106400        30.1067 
 292   0.0000       1.110714        30.2241 
 293   0.0000       1.116725        30.3876 
 294   0.0000       1.120100        30.4795 
 295   0.0000       1.137552        30.9544 
 296   0.0000       1.140769        31.0419 
 297   0.0000       1.141934        31.0736 
 298   0.0000       1.169867        31.8337 
 299   0.0000       1.172251        31.8986 
 300   0.0000       1.177665        32.0459 
 301   0.0000       1.183799        32.2128 
 302   0.0000       1.188052        32.3285 
 303   0.0000       1.189088        32.3567 
 304   0.0000       1.197958        32.5981 
 305   0.0000       1.204335        32.7716 
 306   0.0000       1.207093        32.8467 
 307   0.0000       1.216414        33.1003 
 308   0.0000       1.243796        33.8454 
 309   0.0000       1.248959        33.9859 
 310   0.0000       1.257706        34.2239 
 311   0.0000       1.259121        34.2624 
 312   0.0000       1.271108        34.5886 
 313   0.0000       1.274323        34.6761 
 314   0.0000       1.281476        34.8707 
 315   0.0000       1.296913        35.2908 
 316   0.0000       1.304817        35.5059 
 317   0.0000       1.307128        35.5688 
 318   0.0000       1.313465        35.7412 
 319   0.0000       1.319029        35.8926 
 320   0.0000       1.333181        36.2777 
 321   0.0000       1.345978        36.6259 
 322   0.0000       1.355870        36.8951 
 323   0.0000       1.362836        37.0847 
 324   0.0000       1.365105        37.1464 
 325   0.0000       1.367571        37.2135 
 326   0.0000       1.384711        37.6799 
 327   0.0000       1.399409        38.0799 
 328   0.0000       1.403922        38.2027 
 329   0.0000       1.416317        38.5400 
 330   0.0000       1.426248        38.8102 
 331   0.0000       1.427045        38.8319 
 332   0.0000       1.429662        38.9031 
 333   0.0000       1.430947        38.9380 
 334   0.0000       1.441815        39.2338 
 335   0.0000       1.442100        39.2415 
 336   0.0000       1.449959        39.4554 
 337   0.0000       1.453866        39.5617 
 338   0.0000       1.465585        39.8806 
 339   0.0000       1.468057        39.9479 
 340   0.0000       1.477010        40.1915 
 341   0.0000       1.480170        40.2775 
 342   0.0000       1.499641        40.8073 
 343   0.0000       1.500946        40.8428 
 344   0.0000       1.508057        41.0363 
 345   0.0000       1.513502        41.1845 
 346   0.0000       1.514463        41.2106 
 347   0.0000       1.521737        41.4086 
 348   0.0000       1.542838        41.9828 
 349   0.0000       1.556533        42.3554 
 350   0.0000       1.560359        42.4595 
 351   0.0000       1.562019        42.5047 
 352   0.0000       1.562830        42.5268 
 353   0.0000       1.565266        42.5930 
 354   0.0000       1.572919        42.8013 
 355   0.0000       1.583812        43.0977 
 356   0.0000       1.589974        43.2654 
 357   0.0000       1.592846        43.3435 
 358   0.0000       1.597434        43.4684 
 359   0.0000       1.599480        43.5241 
 360   0.0000       1.604194        43.6523 
 361   0.0000       1.622147        44.1409 
 362   0.0000       1.624947        44.2171 
 363   0.0000       1.634344        44.4728 
 364   0.0000       1.638126        44.5757 
 365   0.0000       1.638682        44.5908 
 366   0.0000       1.639852        44.6226 
 367   0.0000       1.656237        45.0685 
 368   0.0000       1.660103        45.1737 
 369   0.0000       1.665332        45.3160 
 370   0.0000       1.679098        45.6906 
 371   0.0000       1.683283        45.8045 
 372   0.0000       1.688977        45.9594 
 373   0.0000       1.690965        46.0135 
 374   0.0000       1.696692        46.1693 
 375   0.0000       1.699210        46.2378 
 376   0.0000       1.704328        46.3771 
 377   0.0000       1.705574        46.4110 
 378   0.0000       1.720088        46.8060 
 379   0.0000       1.722580        46.8738 
 380   0.0000       1.732836        47.1529 
 381   0.0000       1.738068        47.2952 
 382   0.0000       1.747435        47.5501 
 383   0.0000       1.748679        47.5840 
 384   0.0000       1.770814        48.1863 
 385   0.0000       1.772644        48.2361 
 386   0.0000       1.774192        48.2782 
 387   0.0000       1.787903        48.6513 
 388   0.0000       1.791427        48.7472 
 389   0.0000       1.791745        48.7559 
 390   0.0000       1.795012        48.8448 
 391   0.0000       1.797421        48.9103 
 392   0.0000       1.808694        49.2171 
 393   0.0000       1.817553        49.4581 
 394   0.0000       1.826845        49.7110 
 395   0.0000       1.832443        49.8633 
 396   0.0000       1.840434        50.0808 
 397   0.0000       1.848623        50.3036 
 398   0.0000       1.857047        50.5328 
 399   0.0000       1.858816        50.5810 
 400   0.0000       1.881646        51.2022 
 401   0.0000       1.914077        52.0847 
 402   0.0000       1.919597        52.2349 
 403   0.0000       1.930441        52.5300 
 404   0.0000       1.934211        52.6325 
 405   0.0000       1.941409        52.8284 
 406   0.0000       1.951991        53.1164 
 407   0.0000       1.953913        53.1687 
 408   0.0000       1.975053        53.7439 
 409   0.0000       1.977888        53.8211 
 410   0.0000       2.011435        54.7339 
 411   0.0000       2.020526        54.9813 
 412   0.0000       2.036050        55.4037 
 413   0.0000       2.039507        55.4978 
 414   0.0000       2.044190        55.6252 
 415   0.0000       2.055536        55.9340 
 416   0.0000       2.074863        56.4599 
 417   0.0000       2.090808        56.8938 
 418   0.0000       2.099816        57.1389 
 419   0.0000       2.108671        57.3798 
 420   0.0000       2.111567        57.4587 
 421   0.0000       2.126904        57.8760 
 422   0.0000       2.148740        58.4702 
 423   0.0000       2.148965        58.4763 
 424   0.0000       2.181717        59.3675 
 425   0.0000       2.188469        59.5513 
 426   0.0000       2.192720        59.6669 
 427   0.0000       2.200262        59.8722 
 428   0.0000       2.211308        60.1727 
 429   0.0000       2.223453        60.5032 
 430   0.0000       2.241776        61.0018 
 431   0.0000       2.244383        61.0728 
 432   0.0000       2.248820        61.1935 
 433   0.0000       2.253626        61.3243 
 434   0.0000       2.262322        61.5609 
 435   0.0000       2.282927        62.1216 
 436   0.0000       2.304303        62.7033 
 437   0.0000       2.310151        62.8624 
 438   0.0000       2.316283        63.0293 
 439   0.0000       2.323959        63.2381 
 440   0.0000       2.326261        63.3008 
 441   0.0000       2.355034        64.0837 
 442   0.0000       2.375356        64.6367 
 443   0.0000       2.385552        64.9142 
 444   0.0000       2.393797        65.1385 
 445   0.0000       2.402155        65.3660 
 446   0.0000       2.412279        65.6414 
 447   0.0000       2.413518        65.6752 
 448   0.0000       2.428660        66.0872 
 449   0.0000       2.443509        66.4913 
 450   0.0000       2.449513        66.6546 
 451   0.0000       2.459607        66.9293 
 452   0.0000       2.467895        67.1548 
 453   0.0000       2.473608        67.3103 
 454   0.0000       2.474844        67.3439 
 455   0.0000       2.481287        67.5193 
 456   0.0000       2.504999        68.1645 
 457   0.0000       2.512867        68.3786 
 458   0.0000       2.522444        68.6392 
 459   0.0000       2.525768        68.7296 
 460   0.0000       2.537569        69.0508 
 461   0.0000       2.539016        69.0901 
 462   0.0000       2.557521        69.5937 
 463   0.0000       2.561092        69.6909 
 464   0.0000       2.565441        69.8092 
 465   0.0000       2.568606        69.8953 
 466   0.0000       2.582462        70.2724 
 467   0.0000       2.585037        70.3424 
 468   0.0000       2.605246        70.8923 
 469   0.0000       2.615840        71.1806 
 470   0.0000       2.619688        71.2853 
 471   0.0000       2.628945        71.5372 
 472   0.0000       2.653240        72.1983 
 473   0.0000       2.709044        73.7168 
 474   0.0000       2.747996        74.7768 
 475   0.0000       2.771718        75.4223 
 476   0.0000       2.795916        76.0807 
 477   0.0000       2.820016        76.7365 
 478   0.0000       2.874828        78.2281 
 479   0.0000       2.890196        78.6462 
 480   0.0000       2.962688        80.6188 
 481   0.0000       2.971392        80.8557 
 482   0.0000       3.091575        84.1260 
 483   0.0000       3.295578        89.6772 
 484   0.0000       3.431621        93.3791 
 485   0.0000       4.978421       135.4697 
 486   0.0000       4.985623       135.6657 
 487   0.0000       5.003724       136.1582 
 488   0.0000       5.010498       136.3426 
 489   0.0000       5.011260       136.3633 
 490   0.0000       5.020585       136.6171 
 491   0.0000       5.024181       136.7149 
 492   0.0000       5.024532       136.7245 
 493   0.0000       5.035146       137.0133 
 494   0.0000       5.047468       137.3486 
 495   0.0000       5.091189       138.5383 
 496   0.0000       5.096616       138.6860 
 497   0.0000       5.168645       140.6460 
 498   0.0000       5.199996       141.4991 
 499   0.0000       5.208670       141.7351 
 500   0.0000       5.236032       142.4797 
 501   0.0000       5.247025       142.7788 
 502   0.0000       5.249311       142.8410 
 503   0.0000       5.257336       143.0594 
 504   0.0000       5.279488       143.6622 
 505   0.0000       5.291564       143.9908 
 506   0.0000       5.303136       144.3057 
 507   0.0000       5.309146       144.4692 
 508   0.0000       5.312113       144.5499 
 509   0.0000       5.356327       145.7531 
 510   0.0000       5.364958       145.9879 
 511   0.0000       5.373345       146.2161 
 512   0.0000       5.377787       146.3370 
 513   0.0000       5.408200       147.1646 
 514   0.0000       5.423784       147.5887 
 515   0.0000       5.462573       148.6442 
 516   0.0000       5.480799       149.1401 
 517   0.0000       5.555733       151.1792 
 518   0.0000       5.569483       151.5533 
 519   0.0000       5.591055       152.1404 
 520   0.0000       5.628059       153.1473 
 521   0.0000       5.651240       153.7781 
 522   0.0000       5.661360       154.0534 
 523   0.0000       5.679818       154.5557 
 524   0.0000       5.734949       156.0559 
 525   0.0000       5.743901       156.2995 
 526   0.0000       5.778947       157.2531 
 527   0.0000       5.836006       158.8058 
 528   0.0000       5.855855       159.3459 
 529   0.0000       5.882501       160.0710 
 530   0.0000       5.925034       161.2284 
 531   0.0000       6.111514       166.3028 
 532   0.0000       6.278956       170.8591 
 533   0.0000       6.356816       172.9778 
 534   0.0000      29.618529       805.9611 
 535   0.0000      29.736874       809.1815 
 536   0.0000      29.807794       811.1113 
 537   0.0000      29.835730       811.8715 
 538   0.0000      29.858055       812.4790 
 539   0.0000      29.862779       812.6075 
 540   0.0000      29.959751       815.2463 
 541   0.0000      29.982354       815.8613 
 542   0.0000      29.996474       816.2456 
 543   0.0000      30.041858       817.4805 
 544   0.0000      30.077465       818.4494 
 545   0.0000      30.087754       818.7294 
 546   0.0000      30.101711       819.1092 
 547   0.0000      30.126531       819.7846 
 548   0.0000      30.137012       820.0698 
 549   0.0000      30.184818       821.3707 
 550   0.0000      30.212534       822.1249 
 551   0.0000      30.253964       823.2522 
 552   0.0000      30.260213       823.4223 
 553   0.0000      30.275039       823.8257 
 554   0.0000      30.298318       824.4592 
 555   0.0000      30.400112       827.2291 
 556   0.0000      30.507087       830.1400 
 557   0.0000      30.579082       832.0991 
 558   0.0000      36.604238       996.0520 
 559   0.0000      36.613608       996.3069 
 560   0.0000      36.629348       996.7352 
 561   0.0000      36.635599       996.9053 
 562   0.0000      36.639575       997.0135 
 563   0.0000      36.645638       997.1785 
 564   0.0000      36.650753       997.3177 
 565   0.0000      36.661598       997.6128 
 566   0.0000      36.672444       997.9079 
 567   0.0000      36.704582       998.7824 
 568   0.0000      36.717189       999.1255 
 569   0.0000      36.787169      1001.0298 
 570   0.0000      36.818172      1001.8734 
 571   0.0000      36.823957      1002.0308 
 572   0.0000      36.839932      1002.4655 
 573   0.0000      36.854773      1002.8693 
 574   0.0000      36.870357      1003.2934 
 575   0.0000      36.877787      1003.4956 
 576   0.0000      36.883469      1003.6502 
 577   0.0000      36.919633      1004.6343 
 578   0.0000      36.935068      1005.0543 
 579   0.0000      36.936703      1005.0988 
 580   0.0000      36.970103      1006.0077 
 581   0.0000      37.011977      1007.1471 
 582   0.0000      37.042549      1007.9790 

                 SPIN DOWN ORBITALS
  NO   OCC          E(Eh)            E(eV) 
   0   1.0000     -10.227052      -278.2922 
   1   1.0000     -10.223445      -278.1941 
   2   1.0000     -10.220629      -278.1175 
   3   1.0000     -10.210782      -277.8495 
   4   1.0000     -10.208181      -277.7787 
   5   1.0000     -10.205222      -277.6982 
   6   1.0000     -10.204542      -277.6797 
   7   1.0000     -10.204251      -277.6718 
   8   1.0000     -10.203971      -277.6642 
   9   1.0000     -10.203506      -277.6515 
  10   1.0000     -10.203218      -277.6437 
  11   1.0000     -10.201450      -277.5956 
  12   1.0000     -10.199295      -277.5369 
  13   1.0000     -10.199268      -277.5362 
  14   1.0000     -10.197985      -277.5013 
  15   1.0000     -10.197302      -277.4827 
  16   1.0000     -10.190784      -277.3053 
  17   1.0000     -10.188576      -277.2452 
  18   1.0000     -10.187678      -277.2208 
  19   1.0000     -10.185544      -277.1627 
  20   1.0000     -10.182252      -277.0732 
  21   1.0000     -10.181980      -277.0658 
  22   1.0000     -10.175385      -276.8863 
  23   1.0000     -10.172992      -276.8212 
  24   1.0000      -0.870277       -23.6814 
  25   1.0000      -0.862299       -23.4644 
  26   1.0000      -0.814461       -22.1626 
  27   1.0000      -0.796236       -21.6667 
  28   1.0000      -0.792947       -21.5772 
  29   1.0000      -0.777807       -21.1652 
  30   1.0000      -0.764660       -20.8074 
  31   1.0000      -0.750454       -20.4209 
  32   1.0000      -0.744545       -20.2601 
  33   1.0000      -0.725474       -19.7412 
  34   1.0000      -0.713712       -19.4211 
  35   1.0000      -0.694403       -18.8957 
  36   1.0000      -0.652884       -17.7659 
  37   1.0000      -0.643148       -17.5009 
  38   1.0000      -0.614768       -16.7287 
  39   1.0000      -0.609504       -16.5855 
  40   1.0000      -0.608784       -16.5658 
  41   1.0000      -0.591475       -16.0949 
  42   1.0000      -0.578127       -15.7316 
  43   1.0000      -0.559602       -15.2275 
  44   1.0000      -0.541606       -14.7379 
  45   1.0000      -0.529523       -14.4091 
  46   1.0000      -0.503657       -13.7052 
  47   1.0000      -0.492071       -13.3899 
  48   1.0000      -0.479139       -13.0380 
  49   1.0000      -0.475264       -12.9326 
  50   1.0000      -0.469151       -12.7663 
  51   1.0000      -0.459329       -12.4990 
  52   1.0000      -0.456322       -12.4171 
  53   1.0000      -0.436547       -11.8791 
  54   1.0000      -0.430767       -11.7218 
  55   1.0000      -0.427551       -11.6343 
  56   1.0000      -0.424826       -11.5601 
  57   1.0000      -0.424338       -11.5468 
  58   1.0000      -0.418861       -11.3978 
  59   1.0000      -0.410939       -11.1822 
  60   1.0000      -0.396428       -10.7874 
  61   1.0000      -0.391282       -10.6473 
  62   1.0000      -0.381302       -10.3758 
  63   1.0000      -0.376263       -10.2386 
  64   1.0000      -0.374432       -10.1888 
  65   1.0000      -0.363610        -9.8943 
  66   1.0000      -0.361694        -9.8422 
  67   1.0000      -0.355683        -9.6786 
  68   1.0000      -0.351053        -9.5526 
  69   1.0000      -0.350670        -9.5422 
  70   1.0000      -0.337394        -9.1810 
  71   1.0000      -0.332120        -9.0374 
  72   1.0000      -0.330213        -8.9856 
  73   1.0000      -0.329094        -8.9551 
  74   1.0000      -0.326557        -8.8861 
  75   1.0000      -0.322330        -8.7710 
  76   1.0000      -0.320235        -8.7140 
  77   1.0000      -0.297616        -8.0986 
  78   1.0000      -0.276896        -7.5347 
  79   1.0000      -0.268144        -7.2966 
  80   1.0000      -0.260196        -7.0803 
  81   1.0000      -0.258094        -7.0231 
  82   1.0000      -0.251410        -6.8412 
  83   1.0000      -0.211389        -5.7522 
  84   0.0000      -0.086973        -2.3667 
  85   0.0000      -0.051055        -1.3893 
  86   0.0000      -0.013250        -0.3606 
  87   0.0000      -0.009784        -0.2662 
  88   0.0000       0.015427         0.4198 
  89   0.0000       0.019910         0.5418 
  90   0.0000       0.022304         0.6069 
  91   0.0000       0.026513         0.7215 
  92   0.0000       0.028434         0.7737 
  93   0.0000       0.034096         0.9278 
  94   0.0000       0.037691         1.0256 
  95   0.0000       0.040203         1.0940 
  96   0.0000       0.044568         1.2128 
  97   0.0000       0.045931         1.2498 
  98   0.0000       0.048568         1.3216 
[...]
  Y           0.9682563           -0.2499555            0.0014396
  Z           0.0016459            0.0006165           -0.9999985

Notes:  (1) The A matrix conforms to the "SAI" spin Hamiltonian convention.
        (2) Tensor is right-handed.

 -----------------------------------------------------------
 Nucleus  46H : A:ISTP=    1 I=  0.5 P=533.5514 MHz/au**3
                Q:ISTP=    2 I=  1.0 Q=  0.0029 barn     
 -----------------------------------------------------------
 Solving for nuclear perturbation:
Forming RHS of the CP-SCF equations         ... 
Calc. nucleus orbit integrals (SHARK)       ... done

------------------------------------------------------------------------------
                           ORCA CP-SCF CALCULATION
------------------------------------------------------------------------------

Input orbitals are from        ... EPRII.gbw
Input Perturbation             ... EPRII.pin.tmp
Wavefunction output            ... EPRII.pout.tmp
Perturbation mode              ... Imaginary perturbation
Solver                         ... POPLE
Max. number of iterations      ... 64
Convergence tolerance          ... 1.000e-03
Integral handling              ... Direct
DFT GridXC                     ... 1
COSX GridX                     ... 1
COSX IntAccX                   ... 3.067
COSX Algorithm                 ... Auto
Number of perturbations        ... 3
Number of operators            ... 2
Orbital ranges used for CP-SCF:
 Operator 0:  Orbitals   0... 84  to  85...582
 Operator 1:  Orbitals   0... 83  to  84...582
Variables per perturbation     ... 84246
DFT calculation                         ... on
XC functional terms                     ... off
Hybrid DFT                              ... on
   Exchange mixing (SCF)                ...  0.200
   Exchange mixing (CP-SCF)             ...  0.200
   GGA exch. scaling(SCF)               ...  0.720
   GGA exch. scaling (CP-SCF)           ...  0.720
   GGA corr. scaling (SCF)              ...  0.810
   GGA corr. scaling (CP-SCF)           ...  0.810

CP-SCF GRID
-----------

General Integration Accuracy     IntAcc      ... 3.467
Radial Grid Type                 RadialGrid  ... OptM3 with GC (2021)
Angular Grid (max. ang.)         AngularGrid ... 1 (Lebedev-50)
Angular grid pruning method      GridPruning ... 4 (adaptive)
Weight generation scheme         WeightScheme... Becke
Basis function cutoff            BFCut       ... 1.0000e-10
Integration weight cutoff        WCut        ... 1.0000e-14
Angular grids for H and He will be reduced by one unit
Partially contracted basis set               ... off
Rotationally invariant grid construction     ... off

Total number of grid points                  ...    31901
Total number of batches                      ...      518
Average number of points per batch           ...       61
Average number of grid points per atom       ...      651

CP-SCF GRIDX
------------

General Integration Accuracy     IntAcc      ... 3.067
Radial Grid Type                 RadialGrid  ... OptM3 with GC (2021)
Angular Grid (max. ang.)         AngularGrid ... 1 (Lebedev-50)
Angular grid pruning method      GridPruning ... 4 (adaptive)
Weight generation scheme         WeightScheme... Becke
Basis function cutoff            BFCut       ... 1.0000e-10
Integration weight cutoff        WCut        ... 1.0000e-14
Angular grids for H and He will be reduced by one unit
Partially contracted basis set               ... on
Rotationally invariant grid construction     ... off

Total number of grid points                  ...    14955
Total number of batches                      ...      263
Average number of points per batch           ...       56
Average number of grid points per atom       ...      305

Memory available               ... 850.4 MB
Memory needed per perturbation ...  20.0 MB
Perturbations treated per batch... 3
Number of batches              ... 1
     CP-SCF ITERATION   0:   4.1889e-02 (   2.2 sec   0/  3 done)
     CP-SCF ITERATION   1:   1.7258e-03 (   2.2 sec   1/  3 done)
     CP-SCF ITERATION   2:   9.2569e-05 (   1.9 sec   3/  3 done)
                    *** THE CP-SCF HAS CONVERGED ***

Forming final perturbed densities           ... done
Transforming perturbed density to AO basis  ... done

 Raw HFC matrix (all values in MHz): 
 -----------------------------------
                 1.4066              -0.2658               0.0021
                -0.2657               0.5902              -0.0005
                 0.0021              -0.0005               0.3944

 A(FC)           0.7971               0.7971               0.7971
 A(SD)          -0.4027              -0.2859               0.6885
 A(ORB+DIA)     -0.0000               0.0001              -0.0001    A(PC) =  -0.0000
 A(ORB)         -0.0000               0.0001              -0.0002    A(PC) =  -0.0000
 A(DIA)          0.0000               0.0000               0.0000    A(PC) =   0.0000
             ----------           ----------           ----------
 A(Tot)          0.3944               0.5113               1.4854    A(iso)=    0.7970
 Orientation: 
  X          -0.0021448           -0.2845642            0.9586546
  Y          -0.0004507           -0.9586564           -0.2845658
  Z           0.9999976           -0.0010424            0.0019279

Notes:  (1) The A matrix conforms to the "SAI" spin Hamiltonian convention.
        (2) Tensor is right-handed.

 -----------------------------------------------------------
 Nucleus  47H : A:ISTP=    1 I=  0.5 P=533.5514 MHz/au**3
                Q:ISTP=    2 I=  1.0 Q=  0.0029 barn     
 -----------------------------------------------------------
 Solving for nuclear perturbation:
Forming RHS of the CP-SCF equations         ... 
Calc. nucleus orbit integrals (SHARK)       ... done

------------------------------------------------------------------------------
                           ORCA CP-SCF CALCULATION
------------------------------------------------------------------------------

Input orbitals are from        ... EPRII.gbw
Input Perturbation             ... EPRII.pin.tmp
Wavefunction output            ... EPRII.pout.tmp
Perturbation mode              ... Imaginary perturbation
Solver                         ... POPLE
Max. number of iterations      ... 64
Convergence tolerance          ... 1.000e-03
Integral handling              ... Direct
DFT GridXC                     ... 1
COSX GridX                     ... 1
COSX IntAccX                   ... 3.067
COSX Algorithm                 ... Auto
Number of perturbations        ... 3
Number of operators            ... 2
Orbital ranges used for CP-SCF:
 Operator 0:  Orbitals   0... 84  to  85...582
 Operator 1:  Orbitals   0... 83  to  84...582
Variables per perturbation     ... 84246
DFT calculation                         ... on
XC functional terms                     ... off
Hybrid DFT                              ... on
   Exchange mixing (SCF)                ...  0.200
   Exchange mixing (CP-SCF)             ...  0.200
   GGA exch. scaling(SCF)               ...  0.720
   GGA exch. scaling (CP-SCF)           ...  0.720
   GGA corr. scaling (SCF)              ...  0.810
   GGA corr. scaling (CP-SCF)           ...  0.810

CP-SCF GRID
-----------

General Integration Accuracy     IntAcc      ... 3.467
Radial Grid Type                 RadialGrid  ... OptM3 with GC (2021)
Angular Grid (max. ang.)         AngularGrid ... 1 (Lebedev-50)
Angular grid pruning method      GridPruning ... 4 (adaptive)
Weight generation scheme         WeightScheme... Becke
Basis function cutoff            BFCut       ... 1.0000e-10
Integration weight cutoff        WCut        ... 1.0000e-14
Angular grids for H and He will be reduced by one unit
Partially contracted basis set               ... off
Rotationally invariant grid construction     ... off

Total number of grid points                  ...    31901
Total number of batches                      ...      518
Average number of points per batch           ...       61
Average number of grid points per atom       ...      651

CP-SCF GRIDX
------------

General Integration Accuracy     IntAcc      ... 3.067
Radial Grid Type                 RadialGrid  ... OptM3 with GC (2021)
Angular Grid (max. ang.)         AngularGrid ... 1 (Lebedev-50)
Angular grid pruning method      GridPruning ... 4 (adaptive)
Weight generation scheme         WeightScheme... Becke
Basis function cutoff            BFCut       ... 1.0000e-10
Integration weight cutoff        WCut        ... 1.0000e-14
Angular grids for H and He will be reduced by one unit
Partially contracted basis set               ... on
Rotationally invariant grid construction     ... off

Total number of grid points                  ...    14955
Total number of batches                      ...      263
Average number of points per batch           ...       56
Average number of grid points per atom       ...      305

Memory available               ... 849.7 MB
Memory needed per perturbation ...  20.0 MB
Perturbations treated per batch... 3
Number of batches              ... 1
     CP-SCF ITERATION   0:   4.1855e-02 (   2.5 sec   0/  3 done)
     CP-SCF ITERATION   1:   1.7026e-03 (   2.2 sec   2/  3 done)
     CP-SCF ITERATION   2:   7.9991e-05 (   1.5 sec   3/  3 done)
                    *** THE CP-SCF HAS CONVERGED ***

Forming final perturbed densities           ... done
Transforming perturbed density to AO basis  ... done

 Raw HFC matrix (all values in MHz): 
 -----------------------------------
                 1.2566               0.0432               0.0019
                 0.0432               0.6850               0.0004
                 0.0019               0.0004               0.4515

 A(FC)           0.7977               0.7977               0.7977
 A(SD)          -0.3463              -0.1160               0.4623
 A(ORB+DIA)      0.0000               0.0001              -0.0002    A(PC) =  -0.0000
 A(ORB)         -0.0000               0.0001              -0.0002    A(PC) =  -0.0001
 A(DIA)          0.0000              -0.0000               0.0001    A(PC) =   0.0000
             ----------           ----------           ----------
 A(Tot)          0.4515               0.6817               1.2598    A(iso)=    0.7977
 Orientation: 
  X          -0.0023470           -0.0749515           -0.9971844
  Y          -0.0013794            0.9971865           -0.0749484
  Z           0.9999963            0.0011996           -0.0024438

Notes:  (1) The A matrix conforms to the "SAI" spin Hamiltonian convention.
        (2) Tensor is right-handed.

 -----------------------------------------------------------
 Nucleus  48H : A:ISTP=    1 I=  0.5 P=533.5514 MHz/au**3
                Q:ISTP=    2 I=  1.0 Q=  0.0029 barn     
 -----------------------------------------------------------
 Solving for nuclear perturbation:
Forming RHS of the CP-SCF equations         ... 
Calc. nucleus orbit integrals (SHARK)       ... done

------------------------------------------------------------------------------
                           ORCA CP-SCF CALCULATION
------------------------------------------------------------------------------

Input orbitals are from        ... EPRII.gbw
Input Perturbation             ... EPRII.pin.tmp
Wavefunction output            ... EPRII.pout.tmp
Perturbation mode              ... Imaginary perturbation
Solver                         ... POPLE
Max. number of iterations      ... 64
Convergence tolerance          ... 1.000e-03
Integral handling              ... Direct
DFT GridXC                     ... 1
COSX GridX                     ... 1
COSX IntAccX                   ... 3.067
COSX Algorithm                 ... Auto
Number of perturbations        ... 3
Number of operators            ... 2
Orbital ranges used for CP-SCF:
 Operator 0:  Orbitals   0... 84  to  85...582
 Operator 1:  Orbitals   0... 83  to  84...582
Variables per perturbation     ... 84246
DFT calculation                         ... on
XC functional terms                     ... off
Hybrid DFT                              ... on
   Exchange mixing (SCF)                ...  0.200
   Exchange mixing (CP-SCF)             ...  0.200
   GGA exch. scaling(SCF)               ...  0.720
   GGA exch. scaling (CP-SCF)           ...  0.720
   GGA corr. scaling (SCF)              ...  0.810
   GGA corr. scaling (CP-SCF)           ...  0.810

CP-SCF GRID
-----------

General Integration Accuracy     IntAcc      ... 3.467
Radial Grid Type                 RadialGrid  ... OptM3 with GC (2021)
Angular Grid (max. ang.)         AngularGrid ... 1 (Lebedev-50)
Angular grid pruning method      GridPruning ... 4 (adaptive)
Weight generation scheme         WeightScheme... Becke
Basis function cutoff            BFCut       ... 1.0000e-10
Integration weight cutoff        WCut        ... 1.0000e-14
Angular grids for H and He will be reduced by one unit
Partially contracted basis set               ... off
Rotationally invariant grid construction     ... off

Total number of grid points                  ...    31901
Total number of batches                      ...      518
Average number of points per batch           ...       61
Average number of grid points per atom       ...      651

CP-SCF GRIDX
------------

General Integration Accuracy     IntAcc      ... 3.067
Radial Grid Type                 RadialGrid  ... OptM3 with GC (2021)
Angular Grid (max. ang.)         AngularGrid ... 1 (Lebedev-50)
Angular grid pruning method      GridPruning ... 4 (adaptive)
Weight generation scheme         WeightScheme... Becke
Basis function cutoff            BFCut       ... 1.0000e-10
Integration weight cutoff        WCut        ... 1.0000e-14
Angular grids for H and He will be reduced by one unit
Partially contracted basis set               ... on
Rotationally invariant grid construction     ... off

Total number of grid points                  ...    14955
Total number of batches                      ...      263
Average number of points per batch           ...       56
Average number of grid points per atom       ...      305

Memory available               ... 849.0 MB
Memory needed per perturbation ...  20.0 MB
Perturbations treated per batch... 3
Number of batches              ... 1
     CP-SCF ITERATION   0:   4.6063e-02 (   2.3 sec   0/  3 done)
     CP-SCF ITERATION   1:   2.0884e-03 (   2.3 sec   0/  3 done)
     CP-SCF ITERATION   2:   1.4352e-04 (   2.3 sec   3/  3 done)
                    *** THE CP-SCF HAS CONVERGED ***

Forming final perturbed densities           ... done
Transforming perturbed density to AO basis  ... done

 Raw HFC matrix (all values in MHz): 
 -----------------------------------
                -1.1816              -0.5748               0.0021
                -0.5745              -1.6135              -0.0008
                 0.0021              -0.0008              -2.6852

 A(FC)          -1.8272              -1.8272              -1.8272
 A(SD)           1.0429              -0.1851              -0.8578
 A(ORB+DIA)      0.0007               0.0009              -0.0001    A(PC) =   0.0005
 A(ORB)          0.0006               0.0007               0.0000    A(PC) =   0.0004
 A(DIA)          0.0001               0.0001              -0.0001    A(PC) =   0.0000
             ----------           ----------           ----------
 A(Tot)         -0.7837              -2.0115              -2.6852    A(iso)=   -1.8268
 Orientation: 
  X          -0.8221124            0.5693235            0.0013862
  Y           0.5693240            0.8221132           -0.0000244
  Z          -0.0011535            0.0007691           -0.9999990

Notes:  (1) The A matrix conforms to the "SAI" spin Hamiltonian convention.
        (2) Tensor is right-handed.


--------------------------------------------------------------------------------
----------------------------------------------------------------------------
                           ORCA EULER ANGLE PROGRAM
----------------------------------------------------------------------------

Only g-tensor available        -->  using g-tensor as reference tensor

Reference tensor               ...  g

g-tensor ordering              ...  |g_min> --> |gx>
                                    |g_mid> --> |gy>
                                    |g_max> --> |gz>

A- and EFG-tensor ordering     ...  the axes |Ax>, |Qx>, |Ay>, etc. are assigned
                                    such that the Euler rotation is minimal. You
                                    can find the respective eigenvalues as Ax,
                                    EFGx, Ay, etc. in the tables below.
                                    The relation of |Ax>, |Ay>,  etc. to Amin, Amid, etc.
                                    (as printed in the ORCA EPR/NMR CALCULATION Output)
                                    is obtained in the detailed printout.

Euler rotation around          ...  z - y - z
   First rotation              -->  by alpha around z
   Second rotation             -->  by beta around y'
   Third rotation              -->  by gamma around z''
   Positive / Negative angle   -->  clockwise / counterclockwise rotation

Plot EFG-tensors                    (-)
Plot HFC-tensors                    (-)
Detailed Printout                   (-)

-------------------------------------------------------------------------
          Euler rotation of hyperfine tensor to g-tensor
-------------------------------------------------------------------------

-------------------------------------------------------------------
 Atom  |   Alpha    Beta    Gamma   |   Ax       Ay       Az 
       |          [degrees]         |           [MHz]         
-------------------------------------------------------------------
  9H      -90.1     23.3     90.1     -17.14    -8.03   -20.67
 10H      -90.0     26.4     90.0       4.63     5.20    10.04
 12H       90.0     26.5    -90.0     -48.44   -20.04   -73.28
 14H      -74.4     22.7     54.1      68.03    77.53    69.51
 15H     -105.0     22.6    125.2      67.72    77.22    69.21
 17H      -15.1     15.1    -19.3      -3.31    -3.14     2.93
 18H     -164.7     15.0   -160.8      -3.30    -3.14     2.93
 20H       28.1     36.5    -73.0       0.10    -0.01     2.30
 21H      151.5     36.5   -107.0       0.10    -0.01     2.30
 23H      -91.3     25.7    134.2      24.38    25.00    28.07
 24H      -88.8     25.6     45.8      24.39    25.00    28.07
 26H       77.4     43.9    -72.1      -1.03    -0.90     0.90
 27H      103.1     41.6   -108.8      -1.03    -0.90     0.90
 29H      100.3     12.5   -134.5      -0.09    -0.13     0.81
 30H       79.8     12.5    -45.7      -0.09    -0.13     0.81
 32H      102.3     27.8   -106.1      -0.12    -0.09     0.38
 33H       77.7     27.8    -74.0      -0.12    -0.09     0.38
 35H       89.9     24.2    -90.1       3.75     2.69     5.34
 36H       91.7     19.1    -89.9      -0.83    -0.84     0.70
 37H       89.9     17.3    -90.1      -0.13    -0.13     0.23
 44H       89.8     22.7    -90.0      -2.12    -0.65    -3.19
 45H       89.8     13.4    -89.9      -2.38    -2.06    -1.06
 46H       89.9     11.3    -90.0       0.39     1.49     0.51
 47H       89.9     32.1    -90.0       0.45     1.26     0.68
 48H      -90.2      6.9     90.1      -2.69    -0.78    -2.01
-------------------------------------------------------------------


Maximum memory used throughout the entire EPRNMR-calculation: 248.7 MB

Timings for individual modules:

Sum of individual times         ...     5452.248 sec (=  90.871 min)
GTO integral calculation        ...        7.437 sec (=   0.124 min)   0.1 %
Spin-Orbit-Coupling Matrices    ...       15.187 sec (=   0.253 min)   0.3 %
SCF iterations                  ...       39.238 sec (=   0.654 min)   0.7 %
EPR/NMR calculation             ...     5390.386 sec (=  89.840 min)  98.9 %
                             ****ORCA TERMINATED NORMALLY****
TOTAL RUN TIME: 0 days 1 hours 30 minutes 57 seconds 92 msec
