
                                 *****************
                                 * O   R   C   A *
                                 *****************

                                            #,                                       
                                            ###                                      
                                            ####                                     
                                            #####                                    
                                            ######                                   
                                           ########,                                 
                                     ,,################,,,,,                         
                               ,,#################################,,                 
                          ,,##########################################,,             
                       ,#########################################, ''#####,          
                    ,#############################################,,   '####,        
                  ,##################################################,,,,####,       
                ,###########''''           ''''###############################       
              ,#####''   ,,,,##########,,,,          '''####'''          '####       
            ,##' ,,,,###########################,,,                        '##       
           ' ,,###''''                  '''############,,,                           
         ,,##''                                '''############,,,,        ,,,,,,###''
      ,#''                                            '''#######################'''  
     '                                                          ''''####''''         
             ,#######,   #######,   ,#######,      ##                                
            ,#'     '#,  ##    ##  ,#'     '#,    #''#        ######   ,####,        
            ##       ##  ##   ,#'  ##            #'  '#       #        #'  '#        
            ##       ##  #######   ##           ,######,      #####,   #    #        
            '#,     ,#'  ##    ##  '#,     ,#' ,#      #,         ##   #,  ,#        
             '#######'   ##     ##  '#######'  #'      '#     #####' # '####'        



                  #######################################################
                  #                        -***-                        #
                  #          Department of theory and spectroscopy      #
                  #    Directorship and core code : Frank Neese         #
                  #        Max Planck Institute fuer Kohlenforschung    #
                  #                Kaiser Wilhelm Platz 1               #
                  #                 D-45470 Muelheim/Ruhr               #
                  #                      Germany                        #
                  #                                                     #
                  #                  All rights reserved                #
                  #                        -***-                        #
                  #######################################################


                         Program Version 5.0.4 -  RELEASE  -


 With contributions from (in alphabetic order):
   Daniel Aravena         : Magnetic Suceptibility
   Michael Atanasov       : Ab Initio Ligand Field Theory (pilot matlab implementation)
   Alexander A. Auer      : GIAO ZORA, VPT2 properties, NMR spectrum
   Ute Becker             : Parallelization
   Giovanni Bistoni       : ED, misc. LED, open-shell LED, HFLD
   Martin Brehm           : Molecular dynamics
   Dmytro Bykov           : SCF Hessian
   Vijay G. Chilkuri      : MRCI spin determinant printing, contributions to CSF-ICE
   Dipayan Datta          : RHF DLPNO-CCSD density
   Achintya Kumar Dutta   : EOM-CC, STEOM-CC
   Dmitry Ganyushin       : Spin-Orbit,Spin-Spin,Magnetic field MRCI
   Miquel Garcia          : C-PCM and meta-GGA Hessian, CC/C-PCM, Gaussian charge scheme
   Yang Guo               : DLPNO-NEVPT2, F12-NEVPT2, CIM, IAO-localization
   Andreas Hansen         : Spin unrestricted coupled pair/coupled cluster methods
   Benjamin Helmich-Paris : MC-RPA, TRAH-SCF, COSX integrals
   Lee Huntington         : MR-EOM, pCC
   Robert Izsak           : Overlap fitted RIJCOSX, COSX-SCS-MP3, EOM
   Marcus Kettner         : VPT2
   Christian Kollmar      : KDIIS, OOCD, Brueckner-CCSD(T), CCSD density, CASPT2, CASPT2-K
   Simone Kossmann        : Meta GGA functionals, TD-DFT gradient, OOMP2, MP2 Hessian
   Martin Krupicka        : Initial AUTO-CI
   Lucas Lang             : DCDCAS
   Marvin Lechner         : AUTO-CI (C++ implementation), FIC-MRCC
   Dagmar Lenk            : GEPOL surface, SMD
   Dimitrios Liakos       : Extrapolation schemes; Compound Job, initial MDCI parallelization
   Dimitrios Manganas     : Further ROCIS development; embedding schemes
   Dimitrios Pantazis     : SARC Basis sets
   Anastasios Papadopoulos: AUTO-CI, single reference methods and gradients
   Taras Petrenko         : DFT Hessian,TD-DFT gradient, ASA, ECA, R-Raman, ABS, FL, XAS/XES, NRVS
   Peter Pinski           : DLPNO-MP2, DLPNO-MP2 Gradient
   Christoph Reimann      : Effective Core Potentials
   Marius Retegan         : Local ZFS, SOC
   Christoph Riplinger    : Optimizer, TS searches, QM/MM, DLPNO-CCSD(T), (RO)-DLPNO pert. Triples
   Tobias Risthaus        : Range-separated hybrids, TD-DFT gradient, RPA, STAB
   Michael Roemelt        : Original ROCIS implementation
   Masaaki Saitow         : Open-shell DLPNO-CCSD energy and density
   Barbara Sandhoefer     : DKH picture change effects
   Avijit Sen             : IP-ROCIS
   Kantharuban Sivalingam : CASSCF convergence, NEVPT2, FIC-MRCI
   Bernardo de Souza      : ESD, SOC TD-DFT
   Georgi Stoychev        : AutoAux, RI-MP2 NMR, DLPNO-MP2 response
   Willem Van den Heuvel  : Paramagnetic NMR
   Boris Wezisla          : Elementary symmetry handling
   Frank Wennmohs         : Technical directorship


 We gratefully acknowledge several colleagues who have allowed us to
 interface, adapt or use parts of their codes:
   Stefan Grimme, W. Hujo, H. Kruse, P. Pracht,  : VdW corrections, initial TS optimization,
                  C. Bannwarth, S. Ehlert          DFT functionals, gCP, sTDA/sTD-DF
   Ed Valeev, F. Pavosevic, A. Kumar             : LibInt (2-el integral package), F12 methods
   Garnet Chan, S. Sharma, J. Yang, R. Olivares  : DMRG
   Ulf Ekstrom                                   : XCFun DFT Library
   Mihaly Kallay                                 : mrcc  (arbitrary order and MRCC methods)
   Jiri Pittner, Ondrej Demel                    : Mk-CCSD
   Frank Weinhold                                : gennbo (NPA and NBO analysis)
   Christopher J. Cramer and Donald G. Truhlar   : smd solvation model
   Lars Goerigk                                  : TD-DFT with DH, B97 family of functionals
   V. Asgeirsson, H. Jonsson                     : NEB implementation
   FAccTs GmbH                                   : IRC, NEB, NEB-TS, DLPNO-Multilevel, CI-OPT
                                                   MM, QMMM, 2- and 3-layer-ONIOM, Crystal-QMMM,
                                                   LR-CPCM, SF, NACMEs, symmetry and pop. for TD-DFT,
                                                   nearIR, NL-DFT gradient (VV10), updates on ESD,
                                                   ML-optimized integration grids
   S Lehtola, MJT Oliveira, MAL Marques          : LibXC Library
   Liviu Ungur et al                             : ANISO software


 Your calculation uses the libint2 library for the computation of 2-el integrals
 For citations please refer to: http://libint.valeyev.net

 Your ORCA version has been built with support for libXC version: 5.1.0
 For citations please refer to: https://tddft.org/programs/libxc/

 This ORCA versions uses:
   CBLAS   interface :  Fast vector & matrix operations
   LAPACKE interface :  Fast linear algebra routines
   SCALAPACK package :  Parallel linear algebra routines
   Shared memory     :  Shared parallel matrices
   BLAS/LAPACK       :  OpenBLAS 0.3.15  USE64BITINT DYNAMIC_ARCH NO_AFFINITY SkylakeX SINGLE_THREADED
        Core in use  :  SkylakeX
   Copyright (c) 2011-2014, The OpenBLAS Project




***************************************
The coordinates will be read from file: opt_EPRII.xyz
***************************************


================================================================================

----- Orbital basis set information -----
Your calculation utilizes the basis: EPR-II
   V. Barone, in Recent Advances in Density Functional Methods, Part 1 (ed. D. P. Chong), World Scientific, Singapore, 1995, p. 287.

----- AuxJ basis set information -----
Your calculation utilizes the AutoAux generation procedure.
  G. L. Stoychev, A. A. Auer, F. Neese, J. Chem. Theory Comput. 13, 554 (2017)

----- AuxC basis set information -----
Your calculation utilizes the AutoAux generation procedure.
  G. L. Stoychev, A. A. Auer, F. Neese, J. Chem. Theory Comput. 13, 554 (2017)

----- AuxJK basis set information -----
Your calculation utilizes the AutoAux generation procedure.
  G. L. Stoychev, A. A. Auer, F. Neese, J. Chem. Theory Comput. 13, 554 (2017)

================================================================================
                                        WARNINGS
                       Please study these warnings very carefully!
================================================================================

WARNING: Old DensityContainer found on disk!
         Will remove this file - 
         If you want to keep old densities, please start your calculation with a different basename. 


WARNING: your system is open-shell and RHF/RKS was chosen
  ===> : WILL SWITCH to UHF/UKS


INFO   : the flag for use of the SHARK integral package has been found!

================================================================================
                                       INPUT FILE
================================================================================
NAME = EPRII.inp
|  1> ! B3LYP EPR-II AUTOAUX
|  2> %pal nprocs 16 end
|  3> *XYZFile 0 2 opt_EPRII.xyz
|  4> %EPRNMR
|  5>         GTENSOR   TRUE
|  6>         NUCLEI    = ALL H {SHIFT, AISO, ADIP, AORB}
|  7>         ORI       CenterOfElCharge
|  8> END
|  9> 
| 10>                          ****END OF INPUT****
================================================================================

                       ****************************
                       * Single Point Calculation *
                       ****************************

---------------------------------
CARTESIAN COORDINATES (ANGSTROEM)
---------------------------------
  C      4.056806   -0.075107    0.000987
  C      2.831075   -0.015247   -0.001957
  C     -2.856691    0.022164   -0.006721
  C      1.407980    0.029084   -0.002965
  C      0.697313    1.290948   -0.002944
  C     -0.728576    1.222563   -0.004345
  C     -1.420228    0.007051   -0.005439
  C     -0.710323   -1.238279   -0.005176
  C      0.687725   -1.185075   -0.004073
  H     -1.303318    2.142043   -0.004518
  H      1.259191   -2.106067   -0.003982
  C      1.381871    2.529466   -0.001368
  H      2.468255    2.499461   -0.000331
  C      0.717227    3.880714   -0.001279
  H      0.060018    3.977204   -0.880187
  H      0.051519    3.973005    0.871605
  C      1.718912    5.050707    0.006459
  H      2.365529    4.963269    0.888934
  H      2.374398    4.967475   -0.869874
  C      1.030429    6.425729    0.006250
  H      0.390878    6.546562    0.887945
  H      0.399677    6.550691   -0.881193
  C     -1.485074   -2.545236   -0.006098
  H     -2.155575   -2.548390    0.864305
  H     -2.153450   -2.548476   -0.878141
  C     -0.652575   -3.836931   -0.004992
  H      0.004232   -3.859373   -0.884856
  H      0.002221   -3.859116    0.876378
  C     -1.531601   -5.100749   -0.005804
  H     -2.190977   -5.083335    0.872096
  H     -2.188855   -5.083689   -0.885299
  C     -0.710777   -6.402135   -0.004548
  H     -0.067506   -6.460952    0.880721
  H     -0.065250   -6.461228   -0.888154
  C     -4.077022    0.029148   -0.008538
  H     -5.142881    0.040087   -0.010481
  H      1.764520    7.237891    0.011791
  H     -1.360545   -7.283423   -0.005233
  C      8.306013   -0.328427    0.010363
  C      7.674297    0.927139    0.009003
  C      6.277793    1.016520    0.005896
  C      5.485015   -0.157854    0.004124
  C      6.130668   -1.419396    0.005474
  C      7.527661   -1.498777    0.008580
  H      9.390693   -0.394124    0.012778
  H      5.527121   -2.322182    0.004079
  H      8.270944    1.835618    0.010356
  H      8.010834   -2.472385    0.009608
  H      5.788588    1.986033    0.004828

----------------------------
CARTESIAN COORDINATES (A.U.)
----------------------------
  NO LB      ZA    FRAG     MASS         X           Y           Z
   0 C     6.0000    0    12.011    7.666252   -0.141932    0.001864
   1 C     6.0000    0    12.011    5.349956   -0.028812   -0.003698
   2 C     6.0000    0    12.011   -5.398364    0.041884   -0.012702
   3 C     6.0000    0    12.011    2.660697    0.054960   -0.005604
   4 C     6.0000    0    12.011    1.317730    2.439538   -0.005564
   5 C     6.0000    0    12.011   -1.376808    2.310309   -0.008212
   6 C     6.0000    0    12.011   -2.683841    0.013324   -0.010278
   7 C     6.0000    0    12.011   -1.342316   -2.340008   -0.009781
   8 C     6.0000    0    12.011    1.299612   -2.239468   -0.007697
   9 H     1.0000    0     1.008   -2.462913    4.047874   -0.008538
  10 H     1.0000    0     1.008    2.379526   -3.979889   -0.007525
  11 C     6.0000    0    12.011    2.611357    4.779998   -0.002585
  12 H     1.0000    0     1.008    4.664325    4.723297   -0.000626
  13 C     6.0000    0    12.011    1.355362    7.333486   -0.002416
  14 H     1.0000    0     1.008    0.113418    7.515826   -1.663313
  15 H     1.0000    0     1.008    0.097356    7.507891    1.647096
  16 C     6.0000    0    12.011    3.248272    9.544454    0.012206
  17 H     1.0000    0     1.008    4.470202    9.379219    1.679842
  18 H     1.0000    0     1.008    4.486962    9.387167   -1.643823
  19 C     6.0000    0    12.011    1.947228   12.142868    0.011811
  20 H     1.0000    0     1.008    0.738652   12.371210    1.677973
  21 H     1.0000    0     1.008    0.755280   12.379012   -1.665213
  22 C     6.0000    0    12.011   -2.806382   -4.809798   -0.011524
  23 H     1.0000    0     1.008   -4.073447   -4.815759    1.633300
  24 H     1.0000    0     1.008   -4.069431   -4.815921   -1.659446
  25 C     6.0000    0    12.011   -1.233188   -7.250749   -0.009434
  26 H     1.0000    0     1.008    0.007998   -7.293159   -1.672136
  27 H     1.0000    0     1.008    0.004198   -7.292673    1.656115
  28 C     6.0000    0    12.011   -2.894306   -9.639018   -0.010967
  29 H     1.0000    0     1.008   -4.140346   -9.606112    1.648022
  30 H     1.0000    0     1.008   -4.136337   -9.606780   -1.672972
  31 C     6.0000    0    12.011   -1.343174  -12.098282   -0.008595
  32 H     1.0000    0     1.008   -0.127567  -12.209430    1.664321
  33 H     1.0000    0     1.008   -0.123305  -12.209951   -1.678369
  34 C     6.0000    0    12.011   -7.704455    0.055082   -0.016134
  35 H     1.0000    0     1.008   -9.718637    0.075754   -0.019806
  36 H     1.0000    0     1.008    3.334459   13.677632    0.022282
  37 H     1.0000    0     1.008   -2.571058  -13.763675   -0.009889
  38 C     6.0000    0    12.011   15.696090   -0.620637    0.019583
  39 C     6.0000    0    12.011   14.502319    1.752039    0.017013
  40 C     6.0000    0    12.011   11.863309    1.920945    0.011142
  41 C     6.0000    0    12.011   10.365176   -0.298301    0.007793
  42 C     6.0000    0    12.011   11.585283   -2.682269    0.010345
  43 C     6.0000    0    12.011   14.225217   -2.832278    0.016214
  44 H     1.0000    0     1.008   17.745837   -0.744787    0.024146
  45 H     1.0000    0     1.008   10.444746   -4.388287    0.007709
  46 H     1.0000    0     1.008   15.629820    3.468816    0.019571
  47 H     1.0000    0     1.008   15.138283   -4.672130    0.018156
  48 H     1.0000    0     1.008   10.938846    3.753058    0.009124

--------------------------------
INTERNAL COORDINATES (ANGSTROEM)
--------------------------------
 C      0   0   0     0.000000000000     0.00000000     0.00000000
 C      1   0   0     1.227195513205     0.00000000     0.00000000
 C      2   1   0     5.687890951657   177.57929643     0.00000000
 C      2   1   3     1.423785248046   178.98369534     3.35107067
 C      4   2   1     1.448223033591   121.17192435   174.50717633
 C      5   4   2     1.427527962040   116.64190617   179.98461440
 C      6   5   4     1.398518070059   122.38660040     0.00000000
 C      7   6   5     1.433460957583   120.67372961     0.00000000
 C      8   7   6     1.399060326723   117.50609448     0.00000000
 H      6   5   4     1.084330134902   119.26259534   180.00811223
 H      9   8   7     1.083881104923   119.63981416   180.00848543
 C      5   4   2     1.415114427487   121.68182381   359.97347167
 H     12   5   4     1.086798894361   117.34842342     0.00000000
 C     12   5   4     1.505862456300   124.87815897   179.99806805
 H     14  12   5     1.101686663276   109.98917159   301.97801604
 H     14  12   5     1.101640493184   109.99490489    57.54985520
 C     14  12   5     1.540232813698   113.24000078   179.76362193
 H     17  14  12     1.097506829228   109.06765444   302.01420727
 H     17  14  12     1.097519789239   109.07444410    57.96380709
 C     17  14  12     1.537755637845   112.83387259   179.99024829
 H     20  17  14     1.095907242912   111.08556978    59.89376475
 H     20  17  14     1.095909940561   111.08512057   300.10789927
 C      8   7   6     1.519334064726   119.65549731   179.98769626
 H     23   8   7     1.098719614249   108.25073153   303.41876582
 H     23   8   7     1.098725092166   108.25326944    56.64016271
 C     23   8   7     1.536727939389   116.53913007   180.03154095
 H     26  23   8     1.098207757052   109.91322278   301.46774868
 H     26  23   8     1.098209857426   109.91105805    58.51476888
 C     26  23   8     1.539454806559   112.37830458   179.99014540
 H     29  26  23     1.098082967376   109.23433378   302.06328898
 H     29  26  23     1.098082936568   109.23460936    57.94934897
 C     29  26  23     1.538623007718   112.93923047   180.00652920
 H     32  29  26     1.095882467408   111.05115274    59.86084747
 H     32  29  26     1.095881735507   111.05078514   300.14800965
 C      3   2   1     1.220352151180   179.93846530   320.60075959
 H     35   3   7     1.065916956348   179.73917280   191.29281230
 H     20  17  14     1.094772959258   111.29265921   180.00133259
 H     32  29  26     1.094928059114   111.35796531   180.00420635
 C      1   2   4     4.256761648306   179.38411558     6.50787375
 C     39   1   2     1.405529794442    59.87980441   178.96554504
 C     40  39   1     1.399365124205   120.37063970     0.00000000
 C     41  40  39     1.416917468094   120.35979316     0.00000000
 C     42  41  40     1.417164909353   118.87480148     0.00000000
 C     43  42  41     1.399249649590   120.35549265     0.00000000
 H     39   1   2     1.086669973298   179.94562590   357.77979483
 H     43  42  41     1.085952622851   119.13243363   180.00272948
 H     40  39   1     1.086887521476   119.99634879   179.99933681
 H     44  43  42     1.086908387577   119.64617432   179.99882984
 H     41  40  39     1.085944659733   120.43715282   180.00089215

---------------------------
INTERNAL COORDINATES (A.U.)
---------------------------
 C      0   0   0     0.000000000000     0.00000000     0.00000000
 C      1   0   0     2.319063432735     0.00000000     0.00000000
 C      2   1   0    10.748556178241   177.57929643     0.00000000
 C      2   1   3     2.690564192324   178.98369534     3.35107067
 C      4   2   1     2.736744914323   121.17192435   174.50717633
 C      5   4   2     2.697636896770   116.64190617   179.98461440
 C      6   5   4     2.642816145751   122.38660040     0.00000000
 C      7   6   5     2.708848633500   120.67372961     0.00000000
 C      8   7   6     2.643840862340   117.50609448     0.00000000
 H      6   5   4     2.049086993723   119.26259534   180.00811223
 H      9   8   7     2.048238450037   119.63981416   180.00848543
 C      5   4   2     2.674178716110   121.68182381   359.97347167
 H     12   5   4     2.053752272991   117.34842342     0.00000000
 C     12   5   4     2.845667637760   124.87815897   179.99806805
 H     14  12   5     2.081886078985   109.98917159   301.97801604
 H     14  12   5     2.081798830155   109.99490489    57.54985520
 C     14  12   5     2.910618200367   113.24000078   179.76362193
 H     17  14  12     2.073987337350   109.06765444   302.01420727
 H     17  14  12     2.074011828221   109.07444410    57.96380709
 C     17  14  12     2.905937016420   112.83387259   179.99024829
 H     20  17  14     2.070964557284   111.08556978    59.89376475
 H     20  17  14     2.070969655103   111.08512057   300.10789927
 C      8   7   6     2.871125288269   119.65549731   179.98769626
 H     23   8   7     2.076279168898   108.25073153   303.41876582
 H     23   8   7     2.076289520661   108.25326944    56.64016271
 C     23   8   7     2.903994947790   116.53913007   180.03154095
 H     26  23   8     2.075311898976   109.91322278   301.46774868
 H     26  23   8     2.075315868108   109.91105805    58.51476888
 C     26  23   8     2.909147979946   112.37830458   179.99014540
 H     29  26  23     2.075076080665   109.23433378   302.06328898
 H     29  26  23     2.075076022446   109.23460936    57.94934897
 C     29  26  23     2.907576107937   112.93923047   180.00652920
 H     32  29  26     2.070917738367   111.05115274    59.86084747
 H     32  29  26     2.070916355274   111.05078514   300.14800965
 C      3   2   1     2.306131352673   179.93846530   320.60075959
 H     35   3   7     2.014291129000   179.73917280   191.29281230
 H     20  17  14     2.068821071820   111.29265921   180.00133259
 H     32  29  26     2.069114168071   111.35796531   180.00420635
 C      1   2   4     8.044113732677   179.38411558     6.50787375
 C     39   1   2     2.656066384562    59.87980441   178.96554504
 C     40  39   1     2.644416846108   120.37063970     0.00000000
 C     41  40  39     2.677585969066   120.35979316     0.00000000
 C     42  41  40     2.678053565280   118.87480148     0.00000000
 C     43  42  41     2.644198630710   120.35549265     0.00000000
 H     39   1   2     2.053508647490   179.94562590   357.77979483
 H     43  42  41     2.052153051602   119.13243363   180.00272948
 H     40  39   1     2.053919753967   119.99634879   179.99933681
 H     44  43  42     2.053959185182   119.64617432   179.99882984
 H     41  40  39     2.052138003489   120.43715282   180.00089215

---------------------
BASIS SET INFORMATION
---------------------
There are 2 groups of distinct atoms

 Group   1 Type C   : 10s5p1d contracted to 6s2p1d pattern {511111/41/1}
 Group   2 Type H   : 6s1p contracted to 4s1p pattern {3111/1}

Atom   0C    basis set group =>   1
Atom   1C    basis set group =>   1
Atom   2C    basis set group =>   1
Atom   3C    basis set group =>   1
Atom   4C    basis set group =>   1
Atom   5C    basis set group =>   1
Atom   6C    basis set group =>   1
Atom   7C    basis set group =>   1
Atom   8C    basis set group =>   1
Atom   9H    basis set group =>   2
Atom  10H    basis set group =>   2
Atom  11C    basis set group =>   1
Atom  12H    basis set group =>   2
Atom  13C    basis set group =>   1
Atom  14H    basis set group =>   2
Atom  15H    basis set group =>   2
Atom  16C    basis set group =>   1
Atom  17H    basis set group =>   2
Atom  18H    basis set group =>   2
Atom  19C    basis set group =>   1
Atom  20H    basis set group =>   2
Atom  21H    basis set group =>   2
Atom  22C    basis set group =>   1
Atom  23H    basis set group =>   2
Atom  24H    basis set group =>   2
Atom  25C    basis set group =>   1
Atom  26H    basis set group =>   2
Atom  27H    basis set group =>   2
Atom  28C    basis set group =>   1
Atom  29H    basis set group =>   2
Atom  30H    basis set group =>   2
Atom  31C    basis set group =>   1
Atom  32H    basis set group =>   2
Atom  33H    basis set group =>   2
Atom  34C    basis set group =>   1
Atom  35H    basis set group =>   2
Atom  36H    basis set group =>   2
Atom  37H    basis set group =>   2
Atom  38C    basis set group =>   1
Atom  39C    basis set group =>   1
Atom  40C    basis set group =>   1
Atom  41C    basis set group =>   1
Atom  42C    basis set group =>   1
Atom  43C    basis set group =>   1
Atom  44H    basis set group =>   2
Atom  45H    basis set group =>   2
Atom  46H    basis set group =>   2
Atom  47H    basis set group =>   2
Atom  48H    basis set group =>   2
---------------------------------
AUXILIARY/J BASIS SET INFORMATION
---------------------------------
There are 2 groups of distinct atoms

 Group   1 Type C   : 17s13p12d2f contracted to 17s13p12d2f pattern {11111111111111111/1111111111111/111111111111/11}
 Group   2 Type H   : 15s6p1d contracted to 15s6p1d pattern {111111111111111/111111/1}

Atom   0C    basis set group =>   1
Atom   1C    basis set group =>   1
Atom   2C    basis set group =>   1
Atom   3C    basis set group =>   1
Atom   4C    basis set group =>   1
Atom   5C    basis set group =>   1
Atom   6C    basis set group =>   1
Atom   7C    basis set group =>   1
Atom   8C    basis set group =>   1
Atom   9H    basis set group =>   2
Atom  10H    basis set group =>   2
Atom  11C    basis set group =>   1
Atom  12H    basis set group =>   2
Atom  13C    basis set group =>   1
Atom  14H    basis set group =>   2
Atom  15H    basis set group =>   2
Atom  16C    basis set group =>   1
Atom  17H    basis set group =>   2
Atom  18H    basis set group =>   2
Atom  19C    basis set group =>   1
Atom  20H    basis set group =>   2
Atom  21H    basis set group =>   2
Atom  22C    basis set group =>   1
Atom  23H    basis set group =>   2
Atom  24H    basis set group =>   2
Atom  25C    basis set group =>   1
Atom  26H    basis set group =>   2
Atom  27H    basis set group =>   2
Atom  28C    basis set group =>   1
Atom  29H    basis set group =>   2
Atom  30H    basis set group =>   2
Atom  31C    basis set group =>   1
Atom  32H    basis set group =>   2
Atom  33H    basis set group =>   2
Atom  34C    basis set group =>   1
Atom  35H    basis set group =>   2
Atom  36H    basis set group =>   2
Atom  37H    basis set group =>   2
Atom  38C    basis set group =>   1
Atom  39C    basis set group =>   1
Atom  40C    basis set group =>   1
Atom  41C    basis set group =>   1
Atom  42C    basis set group =>   1
Atom  43C    basis set group =>   1
Atom  44H    basis set group =>   2
Atom  45H    basis set group =>   2
Atom  46H    basis set group =>   2
Atom  47H    basis set group =>   2
Atom  48H    basis set group =>   2
---------------------------------
AUXILIARY/C BASIS SET INFORMATION
---------------------------------
There are 2 groups of distinct atoms

 Group   1 Type C   : 17s13p12d2f contracted to 17s13p12d2f pattern {11111111111111111/1111111111111/111111111111/11}
 Group   2 Type H   : 15s6p1d contracted to 15s6p1d pattern {111111111111111/111111/1}

Atom   0C    basis set group =>   1
Atom   1C    basis set group =>   1
Atom   2C    basis set group =>   1
Atom   3C    basis set group =>   1
Atom   4C    basis set group =>   1
Atom   5C    basis set group =>   1
Atom   6C    basis set group =>   1
Atom   7C    basis set group =>   1
Atom   8C    basis set group =>   1
Atom   9H    basis set group =>   2
Atom  10H    basis set group =>   2
Atom  11C    basis set group =>   1
Atom  12H    basis set group =>   2
Atom  13C    basis set group =>   1
Atom  14H    basis set group =>   2
Atom  15H    basis set group =>   2
Atom  16C    basis set group =>   1
Atom  17H    basis set group =>   2
Atom  18H    basis set group =>   2
Atom  19C    basis set group =>   1
Atom  20H    basis set group =>   2
Atom  21H    basis set group =>   2
Atom  22C    basis set group =>   1
Atom  23H    basis set group =>   2
Atom  24H    basis set group =>   2
Atom  25C    basis set group =>   1
Atom  26H    basis set group =>   2
Atom  27H    basis set group =>   2
Atom  28C    basis set group =>   1
Atom  29H    basis set group =>   2
Atom  30H    basis set group =>   2
Atom  31C    basis set group =>   1
Atom  32H    basis set group =>   2
Atom  33H    basis set group =>   2
Atom  34C    basis set group =>   1
Atom  35H    basis set group =>   2
Atom  36H    basis set group =>   2
Atom  37H    basis set group =>   2
Atom  38C    basis set group =>   1
Atom  39C    basis set group =>   1
Atom  40C    basis set group =>   1
Atom  41C    basis set group =>   1
Atom  42C    basis set group =>   1
Atom  43C    basis set group =>   1
Atom  44H    basis set group =>   2
Atom  45H    basis set group =>   2
Atom  46H    basis set group =>   2
Atom  47H    basis set group =>   2
Atom  48H    basis set group =>   2
----------------------------------
AUXILIARY/JK BASIS SET INFORMATION
----------------------------------
There are 2 groups of distinct atoms

 Group   1 Type C   : 17s13p12d2f contracted to 17s13p12d2f pattern {11111111111111111/1111111111111/111111111111/11}
 Group   2 Type H   : 15s6p1d contracted to 15s6p1d pattern {111111111111111/111111/1}

Atom   0C    basis set group =>   1
Atom   1C    basis set group =>   1
Atom   2C    basis set group =>   1
Atom   3C    basis set group =>   1
Atom   4C    basis set group =>   1
Atom   5C    basis set group =>   1
Atom   6C    basis set group =>   1
Atom   7C    basis set group =>   1
Atom   8C    basis set group =>   1
Atom   9H    basis set group =>   2
Atom  10H    basis set group =>   2
Atom  11C    basis set group =>   1
Atom  12H    basis set group =>   2
Atom  13C    basis set group =>   1
Atom  14H    basis set group =>   2
Atom  15H    basis set group =>   2
Atom  16C    basis set group =>   1
Atom  17H    basis set group =>   2
Atom  18H    basis set group =>   2
Atom  19C    basis set group =>   1
Atom  20H    basis set group =>   2
Atom  21H    basis set group =>   2
Atom  22C    basis set group =>   1
Atom  23H    basis set group =>   2
Atom  24H    basis set group =>   2
Atom  25C    basis set group =>   1
Atom  26H    basis set group =>   2
Atom  27H    basis set group =>   2
Atom  28C    basis set group =>   1
Atom  29H    basis set group =>   2
Atom  30H    basis set group =>   2
Atom  31C    basis set group =>   1
Atom  32H    basis set group =>   2
Atom  33H    basis set group =>   2
Atom  34C    basis set group =>   1
Atom  35H    basis set group =>   2
Atom  36H    basis set group =>   2
Atom  37H    basis set group =>   2
Atom  38C    basis set group =>   1
Atom  39C    basis set group =>   1
Atom  40C    basis set group =>   1
Atom  41C    basis set group =>   1
Atom  42C    basis set group =>   1
Atom  43C    basis set group =>   1
Atom  44H    basis set group =>   2
Atom  45H    basis set group =>   2
Atom  46H    basis set group =>   2
Atom  47H    basis set group =>   2
Atom  48H    basis set group =>   2

Checking for AutoStart:
The File: EPRII.gbw exists
Trying to determine its content:
     ... Fine, the file contains calculation information
     ... Fine, the calculation information was read
     ... Fine, the file contains a basis set
     ... Fine, the basis set was read
     ... Fine, the file contains a geometry
     ... Fine, the geometry was read
     ... Fine, the file contains a set of orbitals
     ... Fine, the orbitals can be read
     => possible old guess file was deleted
     => GBW file was renamed to GES file
     => GES file is set as startup file
     => Guess is set to MORead
     ... now leaving AutoStart



           ************************************************************
           *        Program running with 16 parallel MPI-processes    *
           *              working on a common directory               *
           ************************************************************
------------------------------------------------------------------------------
                           ORCA GTO INTEGRAL CALCULATION
                           -- RI-GTO INTEGRALS CHOSEN --
------------------------------------------------------------------------------
------------------------------------------------------------------------------
                   ___                                                        
                  /   \      - P O W E R E D   B Y -                         
                 /     \                                                     
                 |  |  |   _    _      __       _____    __    __             
                 |  |  |  | |  | |    /  \     |  _  \  |  |  /  |          
                  \  \/   | |  | |   /    \    | | | |  |  | /  /          
                 / \  \   | |__| |  /  /\  \   | |_| |  |  |/  /          
                |  |  |   |  __  | /  /__\  \  |    /   |      \           
                |  |  |   | |  | | |   __   |  |    \   |  |\   \          
                \     /   | |  | | |  |  |  |  | |\  \  |  | \   \       
                 \___/    |_|  |_| |__|  |__|  |_| \__\ |__|  \__/        
                                                                              
                      - O R C A' S   B I G   F R I E N D -                    
                                      &                                       
                       - I N T E G R A L  F E E D E R -                       
                                                                              
 v1 FN, 2020, v2 2021                                                         
------------------------------------------------------------------------------


Reading SHARK input file EPRII.SHARKINP.tmp ... ok
----------------------
SHARK INTEGRAL PACKAGE
----------------------

Number of atoms                             ...     49
Number of basis functions                   ...    583
Number of shells                            ...    341
Maximum angular momentum                    ...      2
Integral batch strategy                     ... SHARK/LIBINT Hybrid
RI-J (if used) integral strategy            ... SPLIT-RIJ (Revised 2003 algorithm where possible)
Printlevel                                  ...      1
Contraction scheme used                     ... SEGMENTED contraction
Coulomb Range Separation                    ... NOT USED
Exchange Range Separation                   ... NOT USED
Finite Nucleus Model                        ... NOT USED
Auxiliary Coulomb fitting basis             ... AVAILABLE
   # of basis functions in Aux-J            ...   4070
   # of shells in Aux-J                     ...   1606
   Maximum angular momentum in Aux-J        ...      3
Auxiliary J/K fitting basis                 ... AVAILABLE
   # of basis functions in Aux-JK           ...   4070
   # of shells in Aux-JK                    ...   1606
   Maximum angular momentum in Aux-JK       ...      3
Auxiliary Correlation fitting basis         ... AVAILABLE
   # of basis functions in Aux-C            ...   4070
   # of shells in Aux-C                     ...   1606
   Maximum angular momentum in Aux-C        ...      3
Auxiliary 'external' fitting basis          ... NOT available
Integral threshold                          ...     1.000000e-10
Primitive cut-off                           ...     1.000000e-11
Primitive pair pre-selection threshold      ...     1.000000e-11

Calculating pre-screening integrals         ... done (  0.0 sec) Dimension = 341
Organizing shell pair data                  ... done (  0.2 sec)
Shell pair information
Total number of shell pairs                 ...     58311
Shell pairs after pre-screening             ...     29257
Total number of primitive shell pairs       ...    156979
Primitive shell pairs kept                  ...     55127
          la=0 lb=0:  13402 shell pairs
          la=1 lb=0:  10059 shell pairs
          la=1 lb=1:   1809 shell pairs
          la=2 lb=0:   2772 shell pairs
          la=2 lb=1:   1052 shell pairs
          la=2 lb=2:    163 shell pairs

Calculating one electron integrals          ... done (  0.0 sec)
Calculating RI/J V-Matrix + Cholesky decomp.... done (  1.0 sec)
Calculating RI/JK V-Matrix + Cholesky decomp... done (  1.0 sec)
Calculating RI/C V-Matrix + Cholesky decomp.... done (  0.9 sec)
Calculating Nuclear repulsion               ... done (  0.0 sec) ENN=   1721.123070063343 Eh

SHARK setup successfully completed in   3.5 seconds

Maximum memory used throughout the entire GTOINT-calculation: 59.3 MB


           ************************************************************
           *        Program running with 16 parallel MPI-processes    *
           *              working on a common directory               *
           ************************************************************
-------------------------------------------------------------------------------
                                 ORCA SCF
-------------------------------------------------------------------------------

------------
SCF SETTINGS
------------
Hamiltonian:
 Density Functional     Method          .... DFT(GTOs)
 Exchange Functional    Exchange        .... B88
   X-Alpha parameter    XAlpha          ....  0.666667
   Becke's b parameter  XBeta           ....  0.004200
 Correlation Functional Correlation     .... LYP
 LDA part of GGA corr.  LDAOpt          .... VWN-5
 Gradients option       PostSCFGGA      .... off
 Hybrid DFT is turned on
   Fraction HF Exchange ScalHFX         ....  0.200000
   Scaling of DF-GGA-X  ScalDFX         ....  0.720000
   Scaling of DF-GGA-C  ScalDFC         ....  0.810000
   Scaling of DF-LDA-C  ScalLDAC        ....  1.000000
   Perturbative correction              ....  0.000000
   Density functional embedding theory  .... OFF
   NL short-range parameter             ....  4.800000
 RI-approximation to the Coulomb term is turned on
   Number of AuxJ basis functions       .... 4070
   RIJ-COSX (HFX calculated with COS-X)).... on


General Settings:
 Integral files         IntName         .... EPRII
 Hartree-Fock type      HFTyp           .... UHF
 Total Charge           Charge          ....    0
 Multiplicity           Mult            ....    2
 Number of Electrons    NEL             ....  169
 Basis Dimension        Dim             ....  583
 Nuclear Repulsion      ENuc            ....   1721.1230700633 Eh

Convergence Acceleration:
 DIIS                   CNVDIIS         .... on
   Start iteration      DIISMaxIt       ....    12
   Startup error        DIISStart       ....  0.200000
   # of expansion vecs  DIISMaxEq       ....     5
   Bias factor          DIISBfac        ....   1.050
   Max. coefficient     DIISMaxC        ....  10.000
 Trust-Rad. Augm. Hess. CNVTRAH         .... auto
   Auto Start mean grad. ratio tolernc. ....  1.125000
   Auto Start start iteration           ....     1
   Auto Start num. interpolation iter.  ....    10
   Max. Number of Micro iterations      ....    16
   Max. Number of Macro iterations      .... Maxiter - #DIIS iter
   Number of Davidson start vectors     ....     2
   Converg. threshold I  (grad. norm)   ....   5.000e-05
   Converg. threshold II (energy diff.) ....   1.000e-06
   Grad. Scal. Fac. for Micro threshold ....   0.100
   Minimum threshold for Micro iter.    ....   0.010
   NR start threshold (gradient norm)   ....   0.001
   Initial trust radius                 ....   0.400
   Minimum AH scaling param. (alpha)    ....   1.000
   Maximum AH scaling param. (alpha)    .... 1000.000
   Orbital update algorithm             .... Taylor
   White noise on init. David. guess    .... on
   Maximum white noise                  ....   0.010
   Quad. conv. algorithm                .... NR
 SOSCF                  CNVSOSCF        .... off
 Level Shifting         CNVShift        .... on
   Level shift para.    LevelShift      ....    0.2500
   Turn off err/grad.   ShiftErr        ....    0.0010
 Zerner damping         CNVZerner       .... off
 Static damping         CNVDamp         .... on
   Fraction old density DampFac         ....    0.7000
   Max. Damping (<1)    DampMax         ....    0.9800
   Min. Damping (>=0)   DampMin         ....    0.0000
   Turn off err/grad.   DampErr         ....    0.1000
 Fernandez-Rico         CNVRico         .... off

SCF Procedure:
 Maximum # iterations   MaxIter         ....   125
 SCF integral mode      SCFMode         .... Direct
   Integral package                     .... SHARK and LIBINT hybrid scheme
 Reset frequency        DirectResetFreq ....    20
 Integral Threshold     Thresh          ....  1.000e-10 Eh
 Primitive CutOff       TCut            ....  1.000e-11 Eh

Convergence Tolerance:
 Convergence Check Mode ConvCheckMode   .... Total+1el-Energy
 Convergence forced     ConvForced      .... 0
 Energy Change          TolE            ....  1.000e-06 Eh
 1-El. energy change                    ....  1.000e-03 Eh
 DIIS Error             TolErr          ....  1.000e-06


Diagonalization of the overlap matrix:
Smallest eigenvalue                        ... 6.714e-05
Time for diagonalization                   ...    0.064 sec
Threshold for overlap eigenvalues          ... 1.000e-08
Number of eigenvalues below threshold      ... 0
Time for construction of square roots      ...    0.066 sec
Total time needed                          ...    0.132 sec

---------------------
INITIAL GUESS: MOREAD
---------------------
Guess MOs are being read from file: EPRII.ges
Input geometry compatible with but different from current geometry
Input basis set matches current basis set (good)
MOs were renormalized
MOs were reorthogonalized (Cholesky)
                      ------------------
                      INITIAL GUESS DONE (   0.3 sec)
                      ------------------
-------------------
DFT GRID GENERATION
-------------------

General Integration Accuracy     IntAcc      ... 4.388
Radial Grid Type                 RadialGrid  ... OptM3 with GC (2021)
Angular Grid (max. ang.)         AngularGrid ... 4 (Lebedev-302)
Angular grid pruning method      GridPruning ... 4 (adaptive)
Weight generation scheme         WeightScheme... Becke
Basis function cutoff            BFCut       ... 1.0000e-10
Integration weight cutoff        WCut        ... 1.0000e-14
Angular grids for H and He will be reduced by one unit
Partially contracted basis set               ... off
Rotationally invariant grid construction     ... off

Total number of grid points                  ...   223193
Total number of batches                      ...     3514
Average number of points per batch           ...       63
Average number of grid points per atom       ...     4555
Time for grid setup =    1.343 sec

--------------------
COSX GRID GENERATION
--------------------

GRIDX 1
-------
General Integration Accuracy     IntAcc      ... 3.816
Radial Grid Type                 RadialGrid  ... OptM3 with GC (2021)
Angular Grid (max. ang.)         AngularGrid ... 1 (Lebedev-50)
Angular grid pruning method      GridPruning ... 4 (adaptive)
Weight generation scheme         WeightScheme... Becke
Basis function cutoff            BFCut       ... 1.0000e-10
Integration weight cutoff        WCut        ... 1.0000e-14
Angular grids for H and He will be reduced by one unit
Partially contracted basis set               ... on
Rotationally invariant grid construction     ... off

Total number of grid points                  ...    28440
Total number of batches                      ...      468
Average number of points per batch           ...       60
Average number of grid points per atom       ...      580
UseSFitting                                  ... on

GRIDX 2
-------
General Integration Accuracy     IntAcc      ... 4.020
Radial Grid Type                 RadialGrid  ... OptM3 with GC (2021)
Angular Grid (max. ang.)         AngularGrid ... 2 (Lebedev-110)
Angular grid pruning method      GridPruning ... 4 (adaptive)
Weight generation scheme         WeightScheme... Becke
Basis function cutoff            BFCut       ... 1.0000e-10
Integration weight cutoff        WCut        ... 1.0000e-14
Angular grids for H and He will be reduced by one unit
Partially contracted basis set               ... on
Rotationally invariant grid construction     ... off

Total number of grid points                  ...    60667
Total number of batches                      ...      976
Average number of points per batch           ...       62
Average number of grid points per atom       ...     1238
UseSFitting                                  ... on

GRIDX 3
-------
General Integration Accuracy     IntAcc      ... 4.338
Radial Grid Type                 RadialGrid  ... OptM3 with GC (2021)
Angular Grid (max. ang.)         AngularGrid ... 3 (Lebedev-194)
Angular grid pruning method      GridPruning ... 4 (adaptive)
Weight generation scheme         WeightScheme... Becke
Basis function cutoff            BFCut       ... 1.0000e-10
Integration weight cutoff        WCut        ... 1.0000e-14
Angular grids for H and He will be reduced by one unit
Partially contracted basis set               ... on
Rotationally invariant grid construction     ... off

Total number of grid points                  ...   132677
Total number of batches                      ...     2101
Average number of points per batch           ...       63
Average number of grid points per atom       ...     2708
UseSFitting                                  ... on

Time for X-Grid setup             =    2.417 sec

--------------
SCF ITERATIONS
--------------
ITER       Energy         Delta-E        Max-DP      RMS-DP      [F,P]     Damp
               ***  Starting incremental Fock matrix formation  ***
  0   -928.9726827708   0.000000000000 0.00673485  0.00004704  0.0021976 0.7000
  1   -928.9728558636  -0.000173092894 0.00655044  0.00004167  0.0015887 0.7000
                               ***Turning on DIIS***
  2   -928.9729789971  -0.000123133424 0.01695207  0.00010359  0.0011302 0.0000
  3   -928.9732657617  -0.000286764641 0.00067530  0.00001014  0.0003340 0.0000
               *** Restarting incremental Fock matrix formation ***
                                   *** Resetting DIIS ***
  4   -928.9732607023   0.000005059362 0.00091227  0.00001174  0.0003838 0.0000
  5   -928.9732556607   0.000005041669 0.00045753  0.00000661  0.0004535 0.0000
  6   -928.9732672731  -0.000011612453 0.00016414  0.00000147  0.0001158 0.0000
  7   -928.9732673321  -0.000000058952 0.00024777  0.00000108  0.0001126 0.0000
                 **** Energy Check signals convergence ****

               *****************************************************
               *                     SUCCESS                       *
               *           SCF CONVERGED AFTER   8 CYCLES          *
               *****************************************************

Old exchange energy                            =    -26.606496665 Eh
New exchange energy                            =    -26.606496677 Eh
Exchange energy change after final integration =     -0.000000012 Eh
Total energy after final integration           =   -928.973267436 Eh
Final COS-X integration done in                =    10.334 sec

----------------
TOTAL SCF ENERGY
----------------

Total Energy       :         -928.97326744 Eh          -25278.64775 eV

Components:
Nuclear Repulsion  :         1721.12307006 Eh           46834.13974 eV
Electronic Energy  :        -2650.09633750 Eh          -72112.78749 eV
One Electron Energy:        -4671.11691722 Eh         -127107.55334 eV
Two Electron Energy:         2021.02057972 Eh           54994.76585 eV
Max COSX asymmetry :            0.00000330 Eh               0.00009 eV

Virial components:
Potential Energy   :        -1850.51412308 Eh          -50355.04929 eV
Kinetic Energy     :          921.54085564 Eh           25076.40154 eV
Virial Ratio       :            2.00806520


DFT components:
N(Alpha)           :       85.000118695070 electrons
N(Beta)            :       84.000107616347 electrons
N(Total)           :      169.000226311417 electrons
E(X)               :     -105.553792019228 Eh       
E(C)               :       -6.576206144247 Eh       
E(XC)              :     -112.129998163474 Eh       
DFET-embed. en.    :        0.000000000000 Eh       

---------------
SCF CONVERGENCE
---------------

  Last Energy change         ...   -9.2572e-08  Tolerance :   1.0000e-06
  Last MAX-Density change    ...    0.0000e+00  Tolerance :   1.0000e-05
  Last RMS-Density change    ...    0.0000e+00  Tolerance :   1.0000e-06
  Last DIIS Error            ...    3.5696e-05  Tolerance :   1.0000e-06

             **** THE GBW FILE WAS UPDATED (EPRII.gbw) ****
             **** DENSITY EPRII.scfp WAS UPDATED ****
             **** ENERGY FILE WAS UPDATED (EPRII.en.tmp) ****
----------------------
UHF SPIN CONTAMINATION
----------------------

Warning: in a DFT calculation there is little theoretical justification to 
         calculate <S**2> as in Hartree-Fock theory. We will do it anyways
         but you should keep in mind that the values have only limited relevance

Expectation value of <S**2>     :     0.788268
Ideal value S*(S+1) for S=0.5   :     0.750000
Deviation                       :     0.038268

             **** THE GBW FILE WAS UPDATED (EPRII.gbw) ****
             **** DENSITY EPRII.scfp WAS UPDATED ****
----------------
ORBITAL ENERGIES
----------------
                 SPIN UP ORBITALS
  NO   OCC          E(Eh)            E(eV) 
   0   1.0000     -10.227903      -278.3154 
   1   1.0000     -10.224930      -278.2345 
   2   1.0000     -10.222889      -278.1789 
   3   1.0000     -10.212572      -277.8982 
   4   1.0000     -10.209275      -277.8085 
   5   1.0000     -10.206631      -277.7365 
   6   1.0000     -10.205380      -277.7025 
   7   1.0000     -10.205083      -277.6944 
   8   1.0000     -10.204899      -277.6894 
   9   1.0000     -10.203996      -277.6648 
  10   1.0000     -10.203808      -277.6597 
  11   1.0000     -10.202874      -277.6343 
  12   1.0000     -10.202727      -277.6303 
  13   1.0000     -10.200095      -277.5587 
  14   1.0000     -10.198373      -277.5118 
  15   1.0000     -10.196892      -277.4715 
  16   1.0000     -10.196825      -277.4697 
  17   1.0000     -10.189003      -277.2569 
  18   1.0000     -10.186598      -277.1914 
  19   1.0000     -10.184302      -277.1289 
  20   1.0000     -10.181039      -277.0402 
  21   1.0000     -10.180672      -277.0302 
  22   1.0000     -10.173220      -276.8274 
  23   1.0000     -10.170789      -276.7613 
  24   1.0000      -0.872023       -23.7290 
  25   1.0000      -0.860438       -23.4137 
  26   1.0000      -0.817968       -22.2580 
  27   1.0000      -0.797737       -21.7075 
  28   1.0000      -0.793280       -21.5862 
  29   1.0000      -0.777338       -21.1524 
  30   1.0000      -0.765795       -20.8384 
  31   1.0000      -0.750112       -20.4116 
  32   1.0000      -0.744530       -20.2597 
  33   1.0000      -0.728972       -19.8363 
  34   1.0000      -0.713795       -19.4234 
  35   1.0000      -0.696550       -18.9541 
  36   1.0000      -0.656243       -17.8573 
  37   1.0000      -0.643877       -17.5208 
  38   1.0000      -0.618412       -16.8279 
  39   1.0000      -0.613104       -16.6834 
  40   1.0000      -0.609344       -16.5811 
  41   1.0000      -0.593384       -16.1468 
  42   1.0000      -0.581408       -15.8209 
  43   1.0000      -0.563285       -15.3278 
  44   1.0000      -0.542173       -14.7533 
  45   1.0000      -0.531334       -14.4583 
  46   1.0000      -0.506752       -13.7894 
  47   1.0000      -0.493208       -13.4209 
  48   1.0000      -0.480994       -13.0885 
  49   1.0000      -0.476298       -12.9607 
  50   1.0000      -0.470885       -12.8134 
  51   1.0000      -0.463759       -12.6195 
  52   1.0000      -0.455064       -12.3829 
  53   1.0000      -0.437643       -11.9089 
  54   1.0000      -0.432467       -11.7680 
  55   1.0000      -0.428719       -11.6660 
  56   1.0000      -0.425600       -11.5812 
  57   1.0000      -0.425259       -11.5719 
  58   1.0000      -0.422411       -11.4944 
  59   1.0000      -0.411693       -11.2027 
  60   1.0000      -0.399560       -10.8726 
  61   1.0000      -0.396925       -10.8009 
  62   1.0000      -0.383672       -10.4402 
  63   1.0000      -0.378690       -10.3047 
  64   1.0000      -0.376470       -10.2443 
  65   1.0000      -0.364828        -9.9275 
  66   1.0000      -0.362636        -9.8678 
  67   1.0000      -0.356410        -9.6984 
  68   1.0000      -0.355186        -9.6651 
  69   1.0000      -0.352136        -9.5821 
  70   1.0000      -0.338475        -9.2104 
  71   1.0000      -0.333621        -9.0783 
  72   1.0000      -0.332546        -9.0490 
  73   1.0000      -0.331944        -9.0327 
  74   1.0000      -0.326910        -8.8957 
  75   1.0000      -0.322759        -8.7827 
  76   1.0000      -0.321945        -8.7606 
  77   1.0000      -0.299636        -8.1535 
  78   1.0000      -0.276278        -7.5179 
  79   1.0000      -0.273454        -7.4411 
  80   1.0000      -0.268181        -7.2976 
  81   1.0000      -0.258474        -7.0334 
  82   1.0000      -0.255878        -6.9628 
  83   1.0000      -0.217438        -5.9168 
  84   1.0000      -0.171701        -4.6722 
  85   0.0000      -0.059454        -1.6178 
  86   0.0000      -0.015782        -0.4295 
  87   0.0000      -0.015202        -0.4137 
  88   0.0000       0.009663         0.2629 
  89   0.0000       0.015498         0.4217 
  90   0.0000       0.019771         0.5380 
  91   0.0000       0.022357         0.6084 
  92   0.0000       0.028624         0.7789 
  93   0.0000       0.034410         0.9363 
  94   0.0000       0.037168         1.0114 
  95   0.0000       0.039649         1.0789 
  96   0.0000       0.044115         1.2004 
  97   0.0000       0.046215         1.2576 
  98   0.0000       0.048064         1.3079 
  99   0.0000       0.056932         1.5492 
 100   0.0000       0.062669         1.7053 
 101   0.0000       0.065465         1.7814 
 102   0.0000       0.070273         1.9122 
 103   0.0000       0.074217         2.0196 
 104   0.0000       0.082979         2.2580 
 105   0.0000       0.084427         2.2974 
 106   0.0000       0.092137         2.5072 
 107   0.0000       0.099334         2.7030 
 108   0.0000       0.110793         3.0148 
 109   0.0000       0.113531         3.0893 
 110   0.0000       0.124641         3.3916 
 111   0.0000       0.126734         3.4486 
 112   0.0000       0.135800         3.6953 
 113   0.0000       0.148233         4.0336 
 114   0.0000       0.151105         4.1118 
 115   0.0000       0.159220         4.3326 
 116   0.0000       0.161900         4.4055 
 117   0.0000       0.175205         4.7676 
 118   0.0000       0.176822         4.8116 
 119   0.0000       0.184536         5.0215 
 120   0.0000       0.186487         5.0746 
 121   0.0000       0.193955         5.2778 
 122   0.0000       0.197117         5.3638 
 123   0.0000       0.197680         5.3791 
 124   0.0000       0.200647         5.4599 
 125   0.0000       0.201237         5.4759 
 126   0.0000       0.202518         5.5108 
 127   0.0000       0.205496         5.5918 
 128   0.0000       0.216231         5.8839 
 129   0.0000       0.219071         5.9612 
 130   0.0000       0.220701         6.0056 
 131   0.0000       0.222968         6.0673 
 132   0.0000       0.225844         6.1455 
 133   0.0000       0.235237         6.4011 
 134   0.0000       0.239775         6.5246 
 135   0.0000       0.245829         6.6894 
 136   0.0000       0.247743         6.7414 
 137   0.0000       0.253357         6.8942 
 138   0.0000       0.254188         6.9168 
 139   0.0000       0.254775         6.9328 
 140   0.0000       0.257683         7.0119 
 141   0.0000       0.264844         7.2068 
 142   0.0000       0.266589         7.2542 
 143   0.0000       0.273561         7.4440 
 144   0.0000       0.275827         7.5056 
 145   0.0000       0.278153         7.5689 
 146   0.0000       0.283698         7.7198 
 147   0.0000       0.286792         7.8040 
 148   0.0000       0.288244         7.8435 
 149   0.0000       0.293404         7.9839 
 150   0.0000       0.293686         7.9916 
 151   0.0000       0.296627         8.0716 
 152   0.0000       0.300086         8.1658 
 153   0.0000       0.300853         8.1866 
 154   0.0000       0.303762         8.2658 
 155   0.0000       0.306892         8.3510 
 156   0.0000       0.313820         8.5395 
 157   0.0000       0.314521         8.5586 
 158   0.0000       0.317258         8.6330 
 159   0.0000       0.321166         8.7394 
 160   0.0000       0.323674         8.8076 
 161   0.0000       0.323994         8.8163 
 162   0.0000       0.326964         8.8971 
 163   0.0000       0.333839         9.0842 
 164   0.0000       0.334762         9.1093 
 165   0.0000       0.344708         9.3800 
 166   0.0000       0.346633         9.4324 
 167   0.0000       0.347850         9.4655 
 168   0.0000       0.349932         9.5221 
 169   0.0000       0.354409         9.6439 
 170   0.0000       0.362130         9.8541 
 171   0.0000       0.368310        10.0222 
 172   0.0000       0.369065        10.0428 
 173   0.0000       0.376180        10.2364 
 174   0.0000       0.377768        10.2796 
 175   0.0000       0.384850        10.4723 
 176   0.0000       0.387232        10.5371 
 177   0.0000       0.397756        10.8235 
 178   0.0000       0.402075        10.9410 
 179   0.0000       0.405958        11.0467 
 180   0.0000       0.412812        11.2332 
 181   0.0000       0.415511        11.3066 
 182   0.0000       0.417800        11.3689 
 183   0.0000       0.421113        11.4591 
 184   0.0000       0.423752        11.5309 
 185   0.0000       0.424558        11.5528 
 186   0.0000       0.430298        11.7090 
 187   0.0000       0.438162        11.9230 
 188   0.0000       0.445847        12.1321 
 189   0.0000       0.447196        12.1688 
 190   0.0000       0.448426        12.2023 
 191   0.0000       0.456782        12.4297 
 192   0.0000       0.457884        12.4597 
 193   0.0000       0.464640        12.6435 
 194   0.0000       0.467618        12.7245 
 195   0.0000       0.471746        12.8369 
 196   0.0000       0.479075        13.0363 
 197   0.0000       0.483593        13.1592 
 198   0.0000       0.487284        13.2597 
 199   0.0000       0.489817        13.3286 
 200   0.0000       0.503228        13.6935 
 201   0.0000       0.505264        13.7489 
 202   0.0000       0.508300        13.8316 
 203   0.0000       0.512903        13.9568 
 204   0.0000       0.516595        14.0573 
 205   0.0000       0.519480        14.1358 
 206   0.0000       0.532190        14.4816 
 207   0.0000       0.534515        14.5449 
 208   0.0000       0.536584        14.6012 
 209   0.0000       0.539953        14.6929 
 210   0.0000       0.548352        14.9214 
 211   0.0000       0.552701        15.0398 
 212   0.0000       0.561338        15.2748 
 213   0.0000       0.572827        15.5874 
 214   0.0000       0.583165        15.8687 
 215   0.0000       0.590206        16.0603 
 216   0.0000       0.590892        16.0790 
 217   0.0000       0.592541        16.1238 
 218   0.0000       0.600132        16.3304 
 219   0.0000       0.602554        16.3963 
 220   0.0000       0.613314        16.6891 
 221   0.0000       0.621528        16.9126 
 222   0.0000       0.637461        17.3462 
 223   0.0000       0.642242        17.4763 
 224   0.0000       0.655717        17.8430 
 225   0.0000       0.662038        18.0150 
 226   0.0000       0.663730        18.0610 
 227   0.0000       0.674310        18.3489 
 228   0.0000       0.681769        18.5519 
 229   0.0000       0.686190        18.6722 
 230   0.0000       0.704421        19.1683 
 231   0.0000       0.721008        19.6196 
 232   0.0000       0.736294        20.0356 
 233   0.0000       0.753741        20.5103 
 234   0.0000       0.774356        21.0713 
 235   0.0000       0.776031        21.1169 
 236   0.0000       0.790761        21.5177 
 237   0.0000       0.795049        21.6344 
 238   0.0000       0.815353        22.1869 
 239   0.0000       0.819592        22.3022 
 240   0.0000       0.834138        22.6980 
 241   0.0000       0.839018        22.8308 
 242   0.0000       0.844931        22.9918 
 243   0.0000       0.847498        23.0616 
 244   0.0000       0.856227        23.2991 
 245   0.0000       0.860339        23.4110 
 246   0.0000       0.864426        23.5222 
 247   0.0000       0.868148        23.6235 
 248   0.0000       0.870484        23.6871 
 249   0.0000       0.880012        23.9463 
 250   0.0000       0.885763        24.1028 
 251   0.0000       0.895299        24.3623 
 252   0.0000       0.900814        24.5124 
 253   0.0000       0.900912        24.5151 
 254   0.0000       0.907735        24.7007 
 255   0.0000       0.915068        24.9003 
 256   0.0000       0.920280        25.0421 
 257   0.0000       0.922858        25.1123 
 258   0.0000       0.927648        25.2426 
 259   0.0000       0.928332        25.2612 
 260   0.0000       0.938363        25.5342 
 261   0.0000       0.941003        25.6060 
 262   0.0000       0.943417        25.6717 
 263   0.0000       0.946127        25.7454 
 264   0.0000       0.959767        26.1166 
 265   0.0000       0.961438        26.1620 
 266   0.0000       0.965022        26.2596 
 267   0.0000       0.972806        26.4714 
 268   0.0000       0.978483        26.6259 
 269   0.0000       0.981235        26.7008 
 270   0.0000       0.990062        26.9410 
 271   0.0000       0.991555        26.9816 
 272   0.0000       0.995176        27.0801 
 273   0.0000       0.996473        27.1154 
 274   0.0000       1.000616        27.2281 
 275   0.0000       1.002267        27.2731 
 276   0.0000       1.008661        27.4471 
 277   0.0000       1.011113        27.5138 
 278   0.0000       1.020527        27.7700 
 279   0.0000       1.025919        27.9167 
 280   0.0000       1.027900        27.9706 
 281   0.0000       1.029819        28.0228 
 282   0.0000       1.034859        28.1599 
 283   0.0000       1.036748        28.2113 
 284   0.0000       1.056893        28.7595 
 285   0.0000       1.058489        28.8030 
 286   0.0000       1.060148        28.8481 
 287   0.0000       1.071272        29.1508 
 288   0.0000       1.071837        29.1662 
 289   0.0000       1.090900        29.6849 
 290   0.0000       1.102415        29.9982 
 291   0.0000       1.108088        30.1526 
 292   0.0000       1.110528        30.2190 
 293   0.0000       1.116470        30.3807 
 294   0.0000       1.120233        30.4831 
 295   0.0000       1.138639        30.9839 
 296   0.0000       1.139822        31.0161 
 297   0.0000       1.142231        31.0817 
 298   0.0000       1.169097        31.8128 
 299   0.0000       1.171748        31.8849 
 300   0.0000       1.178890        32.0792 
 301   0.0000       1.182185        32.1689 
 302   0.0000       1.187490        32.3132 
 303   0.0000       1.188854        32.3504 
 304   0.0000       1.196565        32.5602 
 305   0.0000       1.204166        32.7670 
 306   0.0000       1.207090        32.8466 
 307   0.0000       1.215178        33.0667 
 308   0.0000       1.243009        33.8240 
 309   0.0000       1.248239        33.9663 
 310   0.0000       1.257215        34.2105 
 311   0.0000       1.257922        34.2298 
 312   0.0000       1.269529        34.5457 
 313   0.0000       1.272832        34.6355 
 314   0.0000       1.279869        34.8270 
 315   0.0000       1.295688        35.2575 
 316   0.0000       1.303713        35.4758 
 317   0.0000       1.307236        35.5717 
 318   0.0000       1.311182        35.6791 
 319   0.0000       1.318429        35.8763 
 320   0.0000       1.332964        36.2718 
 321   0.0000       1.347853        36.6769 
 322   0.0000       1.354146        36.8482 
 323   0.0000       1.363057        37.0907 
 324   0.0000       1.364324        37.1252 
 325   0.0000       1.366460        37.1833 
 326   0.0000       1.383909        37.6581 
 327   0.0000       1.397620        38.0312 
 328   0.0000       1.404139        38.2086 
 329   0.0000       1.414395        38.4877 
 330   0.0000       1.428243        38.8645 
 331   0.0000       1.428452        38.8702 
 332   0.0000       1.430445        38.9244 
 333   0.0000       1.432045        38.9679 
 334   0.0000       1.440567        39.1998 
 335   0.0000       1.441295        39.2196 
 336   0.0000       1.451085        39.4860 
 337   0.0000       1.453923        39.5633 
 338   0.0000       1.464312        39.8460 
 339   0.0000       1.467378        39.9294 
 340   0.0000       1.476588        40.1800 
 341   0.0000       1.478991        40.2454 
 342   0.0000       1.498263        40.7698 
 343   0.0000       1.500914        40.8420 
 344   0.0000       1.506861        41.0038 
 345   0.0000       1.512132        41.1472 
 346   0.0000       1.514589        41.2141 
 347   0.0000       1.520751        41.3818 
 348   0.0000       1.541651        41.9505 
 349   0.0000       1.554884        42.3106 
 350   0.0000       1.561447        42.4891 
 351   0.0000       1.561739        42.4971 
 352   0.0000       1.563616        42.5482 
 353   0.0000       1.563672        42.5497 
 354   0.0000       1.573377        42.8138 
 355   0.0000       1.584594        43.1190 
 356   0.0000       1.590256        43.2731 
 357   0.0000       1.590763        43.2869 
 358   0.0000       1.596994        43.4564 
 359   0.0000       1.600045        43.5394 
 360   0.0000       1.605002        43.6743 
 361   0.0000       1.619962        44.0814 
 362   0.0000       1.625030        44.2193 
 363   0.0000       1.633345        44.4456 
 364   0.0000       1.636823        44.5402 
 365   0.0000       1.638643        44.5897 
 366   0.0000       1.641368        44.6639 
 367   0.0000       1.658985        45.1433 
 368   0.0000       1.659144        45.1476 
 369   0.0000       1.662504        45.2390 
 370   0.0000       1.677917        45.6584 
 371   0.0000       1.685616        45.8679 
 372   0.0000       1.689293        45.9680 
 373   0.0000       1.690810        46.0093 
 374   0.0000       1.696276        46.1580 
 375   0.0000       1.702122        46.3171 
 376   0.0000       1.705919        46.4204 
 377   0.0000       1.709551        46.5193 
 378   0.0000       1.716893        46.7190 
 379   0.0000       1.719839        46.7992 
 380   0.0000       1.732548        47.1450 
 381   0.0000       1.742871        47.4259 
 382   0.0000       1.746540        47.5258 
 383   0.0000       1.752346        47.6838 
 384   0.0000       1.768336        48.1189 
 385   0.0000       1.768860        48.1331 
 386   0.0000       1.777835        48.3773 
 387   0.0000       1.788143        48.6578 
 388   0.0000       1.789473        48.6940 
 389   0.0000       1.790904        48.7330 
 390   0.0000       1.794853        48.8404 
 391   0.0000       1.800394        48.9912 
 392   0.0000       1.808510        49.2121 
 393   0.0000       1.815155        49.3929 
 394   0.0000       1.824693        49.6524 
 395   0.0000       1.831759        49.8447 
 396   0.0000       1.838683        50.0331 
 397   0.0000       1.846744        50.2525 
 398   0.0000       1.855509        50.4910 
 399   0.0000       1.859317        50.5946 
 400   0.0000       1.879996        51.1573 
 401   0.0000       1.917290        52.1721 
 402   0.0000       1.917989        52.1911 
 403   0.0000       1.929145        52.4947 
 404   0.0000       1.936863        52.7047 
 405   0.0000       1.940991        52.8171 
 406   0.0000       1.952115        53.1198 
 407   0.0000       1.953719        53.1634 
 408   0.0000       1.975098        53.7452 
 409   0.0000       1.976931        53.7950 
 410   0.0000       2.015237        54.8374 
 411   0.0000       2.021130        54.9977 
 412   0.0000       2.035178        55.3800 
 413   0.0000       2.039955        55.5100 
 414   0.0000       2.045210        55.6530 
 415   0.0000       2.054867        55.9158 
 416   0.0000       2.073461        56.4217 
 417   0.0000       2.090085        56.8741 
 418   0.0000       2.101536        57.1857 
 419   0.0000       2.108080        57.3638 
 420   0.0000       2.111214        57.4491 
 421   0.0000       2.126593        57.8675 
 422   0.0000       2.150638        58.5218 
 423   0.0000       2.154696        58.6323 
 424   0.0000       2.182064        59.3770 
 425   0.0000       2.187228        59.5175 
 426   0.0000       2.191175        59.6249 
 427   0.0000       2.198450        59.8229 
 428   0.0000       2.211632        60.1816 
 429   0.0000       2.224424        60.5296 
 430   0.0000       2.245499        61.1031 
 431   0.0000       2.246680        61.1353 
 432   0.0000       2.249447        61.2106 
 433   0.0000       2.263789        61.6008 
 434   0.0000       2.266837        61.6838 
 435   0.0000       2.287800        62.2542 
 436   0.0000       2.312279        62.9203 
 437   0.0000       2.315848        63.0174 
 438   0.0000       2.324341        63.2485 
 439   0.0000       2.329478        63.3883 
 440   0.0000       2.333483        63.4973 
 441   0.0000       2.361560        64.2613 
 442   0.0000       2.382834        64.8402 
 443   0.0000       2.395710        65.1906 
 444   0.0000       2.396524        65.2127 
 445   0.0000       2.404477        65.4292 
 446   0.0000       2.417484        65.7831 
 447   0.0000       2.420281        65.8592 
 448   0.0000       2.433142        66.2092 
 449   0.0000       2.450366        66.6778 
 450   0.0000       2.453772        66.7705 
 451   0.0000       2.465860        67.0995 
 452   0.0000       2.474324        67.3298 
 453   0.0000       2.475235        67.3546 
 454   0.0000       2.486989        67.6744 
 455   0.0000       2.492378        67.8211 
 456   0.0000       2.505892        68.1888 
 457   0.0000       2.517627        68.5081 
 458   0.0000       2.524896        68.7059 
 459   0.0000       2.534473        68.9665 
 460   0.0000       2.534606        68.9701 
 461   0.0000       2.545125        69.2564 
 462   0.0000       2.562905        69.7402 
 463   0.0000       2.564285        69.7777 
 464   0.0000       2.564819        69.7923 
 465   0.0000       2.575916        70.0942 
 466   0.0000       2.583685        70.3056 
 467   0.0000       2.585888        70.3656 
 468   0.0000       2.606093        70.9154 
 469   0.0000       2.617469        71.2249 
 470   0.0000       2.619959        71.2927 
 471   0.0000       2.630450        71.5782 
 472   0.0000       2.649197        72.0883 
 473   0.0000       2.706736        73.6540 
 474   0.0000       2.743713        74.6602 
 475   0.0000       2.766285        75.2745 
 476   0.0000       2.794009        76.0289 
 477   0.0000       2.814496        76.5863 
 478   0.0000       2.868112        78.0453 
 479   0.0000       2.883239        78.4569 
 480   0.0000       2.955312        80.4181 
 481   0.0000       2.968338        80.7726 
 482   0.0000       3.082353        83.8751 
 483   0.0000       3.286043        89.4178 
 484   0.0000       3.421875        93.1140 
 485   0.0000       4.983818       135.6166 
 486   0.0000       4.991535       135.8266 
 487   0.0000       5.002916       136.1363 
 488   0.0000       5.015395       136.4758 
 489   0.0000       5.015443       136.4771 
 490   0.0000       5.023715       136.7022 
 491   0.0000       5.028574       136.8345 
 492   0.0000       5.029469       136.8588 
 493   0.0000       5.039668       137.1363 
 494   0.0000       5.051703       137.4638 
 495   0.0000       5.090255       138.5129 
 496   0.0000       5.097086       138.6988 
 497   0.0000       5.166638       140.5914 
 498   0.0000       5.200992       141.5262 
 499   0.0000       5.208551       141.7319 
 500   0.0000       5.238541       142.5479 
 501   0.0000       5.250353       142.8694 
 502   0.0000       5.252354       142.9238 
 503   0.0000       5.257945       143.0760 
 504   0.0000       5.283549       143.7727 
 505   0.0000       5.298408       144.1770 
 506   0.0000       5.309510       144.4791 
 507   0.0000       5.314933       144.6267 
 508   0.0000       5.318305       144.7184 
 509   0.0000       5.359776       145.8469 
 510   0.0000       5.368576       146.0864 
 511   0.0000       5.374579       146.2497 
 512   0.0000       5.382704       146.4708 
 513   0.0000       5.411290       147.2487 
 514   0.0000       5.425228       147.6280 
 515   0.0000       5.461920       148.6264 
 516   0.0000       5.484337       149.2364 
 517   0.0000       5.556182       151.1914 
 518   0.0000       5.571818       151.6169 
 519   0.0000       5.589311       152.0929 
 520   0.0000       5.626929       153.1165 
 521   0.0000       5.649846       153.7401 
 522   0.0000       5.659805       154.0111 
 523   0.0000       5.678269       154.5136 
 524   0.0000       5.733023       156.0035 
 525   0.0000       5.741445       156.2327 
 526   0.0000       5.776273       157.1804 
 527   0.0000       5.830435       158.6542 
 528   0.0000       5.851777       159.2349 
 529   0.0000       5.877986       159.9481 
 530   0.0000       5.920806       161.1133 
 531   0.0000       6.107601       166.1963 
 532   0.0000       6.275591       170.7675 
 533   0.0000       6.354405       172.9122 
 534   0.0000      29.612471       805.7963 
 535   0.0000      29.728834       808.9627 
 536   0.0000      29.805880       811.0592 
 537   0.0000      29.833864       811.8207 
 538   0.0000      29.854104       812.3715 
 539   0.0000      29.860611       812.5485 
 540   0.0000      29.957915       815.1963 
 541   0.0000      29.985265       815.9405 
 542   0.0000      29.994523       816.1925 
 543   0.0000      30.038334       817.3846 
 544   0.0000      30.075612       818.3990 
 545   0.0000      30.085027       818.6552 
 546   0.0000      30.099472       819.0483 
 547   0.0000      30.126934       819.7955 
 548   0.0000      30.135318       820.0237 
 549   0.0000      30.179569       821.2278 
 550   0.0000      30.209418       822.0400 
 551   0.0000      30.252484       823.2119 
 552   0.0000      30.256937       823.3331 
 553   0.0000      30.273515       823.7842 
 554   0.0000      30.296947       824.4219 
 555   0.0000      30.401221       827.2593 
 556   0.0000      30.503264       830.0360 
 557   0.0000      30.576708       832.0345 
 558   0.0000      36.608326       996.1632 
 559   0.0000      36.618270       996.4338 
 560   0.0000      36.632443       996.8195 
 561   0.0000      36.639093       997.0004 
 562   0.0000      36.642905       997.1041 
 563   0.0000      36.649161       997.2744 
 564   0.0000      36.654095       997.4086 
 565   0.0000      36.664785       997.6995 
 566   0.0000      36.675512       997.9914 
 567   0.0000      36.706237       998.8275 
 568   0.0000      36.718823       999.1700 
 569   0.0000      36.788715      1001.0718 
 570   0.0000      36.820483      1001.9363 
 571   0.0000      36.825906      1002.0838 
 572   0.0000      36.842852      1002.5450 
 573   0.0000      36.857515      1002.9440 
 574   0.0000      36.873359      1003.3751 
 575   0.0000      36.881333      1003.5921 
 576   0.0000      36.886877      1003.7430 
 577   0.0000      36.923597      1004.7422 
 578   0.0000      36.939524      1005.1755 
 579   0.0000      36.941168      1005.2203 
 580   0.0000      36.973960      1006.1126 
 581   0.0000      37.015762      1007.2501 
 582   0.0000      37.044360      1008.0283 

                 SPIN DOWN ORBITALS
  NO   OCC          E(Eh)            E(eV) 
   0   1.0000     -10.228257      -278.3250 
   1   1.0000     -10.224533      -278.2237 
   2   1.0000     -10.221559      -278.1428 
   3   1.0000     -10.211734      -277.8754 
   4   1.0000     -10.209158      -277.8053 
   5   1.0000     -10.206195      -277.7247 
   6   1.0000     -10.205044      -277.6934 
   7   1.0000     -10.204786      -277.6864 
   8   1.0000     -10.204562      -277.6803 
   9   1.0000     -10.204120      -277.6682 
  10   1.0000     -10.203858      -277.6611 
  11   1.0000     -10.202322      -277.6193 
  12   1.0000     -10.200222      -277.5622 
  13   1.0000     -10.199642      -277.5464 
  14   1.0000     -10.198422      -277.5132 
  15   1.0000     -10.197559      -277.4897 
  16   1.0000     -10.189653      -277.2745 
  17   1.0000     -10.188582      -277.2454 
  18   1.0000     -10.186791      -277.1967 
  19   1.0000     -10.184266      -277.1280 
  20   1.0000     -10.181037      -277.0401 
  21   1.0000     -10.180673      -277.0302 
  22   1.0000     -10.173230      -276.8277 
  23   1.0000     -10.170791      -276.7613 
  24   1.0000      -0.868734       -23.6394 
  25   1.0000      -0.859979       -23.4012 
  26   1.0000      -0.813172       -22.1275 
  27   1.0000      -0.795154       -21.6372 
  28   1.0000      -0.791870       -21.5479 
  29   1.0000      -0.776520       -21.1302 
  30   1.0000      -0.763834       -20.7850 
  31   1.0000      -0.749758       -20.4019 
  32   1.0000      -0.743552       -20.2331 
  33   1.0000      -0.724955       -19.7270 
  34   1.0000      -0.713073       -19.4037 
  35   1.0000      -0.694411       -18.8959 
  36   1.0000      -0.653145       -17.7730 
  37   1.0000      -0.642659       -17.4876 
  38   1.0000      -0.614902       -16.7323 
  39   1.0000      -0.610152       -16.6031 
  40   1.0000      -0.609108       -16.5747 
  41   1.0000      -0.592498       -16.1227 
  42   1.0000      -0.579763       -15.7762 
  43   1.0000      -0.560856       -15.2617 
  44   1.0000      -0.541597       -14.7376 
  45   1.0000      -0.530148       -14.4261 
  46   1.0000      -0.503584       -13.7032 
  47   1.0000      -0.492295       -13.3960 
  48   1.0000      -0.480063       -13.0632 
  49   1.0000      -0.474942       -12.9238 
  50   1.0000      -0.470046       -12.7906 
  51   1.0000      -0.460460       -12.5297 
  52   1.0000      -0.454854       -12.3772 
  53   1.0000      -0.437165       -11.8959 
  54   1.0000      -0.431378       -11.7384 
  55   1.0000      -0.426465       -11.6047 
  56   1.0000      -0.425390       -11.5754 
  57   1.0000      -0.424157       -11.5419 
  58   1.0000      -0.419960       -11.4277 
  59   1.0000      -0.411309       -11.1923 
  60   1.0000      -0.395792       -10.7701 
  61   1.0000      -0.392250       -10.6737 
  62   1.0000      -0.380688       -10.3590 
  63   1.0000      -0.376370       -10.2415 
  64   1.0000      -0.374199       -10.1825 
  65   1.0000      -0.363680        -9.8962 
  66   1.0000      -0.362254        -9.8574 
  67   1.0000      -0.355558        -9.6752 
  68   1.0000      -0.352244        -9.5850 
  69   1.0000      -0.351967        -9.5775 
  70   1.0000      -0.336117        -9.1462 
  71   1.0000      -0.332054        -9.0356 
  72   1.0000      -0.331823        -9.0294 
  73   1.0000      -0.330036        -8.9807 
  74   1.0000      -0.326541        -8.8856 
  75   1.0000      -0.322038        -8.7631 
  76   1.0000      -0.321300        -8.7430 
  77   1.0000      -0.296781        -8.0758 
  78   1.0000      -0.276238        -7.5168 
  79   1.0000      -0.267765        -7.2863 
  80   1.0000      -0.260008        -7.0752 
  81   1.0000      -0.257473        -7.0062 
[...]
  Y           0.9665275           -0.2565616            0.0008041
  Z           0.0008912            0.0002233           -0.9999996

Notes:  (1) The A matrix conforms to the "SAI" spin Hamiltonian convention.
        (2) Tensor is right-handed.

 -----------------------------------------------------------
 Nucleus  46H : A:ISTP=    1 I=  0.5 P=533.5514 MHz/au**3
                Q:ISTP=    2 I=  1.0 Q=  0.0029 barn     
 -----------------------------------------------------------
 Solving for nuclear perturbation:
Forming RHS of the CP-SCF equations         ... 
Calc. nucleus orbit integrals (SHARK)       ... done

------------------------------------------------------------------------------
                           ORCA CP-SCF CALCULATION
------------------------------------------------------------------------------

Input orbitals are from        ... EPRII.gbw
Input Perturbation             ... EPRII.pin.tmp
Wavefunction output            ... EPRII.pout.tmp
Perturbation mode              ... Imaginary perturbation
Solver                         ... POPLE
Max. number of iterations      ... 64
Convergence tolerance          ... 1.000e-03
Integral handling              ... Direct
DFT GridXC                     ... 1
COSX GridX                     ... 1
COSX IntAccX                   ... 3.067
COSX Algorithm                 ... Auto
Number of perturbations        ... 3
Number of operators            ... 2
Orbital ranges used for CP-SCF:
 Operator 0:  Orbitals   0... 84  to  85...582
 Operator 1:  Orbitals   0... 83  to  84...582
Variables per perturbation     ... 84246
DFT calculation                         ... on
XC functional terms                     ... off
Hybrid DFT                              ... on
   Exchange mixing (SCF)                ...  0.200
   Exchange mixing (CP-SCF)             ...  0.200
   GGA exch. scaling(SCF)               ...  0.720
   GGA exch. scaling (CP-SCF)           ...  0.720
   GGA corr. scaling (SCF)              ...  0.810
   GGA corr. scaling (CP-SCF)           ...  0.810

CP-SCF GRID
-----------

General Integration Accuracy     IntAcc      ... 3.467
Radial Grid Type                 RadialGrid  ... OptM3 with GC (2021)
Angular Grid (max. ang.)         AngularGrid ... 1 (Lebedev-50)
Angular grid pruning method      GridPruning ... 4 (adaptive)
Weight generation scheme         WeightScheme... Becke
Basis function cutoff            BFCut       ... 1.0000e-10
Integration weight cutoff        WCut        ... 1.0000e-14
Angular grids for H and He will be reduced by one unit
Partially contracted basis set               ... off
Rotationally invariant grid construction     ... off

Total number of grid points                  ...    31908
Total number of batches                      ...      520
Average number of points per batch           ...       61
Average number of grid points per atom       ...      651

CP-SCF GRIDX
------------

General Integration Accuracy     IntAcc      ... 3.067
Radial Grid Type                 RadialGrid  ... OptM3 with GC (2021)
Angular Grid (max. ang.)         AngularGrid ... 1 (Lebedev-50)
Angular grid pruning method      GridPruning ... 4 (adaptive)
Weight generation scheme         WeightScheme... Becke
Basis function cutoff            BFCut       ... 1.0000e-10
Integration weight cutoff        WCut        ... 1.0000e-14
Angular grids for H and He will be reduced by one unit
Partially contracted basis set               ... on
Rotationally invariant grid construction     ... off

Total number of grid points                  ...    14957
Total number of batches                      ...      263
Average number of points per batch           ...       56
Average number of grid points per atom       ...      305

Memory available               ... 850.5 MB
Memory needed per perturbation ...  20.0 MB
Perturbations treated per batch... 3
Number of batches              ... 1
     CP-SCF ITERATION   0:   4.2116e-02 (   2.2 sec   0/  3 done)
     CP-SCF ITERATION   1:   1.7509e-03 (   2.2 sec   1/  3 done)
     CP-SCF ITERATION   2:   9.3424e-05 (   2.2 sec   3/  3 done)
                    *** THE CP-SCF HAS CONVERGED ***

Forming final perturbed densities           ... done
Transforming perturbed density to AO basis  ... done

 Raw HFC matrix (all values in MHz): 
 -----------------------------------
                 1.4454              -0.2812               0.0020
                -0.2811               0.6053              -0.0006
                 0.0020              -0.0006               0.4152

 A(FC)           0.8220               0.8220               0.8220
 A(SD)          -0.4068              -0.3022               0.7090
 A(ORB+DIA)     -0.0000               0.0001              -0.0002    A(PC) =  -0.0000
 A(ORB)         -0.0000               0.0001              -0.0002    A(PC) =  -0.0000
 A(DIA)          0.0000              -0.0000               0.0000    A(PC) =   0.0000
             ----------           ----------           ----------
 A(Tot)          0.4152               0.5199               1.5308    A(iso)=    0.8219
 Orientation: 
  X          -0.0017465            0.2906800           -0.9568187
  Y           0.0006592            0.9568203            0.2906793
  Z           0.9999983           -0.0001230           -0.0018627

Notes:  (1) The A matrix conforms to the "SAI" spin Hamiltonian convention.
        (2) Tensor is right-handed.

 -----------------------------------------------------------
 Nucleus  47H : A:ISTP=    1 I=  0.5 P=533.5514 MHz/au**3
                Q:ISTP=    2 I=  1.0 Q=  0.0029 barn     
 -----------------------------------------------------------
 Solving for nuclear perturbation:
Forming RHS of the CP-SCF equations         ... 
Calc. nucleus orbit integrals (SHARK)       ... done

------------------------------------------------------------------------------
                           ORCA CP-SCF CALCULATION
------------------------------------------------------------------------------

Input orbitals are from        ... EPRII.gbw
Input Perturbation             ... EPRII.pin.tmp
Wavefunction output            ... EPRII.pout.tmp
Perturbation mode              ... Imaginary perturbation
Solver                         ... POPLE
Max. number of iterations      ... 64
Convergence tolerance          ... 1.000e-03
Integral handling              ... Direct
DFT GridXC                     ... 1
COSX GridX                     ... 1
COSX IntAccX                   ... 3.067
COSX Algorithm                 ... Auto
Number of perturbations        ... 3
Number of operators            ... 2
Orbital ranges used for CP-SCF:
 Operator 0:  Orbitals   0... 84  to  85...582
 Operator 1:  Orbitals   0... 83  to  84...582
Variables per perturbation     ... 84246
DFT calculation                         ... on
XC functional terms                     ... off
Hybrid DFT                              ... on
   Exchange mixing (SCF)                ...  0.200
   Exchange mixing (CP-SCF)             ...  0.200
   GGA exch. scaling(SCF)               ...  0.720
   GGA exch. scaling (CP-SCF)           ...  0.720
   GGA corr. scaling (SCF)              ...  0.810
   GGA corr. scaling (CP-SCF)           ...  0.810

CP-SCF GRID
-----------

General Integration Accuracy     IntAcc      ... 3.467
Radial Grid Type                 RadialGrid  ... OptM3 with GC (2021)
Angular Grid (max. ang.)         AngularGrid ... 1 (Lebedev-50)
Angular grid pruning method      GridPruning ... 4 (adaptive)
Weight generation scheme         WeightScheme... Becke
Basis function cutoff            BFCut       ... 1.0000e-10
Integration weight cutoff        WCut        ... 1.0000e-14
Angular grids for H and He will be reduced by one unit
Partially contracted basis set               ... off
Rotationally invariant grid construction     ... off

Total number of grid points                  ...    31908
Total number of batches                      ...      520
Average number of points per batch           ...       61
Average number of grid points per atom       ...      651

CP-SCF GRIDX
------------

General Integration Accuracy     IntAcc      ... 3.067
Radial Grid Type                 RadialGrid  ... OptM3 with GC (2021)
Angular Grid (max. ang.)         AngularGrid ... 1 (Lebedev-50)
Angular grid pruning method      GridPruning ... 4 (adaptive)
Weight generation scheme         WeightScheme... Becke
Basis function cutoff            BFCut       ... 1.0000e-10
Integration weight cutoff        WCut        ... 1.0000e-14
Angular grids for H and He will be reduced by one unit
Partially contracted basis set               ... on
Rotationally invariant grid construction     ... off

Total number of grid points                  ...    14957
Total number of batches                      ...      263
Average number of points per batch           ...       56
Average number of grid points per atom       ...      305

Memory available               ... 849.8 MB
Memory needed per perturbation ...  20.0 MB
Perturbations treated per batch... 3
Number of batches              ... 1
     CP-SCF ITERATION   0:   4.2080e-02 (   2.4 sec   0/  3 done)
     CP-SCF ITERATION   1:   1.7276e-03 (   2.3 sec   1/  3 done)
     CP-SCF ITERATION   2:   8.1015e-05 (   1.9 sec   3/  3 done)
                    *** THE CP-SCF HAS CONVERGED ***

Forming final perturbed densities           ... done
Transforming perturbed density to AO basis  ... done

 Raw HFC matrix (all values in MHz): 
 -----------------------------------
                 1.2924               0.0620               0.0017
                 0.0619               0.7020               0.0002
                 0.0017               0.0002               0.4734

 A(FC)           0.8226               0.8226               0.8226
 A(SD)          -0.3493              -0.1272               0.4764
 A(ORB+DIA)      0.0000               0.0001              -0.0002    A(PC) =  -0.0000
 A(ORB)         -0.0000               0.0001              -0.0002    A(PC) =  -0.0001
 A(DIA)          0.0000              -0.0000               0.0001    A(PC) =   0.0000
             ----------           ----------           ----------
 A(Tot)          0.4734               0.6955               1.2988    A(iso)=    0.8226
 Orientation: 
  X          -0.0019915           -0.1032772           -0.9946506
  Y          -0.0005024            0.9946526           -0.1032764
  Z           0.9999979            0.0002940           -0.0020328

Notes:  (1) The A matrix conforms to the "SAI" spin Hamiltonian convention.
        (2) Tensor is right-handed.

 -----------------------------------------------------------
 Nucleus  48H : A:ISTP=    1 I=  0.5 P=533.5514 MHz/au**3
                Q:ISTP=    2 I=  1.0 Q=  0.0029 barn     
 -----------------------------------------------------------
 Solving for nuclear perturbation:
Forming RHS of the CP-SCF equations         ... 
Calc. nucleus orbit integrals (SHARK)       ... done

------------------------------------------------------------------------------
                           ORCA CP-SCF CALCULATION
------------------------------------------------------------------------------

Input orbitals are from        ... EPRII.gbw
Input Perturbation             ... EPRII.pin.tmp
Wavefunction output            ... EPRII.pout.tmp
Perturbation mode              ... Imaginary perturbation
Solver                         ... POPLE
Max. number of iterations      ... 64
Convergence tolerance          ... 1.000e-03
Integral handling              ... Direct
DFT GridXC                     ... 1
COSX GridX                     ... 1
COSX IntAccX                   ... 3.067
COSX Algorithm                 ... Auto
Number of perturbations        ... 3
Number of operators            ... 2
Orbital ranges used for CP-SCF:
 Operator 0:  Orbitals   0... 84  to  85...582
 Operator 1:  Orbitals   0... 83  to  84...582
Variables per perturbation     ... 84246
DFT calculation                         ... on
XC functional terms                     ... off
Hybrid DFT                              ... on
   Exchange mixing (SCF)                ...  0.200
   Exchange mixing (CP-SCF)             ...  0.200
   GGA exch. scaling(SCF)               ...  0.720
   GGA exch. scaling (CP-SCF)           ...  0.720
   GGA corr. scaling (SCF)              ...  0.810
   GGA corr. scaling (CP-SCF)           ...  0.810

CP-SCF GRID
-----------

General Integration Accuracy     IntAcc      ... 3.467
Radial Grid Type                 RadialGrid  ... OptM3 with GC (2021)
Angular Grid (max. ang.)         AngularGrid ... 1 (Lebedev-50)
Angular grid pruning method      GridPruning ... 4 (adaptive)
Weight generation scheme         WeightScheme... Becke
Basis function cutoff            BFCut       ... 1.0000e-10
Integration weight cutoff        WCut        ... 1.0000e-14
Angular grids for H and He will be reduced by one unit
Partially contracted basis set               ... off
Rotationally invariant grid construction     ... off

Total number of grid points                  ...    31908
Total number of batches                      ...      520
Average number of points per batch           ...       61
Average number of grid points per atom       ...      651

CP-SCF GRIDX
------------

General Integration Accuracy     IntAcc      ... 3.067
Radial Grid Type                 RadialGrid  ... OptM3 with GC (2021)
Angular Grid (max. ang.)         AngularGrid ... 1 (Lebedev-50)
Angular grid pruning method      GridPruning ... 4 (adaptive)
Weight generation scheme         WeightScheme... Becke
Basis function cutoff            BFCut       ... 1.0000e-10
Integration weight cutoff        WCut        ... 1.0000e-14
Angular grids for H and He will be reduced by one unit
Partially contracted basis set               ... on
Rotationally invariant grid construction     ... off

Total number of grid points                  ...    14957
Total number of batches                      ...      263
Average number of points per batch           ...       56
Average number of grid points per atom       ...      305

Memory available               ... 849.1 MB
Memory needed per perturbation ...  20.0 MB
Perturbations treated per batch... 3
Number of batches              ... 1
     CP-SCF ITERATION   0:   4.6270e-02 (   2.1 sec   0/  3 done)
     CP-SCF ITERATION   1:   2.1112e-03 (   2.3 sec   0/  3 done)
     CP-SCF ITERATION   2:   1.4706e-04 (   2.3 sec   3/  3 done)
                    *** THE CP-SCF HAS CONVERGED ***

Forming final perturbed densities           ... done
Transforming perturbed density to AO basis  ... done

 Raw HFC matrix (all values in MHz): 
 -----------------------------------
                -1.1999              -0.5993               0.0018
                -0.5991              -1.6398              -0.0012
                 0.0018              -0.0012              -2.7068

 A(FC)          -1.8493              -1.8493              -1.8493
 A(SD)           1.0671              -0.2097              -0.8574
 A(ORB+DIA)      0.0007               0.0009              -0.0001    A(PC) =   0.0005
 A(ORB)          0.0006               0.0007               0.0000    A(PC) =   0.0004
 A(DIA)          0.0001               0.0001              -0.0001    A(PC) =   0.0000
             ----------           ----------           ----------
 A(Tot)         -0.7816              -2.0582              -2.7069    A(iso)=   -1.8489
 Orientation: 
  X          -0.8199080            0.5724946            0.0009099
  Y           0.5724942            0.8199085           -0.0006578
  Z          -0.0011227           -0.0000184           -0.9999994

Notes:  (1) The A matrix conforms to the "SAI" spin Hamiltonian convention.
        (2) Tensor is right-handed.


--------------------------------------------------------------------------------
----------------------------------------------------------------------------
                           ORCA EULER ANGLE PROGRAM
----------------------------------------------------------------------------

Only g-tensor available        -->  using g-tensor as reference tensor

Reference tensor               ...  g

g-tensor ordering              ...  |g_min> --> |gx>
                                    |g_mid> --> |gy>
                                    |g_max> --> |gz>

A- and EFG-tensor ordering     ...  the axes |Ax>, |Qx>, |Ay>, etc. are assigned
                                    such that the Euler rotation is minimal. You
                                    can find the respective eigenvalues as Ax,
                                    EFGx, Ay, etc. in the tables below.
                                    The relation of |Ax>, |Ay>,  etc. to Amin, Amid, etc.
                                    (as printed in the ORCA EPR/NMR CALCULATION Output)
                                    is obtained in the detailed printout.

Euler rotation around          ...  z - y - z
   First rotation              -->  by alpha around z
   Second rotation             -->  by beta around y'
   Third rotation              -->  by gamma around z''
   Positive / Negative angle   -->  clockwise / counterclockwise rotation

Plot EFG-tensors                    (-)
Plot HFC-tensors                    (-)
Detailed Printout                   (-)

-------------------------------------------------------------------------
          Euler rotation of hyperfine tensor to g-tensor
-------------------------------------------------------------------------

-------------------------------------------------------------------
 Atom  |   Alpha    Beta    Gamma   |   Ax       Ay       Az 
       |          [degrees]         |           [MHz]         
-------------------------------------------------------------------
  9H      -90.1     23.3     90.2     -17.14    -7.98   -20.83
 10H      -90.0     26.4     90.0       4.67     5.18    10.19
 12H       90.0     26.8    -90.0     -48.26   -19.74   -73.73
 14H      -72.1     22.8     51.5      65.98    75.59    67.45
 15H     -106.6     22.4    126.9      65.38    74.98    66.85
 17H      -14.7     15.3    -21.0      -3.23    -3.06     3.01
 18H     -164.9     15.0   -159.0      -3.22    -3.07     3.00
 20H       48.3     36.9    -73.2       0.04    -0.04     2.25
 21H      130.6     36.7   -106.7       0.04    -0.04     2.25
 23H      -91.4     25.3    134.9      23.63    24.24    27.34
 24H      -88.7     25.2     45.0      23.65    24.27    27.36
 26H       77.3     41.8    -71.6      -1.01    -0.89     0.91
 27H      102.6     41.8   -108.6      -1.01    -0.89     0.91
 29H      101.0     12.7   -133.2      -0.10    -0.14     0.79
 30H       79.3     12.7    -47.2      -0.10    -0.14     0.79
 32H      102.4     28.1   -105.9      -0.12    -0.10     0.37
 33H       77.6     28.0    -74.4      -0.12    -0.10     0.37
 35H       90.0     25.2    -90.1       3.86     2.74     5.50
 36H       92.5     19.7    -89.7      -0.82    -0.83     0.70
 37H       89.8     17.7    -90.2      -0.13    -0.13     0.23
 44H       90.0     23.5    -90.1      -2.13    -0.65    -3.24
 45H       90.0     13.4    -90.1      -2.40    -2.11    -1.07
 46H       90.2     11.4    -90.4       0.42     1.53     0.52
 47H       90.0     34.2    -90.1       0.47     1.30     0.70
 48H      -90.6      6.6     90.5      -2.71    -0.78    -2.06
-------------------------------------------------------------------


Maximum memory used throughout the entire EPRNMR-calculation: 248.6 MB

Timings for individual modules:

Sum of individual times         ...     5415.153 sec (=  90.253 min)
GTO integral calculation        ...        5.904 sec (=   0.098 min)   0.1 %
Spin-Orbit-Coupling Matrices    ...       14.527 sec (=   0.242 min)   0.3 %
SCF iterations                  ...       87.502 sec (=   1.458 min)   1.6 %
EPR/NMR calculation             ...     5307.220 sec (=  88.454 min)  98.0 %
                             ****ORCA TERMINATED NORMALLY****
TOTAL RUN TIME: 0 days 1 hours 30 minutes 19 seconds 624 msec
