
                                 *****************
                                 * O   R   C   A *
                                 *****************

                                            #,                                       
                                            ###                                      
                                            ####                                     
                                            #####                                    
                                            ######                                   
                                           ########,                                 
                                     ,,################,,,,,                         
                               ,,#################################,,                 
                          ,,##########################################,,             
                       ,#########################################, ''#####,          
                    ,#############################################,,   '####,        
                  ,##################################################,,,,####,       
                ,###########''''           ''''###############################       
              ,#####''   ,,,,##########,,,,          '''####'''          '####       
            ,##' ,,,,###########################,,,                        '##       
           ' ,,###''''                  '''############,,,                           
         ,,##''                                '''############,,,,        ,,,,,,###''
      ,#''                                            '''#######################'''  
     '                                                          ''''####''''         
             ,#######,   #######,   ,#######,      ##                                
            ,#'     '#,  ##    ##  ,#'     '#,    #''#        ######   ,####,        
            ##       ##  ##   ,#'  ##            #'  '#       #        #'  '#        
            ##       ##  #######   ##           ,######,      #####,   #    #        
            '#,     ,#'  ##    ##  '#,     ,#' ,#      #,         ##   #,  ,#        
             '#######'   ##     ##  '#######'  #'      '#     #####' # '####'        



                  #######################################################
                  #                        -***-                        #
                  #          Department of theory and spectroscopy      #
                  #    Directorship and core code : Frank Neese         #
                  #        Max Planck Institute fuer Kohlenforschung    #
                  #                Kaiser Wilhelm Platz 1               #
                  #                 D-45470 Muelheim/Ruhr               #
                  #                      Germany                        #
                  #                                                     #
                  #                  All rights reserved                #
                  #                        -***-                        #
                  #######################################################


                         Program Version 5.0.4 -  RELEASE  -


 With contributions from (in alphabetic order):
   Daniel Aravena         : Magnetic Suceptibility
   Michael Atanasov       : Ab Initio Ligand Field Theory (pilot matlab implementation)
   Alexander A. Auer      : GIAO ZORA, VPT2 properties, NMR spectrum
   Ute Becker             : Parallelization
   Giovanni Bistoni       : ED, misc. LED, open-shell LED, HFLD
   Martin Brehm           : Molecular dynamics
   Dmytro Bykov           : SCF Hessian
   Vijay G. Chilkuri      : MRCI spin determinant printing, contributions to CSF-ICE
   Dipayan Datta          : RHF DLPNO-CCSD density
   Achintya Kumar Dutta   : EOM-CC, STEOM-CC
   Dmitry Ganyushin       : Spin-Orbit,Spin-Spin,Magnetic field MRCI
   Miquel Garcia          : C-PCM and meta-GGA Hessian, CC/C-PCM, Gaussian charge scheme
   Yang Guo               : DLPNO-NEVPT2, F12-NEVPT2, CIM, IAO-localization
   Andreas Hansen         : Spin unrestricted coupled pair/coupled cluster methods
   Benjamin Helmich-Paris : MC-RPA, TRAH-SCF, COSX integrals
   Lee Huntington         : MR-EOM, pCC
   Robert Izsak           : Overlap fitted RIJCOSX, COSX-SCS-MP3, EOM
   Marcus Kettner         : VPT2
   Christian Kollmar      : KDIIS, OOCD, Brueckner-CCSD(T), CCSD density, CASPT2, CASPT2-K
   Simone Kossmann        : Meta GGA functionals, TD-DFT gradient, OOMP2, MP2 Hessian
   Martin Krupicka        : Initial AUTO-CI
   Lucas Lang             : DCDCAS
   Marvin Lechner         : AUTO-CI (C++ implementation), FIC-MRCC
   Dagmar Lenk            : GEPOL surface, SMD
   Dimitrios Liakos       : Extrapolation schemes; Compound Job, initial MDCI parallelization
   Dimitrios Manganas     : Further ROCIS development; embedding schemes
   Dimitrios Pantazis     : SARC Basis sets
   Anastasios Papadopoulos: AUTO-CI, single reference methods and gradients
   Taras Petrenko         : DFT Hessian,TD-DFT gradient, ASA, ECA, R-Raman, ABS, FL, XAS/XES, NRVS
   Peter Pinski           : DLPNO-MP2, DLPNO-MP2 Gradient
   Christoph Reimann      : Effective Core Potentials
   Marius Retegan         : Local ZFS, SOC
   Christoph Riplinger    : Optimizer, TS searches, QM/MM, DLPNO-CCSD(T), (RO)-DLPNO pert. Triples
   Tobias Risthaus        : Range-separated hybrids, TD-DFT gradient, RPA, STAB
   Michael Roemelt        : Original ROCIS implementation
   Masaaki Saitow         : Open-shell DLPNO-CCSD energy and density
   Barbara Sandhoefer     : DKH picture change effects
   Avijit Sen             : IP-ROCIS
   Kantharuban Sivalingam : CASSCF convergence, NEVPT2, FIC-MRCI
   Bernardo de Souza      : ESD, SOC TD-DFT
   Georgi Stoychev        : AutoAux, RI-MP2 NMR, DLPNO-MP2 response
   Willem Van den Heuvel  : Paramagnetic NMR
   Boris Wezisla          : Elementary symmetry handling
   Frank Wennmohs         : Technical directorship


 We gratefully acknowledge several colleagues who have allowed us to
 interface, adapt or use parts of their codes:
   Stefan Grimme, W. Hujo, H. Kruse, P. Pracht,  : VdW corrections, initial TS optimization,
                  C. Bannwarth, S. Ehlert          DFT functionals, gCP, sTDA/sTD-DF
   Ed Valeev, F. Pavosevic, A. Kumar             : LibInt (2-el integral package), F12 methods
   Garnet Chan, S. Sharma, J. Yang, R. Olivares  : DMRG
   Ulf Ekstrom                                   : XCFun DFT Library
   Mihaly Kallay                                 : mrcc  (arbitrary order and MRCC methods)
   Jiri Pittner, Ondrej Demel                    : Mk-CCSD
   Frank Weinhold                                : gennbo (NPA and NBO analysis)
   Christopher J. Cramer and Donald G. Truhlar   : smd solvation model
   Lars Goerigk                                  : TD-DFT with DH, B97 family of functionals
   V. Asgeirsson, H. Jonsson                     : NEB implementation
   FAccTs GmbH                                   : IRC, NEB, NEB-TS, DLPNO-Multilevel, CI-OPT
                                                   MM, QMMM, 2- and 3-layer-ONIOM, Crystal-QMMM,
                                                   LR-CPCM, SF, NACMEs, symmetry and pop. for TD-DFT,
                                                   nearIR, NL-DFT gradient (VV10), updates on ESD,
                                                   ML-optimized integration grids
   S Lehtola, MJT Oliveira, MAL Marques          : LibXC Library
   Liviu Ungur et al                             : ANISO software


 Your calculation uses the libint2 library for the computation of 2-el integrals
 For citations please refer to: http://libint.valeyev.net

 Your ORCA version has been built with support for libXC version: 5.1.0
 For citations please refer to: https://tddft.org/programs/libxc/

 This ORCA versions uses:
   CBLAS   interface :  Fast vector & matrix operations
   LAPACKE interface :  Fast linear algebra routines
   SCALAPACK package :  Parallel linear algebra routines
   Shared memory     :  Shared parallel matrices
   BLAS/LAPACK       :  OpenBLAS 0.3.15  USE64BITINT DYNAMIC_ARCH NO_AFFINITY SkylakeX SINGLE_THREADED
        Core in use  :  SkylakeX
   Copyright (c) 2011-2014, The OpenBLAS Project




***************************************
The coordinates will be read from file: model.xyz
***************************************


================================================================================

----- Orbital basis set information -----
Your calculation utilizes the basis: EPR-II
   V. Barone, in Recent Advances in Density Functional Methods, Part 1 (ed. D. P. Chong), World Scientific, Singapore, 1995, p. 287.

----- AuxJ basis set information -----
Your calculation utilizes the auxiliary basis: def2/J
   F. Weigend, Phys. Chem. Chem. Phys. 8, 1057 (2006).

================================================================================
                                        WARNINGS
                       Please study these warnings very carefully!
================================================================================


WARNING: your system is open-shell and RHF/RKS was chosen
  ===> : WILL SWITCH to UHF/UKS


WARNING: Geometry Optimization
  ===> : Switching off AutoStart
         For restart on a previous wavefunction, please use MOREAD

INFO   : the flag for use of the SHARK integral package has been found!

================================================================================
                                       INPUT FILE
================================================================================
NAME = opt_EPRII.inp
|  1> ! B3LYP EPR-II OPT
|  2> %pal nprocs 16 end
|  3> *XYZFile 0 2 model.xyz
|  4> 
|  5>                          ****END OF INPUT****
================================================================================

                       *****************************
                       * Geometry Optimization Run *
                       *****************************

Geometry optimization settings:
Update method            Update   .... BFGS
Choice of coordinates    CoordSys .... Z-matrix Internals
Initial Hessian          InHess   .... Almoef's Model

Convergence Tolerances:
Energy Change            TolE     ....  5.0000e-06 Eh
Max. Gradient            TolMAXG  ....  3.0000e-04 Eh/bohr
RMS Gradient             TolRMSG  ....  1.0000e-04 Eh/bohr
Max. Displacement        TolMAXD  ....  4.0000e-03 bohr
RMS Displacement         TolRMSD  ....  2.0000e-03 bohr
Strict Convergence                ....  False
------------------------------------------------------------------------------
                        ORCA OPTIMIZATION COORDINATE SETUP
------------------------------------------------------------------------------

The optimization will be done in new redundant internal coordinates
Making redundant internal coordinates   ...  (new redundants) done
Evaluating the initial hessian          ...  (Almloef) done
Evaluating the coordinates              ...  done
Calculating the B-matrix                .... done
Calculating the G-matrix                .... done
Diagonalizing the G-matrix              .... done
Small eigenvalue found = 7.073e-04
Small eigenvalue found = 1.978e-03
Small eigenvalue found = 5.913e-03
Small eigenvalue found = 7.931e-03
Small eigenvalue found = 1.569e-02
Small eigenvalue found = 1.992e-02
Small eigenvalue found = 2.031e-02
Small eigenvalue found = 2.429e-02
Small eigenvalue found = 2.980e-02
Small eigenvalue found = 2.996e-02
The first mode is                       ....  111
The number of degrees of freedom        ....  141

    -----------------------------------------------------------------
                    Redundant Internal Coordinates


    -----------------------------------------------------------------
         Definition                    Initial Value    Approx d2E/dq
    -----------------------------------------------------------------
      1. B(C   1,C   0)                  1.2239         1.149924   
      2. B(C   3,C   1)                  1.4208         0.557936   
      3. B(C   4,C   3)                  1.4457         0.509127   
      4. B(C   5,C   4)                  1.4243         0.550917   
      5. B(C   6,C   5)                  1.3950         0.613448   
      6. B(C   6,C   2)                  1.4335         0.532447   
      7. B(C   7,C   6)                  1.4308         0.537888   
      8. B(C   8,C   7)                  1.3954         0.612635   
      9. B(C   8,C   3)                  1.4086         0.583468   
     10. B(H   9,C   5)                  1.0902         0.359815   
     11. B(H  10,C   8)                  1.0898         0.360323   
     12. B(C  11,C   4)                  1.4107         0.579069   
     13. B(H  12,C  11)                  1.0932         0.355880   
     14. B(C  13,C  11)                  1.4998         0.417481   
     15. B(H  14,C  13)                  1.1097         0.335016   
     16. B(H  15,C  13)                  1.1096         0.335050   
     17. B(C  16,C  13)                  1.5343         0.367689   
     18. B(H  17,C  16)                  1.1054         0.340344   
     19. B(H  18,C  16)                  1.1054         0.340339   
     20. B(C  19,C  16)                  1.5299         0.373733   
     21. B(H  20,C  19)                  1.1038         0.342341   
     22. B(H  21,C  19)                  1.1038         0.342340   
     23. B(C  22,C   7)                  1.5145         0.395450   
     24. B(H  23,C  22)                  1.1061         0.339411   
     25. B(H  24,C  22)                  1.1061         0.339411   
     26. B(C  25,C  22)                  1.5309         0.372395   
     27. B(H  26,C  25)                  1.1056         0.340024   
     28. B(H  27,C  25)                  1.1056         0.340023   
     29. B(C  28,C  25)                  1.5337         0.368583   
     30. B(H  29,C  28)                  1.1058         0.339772   
     31. B(H  30,C  28)                  1.1058         0.339771   
     32. B(C  31,C  28)                  1.5308         0.372478   
     33. B(H  32,C  31)                  1.1038         0.342358   
     34. B(H  33,C  31)                  1.1038         0.342359   
     35. B(C  34,C   2)                  1.2160         1.184094   
     36. B(H  35,C  34)                  1.0724         0.384089   
     37. B(H  36,C  19)                  1.1019         0.344696   
     38. B(H  37,C  31)                  1.1021         0.344430   
     39. B(C  39,C  38)                  1.3997         0.602941   
     40. B(C  40,C  39)                  1.3943         0.614925   
     41. B(C  41,C  40)                  1.4127         0.574719   
     42. B(C  41,C   0)                  1.4265         0.546407   
     43. B(C  42,C  41)                  1.4130         0.574075   
     44. B(C  43,C  42)                  1.3942         0.615261   
     45. B(C  43,C  38)                  1.3997         0.602823   
     46. B(H  44,C  38)                  1.0925         0.356800   
     47. B(H  45,C  42)                  1.0916         0.357960   
     48. B(H  46,C  39)                  1.0927         0.356554   
     49. B(H  47,C  43)                  1.0927         0.356536   
     50. B(H  48,C  40)                  1.0916         0.357937   
     51. L(C   1,C   0,C  41,C  42, 2) 179.9843         0.474659   
     52. L(C   1,C   0,C  41,C  42, 1) 179.5135         0.474659   
     53. L(C   0,C   1,C   3,C   8, 1) 178.6461         0.476486   
     54. L(C   0,C   1,C   3,C   8, 2) 179.7829         0.476486   
     55. L(C   6,C   2,C  34,C   5, 2) 179.9149         0.474956   
     56. L(C   6,C   2,C  34,C   5, 1) 179.8363         0.474956   
     57. A(C   1,C   3,C   8)          118.8554         0.421326   
     58. A(C   4,C   3,C   8)          119.8274         0.414511   
     59. A(C   1,C   3,C   4)          121.3172         0.411231   
     60. A(C   3,C   4,C  11)          121.8314         0.413954   
     61. A(C   5,C   4,C  11)          121.6870         0.419808   
     62. A(C   3,C   4,C   5)          116.4816         0.410309   
     63. A(C   4,C   5,H   9)          119.2403         0.345900   
     64. A(C   4,C   5,C   6)          122.6967         0.424155   
     65. A(C   6,C   5,H   9)          118.0630         0.352228   
     66. A(C   5,C   6,C   7)          120.4706         0.422344   
     67. A(C   2,C   6,C   7)          120.3765         0.411829   
     68. A(C   2,C   6,C   5)          119.1529         0.421578   
     69. A(C   8,C   7,C  22)          122.8724         0.399831   
     70. A(C   6,C   7,C  22)          119.6617         0.390810   
     71. A(C   6,C   7,C   8)          117.4658         0.422244   
     72. A(C   7,C   8,H  10)          119.6681         0.352233   
     73. A(C   3,C   8,H  10)          117.2740         0.349343   
     74. A(C   3,C   8,C   7)          123.0579         0.428436   
     75. A(C   4,C  11,H  12)          117.1746         0.348168   
     76. A(C   4,C  11,C  13)          125.0229         0.399681   
     77. A(H  12,C  11,C  13)          117.8025         0.329669   
     78. A(H  15,C  13,C  16)          109.1658         0.319679   
     79. A(H  14,C  13,C  16)          109.1674         0.319674   
     80. A(C  11,C  13,C  16)          113.4644         0.369330   
     81. A(H  14,C  13,H  15)          104.6682         0.284353   
     82. A(C  11,C  13,H  15)          110.0010         0.326406   
     83. A(C  11,C  13,H  14)          109.9986         0.326401   
     84. A(C  13,C  16,C  19)          113.1088         0.362393   
     85. A(H  17,C  16,H  18)          106.0348         0.285749   
     86. A(C  13,C  16,H  18)          109.0059         0.320498   
     87. A(C  13,C  16,H  17)          109.0026         0.320499   
     88. A(H  18,C  16,C  19)          109.7197         0.321354   
     89. A(H  17,C  16,C  19)          109.7203         0.321355   
     90. A(H  20,C  19,H  21)          107.3888         0.286271   
     91. A(C  16,C  19,H  21)          111.2918         0.321663   
     92. A(C  16,C  19,H  20)          111.2920         0.321663   
     93. A(H  21,C  19,H  36)          107.5991         0.286577   
     94. A(H  20,C  19,H  36)          107.5989         0.286577   
     95. A(C  16,C  19,H  36)          111.4654         0.322024   
     96. A(H  24,C  22,C  25)          109.2360         0.321022   
     97. A(H  23,C  22,C  25)          109.2348         0.321022   
     98. A(C   7,C  22,C  25)          116.9179         0.366709   
     99. A(C   7,C  22,H  24)          108.2054         0.324198   
    100. A(H  23,C  22,H  24)          104.3014         0.285505   
    101. A(C   7,C  22,H  23)          108.2037         0.324198   
    102. A(H  27,C  25,C  28)          109.0386         0.320577   
    103. A(H  26,C  25,C  28)          109.0385         0.320577   
    104. A(C  22,C  25,C  28)          112.5939         0.362322   
    105. A(H  26,C  25,H  27)          106.2135         0.285665   
    106. A(C  22,C  25,H  27)          109.8739         0.321117   
    107. A(C  22,C  25,H  26)          109.8752         0.321117   
    108. A(H  30,C  28,C  31)          109.5886         0.321090   
    109. A(H  29,C  28,C  31)          109.5888         0.321090   
    110. A(C  25,C  28,C  31)          113.1572         0.362336   
    111. A(H  29,C  28,H  30)          105.8502         0.285599   
    112. A(C  25,C  28,H  30)          109.1973         0.320538   
    113. A(C  25,C  28,H  29)          109.1970         0.320538   
    114. A(H  32,C  31,H  33)          107.3866         0.286276   
    115. A(C  28,C  31,H  33)          111.2690         0.321488   
    116. A(C  28,C  31,H  32)          111.2689         0.321488   
    117. A(H  33,C  31,H  37)          107.5998         0.286545   
    118. A(H  32,C  31,H  37)          107.5996         0.286545   
    119. A(C  28,C  31,H  37)          111.5119         0.321806   
    120. L(C   2,C  34,H  35, 2)       180.0402         0.399023   
    121. L(C   2,C  34,H  35, 1)       180.2422         0.399023   
    122. A(C  43,C  38,H  44)          120.1480         0.350690   
    123. A(C  39,C  38,H  44)          120.1492         0.350702   
    124. A(C  39,C  38,C  43)          119.7028         0.429720   
    125. A(C  40,C  39,H  46)          119.5959         0.351829   
    126. A(C  38,C  39,H  46)          120.0445         0.350661   
    127. A(C  38,C  39,C  40)          120.3596         0.431257   
    128. A(C  41,C  40,H  48)          119.1411         0.348064   
    129. A(C  39,C  40,H  48)          120.4212         0.352059   
    130. A(C  39,C  40,C  41)          120.4378         0.427563   
    131. A(C  40,C  41,C  42)          118.7041         0.422336   
    132. A(C   0,C  41,C  42)          120.4809         0.418547   
    133. A(C   0,C  41,C  40)          120.8150         0.418630   
    134. A(C  43,C  42,H  45)          120.4927         0.352096   
    135. A(C  41,C  42,H  45)          119.0735         0.348002   
    136. A(C  41,C  42,C  43)          120.4338         0.427519   
    137. A(C  42,C  43,H  47)          119.5997         0.351859   
    138. A(C  38,C  43,H  47)          120.0384         0.350646   
    139. A(C  38,C  43,C  42)          120.3619         0.431284   
    140. D(C  11,C   4,C   3,C   8)   -179.9992         0.017664   
    141. D(C   5,C   4,C   3,C   8)      0.0070         0.017664   
    142. D(C   5,C   4,C   3,C   1)   -179.9906         0.017664   
    143. D(C  11,C   4,C   3,C   1)      0.0032         0.017664   
    144. D(C   6,C   5,C   4,C   3)     -0.0023         0.020765   
    145. D(C   6,C   5,C   4,C  11)   -179.9961         0.020765   
    146. D(H   9,C   5,C   4,C   3)    179.9991         0.020765   
    147. D(H   9,C   5,C   4,C  11)      0.0053         0.020765   
    148. D(C   7,C   6,C   5,C   4)      0.0009         0.026007   
    149. D(C   2,C   6,C   5,H   9)      0.0001         0.026007   
    150. D(C   2,C   6,C   5,C   4)   -179.9985         0.026007   
    151. D(C   7,C   6,C   5,H   9)    179.9995         0.026007   
    152. D(C   8,C   7,C   6,C   5)     -0.0041         0.019764   
    153. D(C  22,C   7,C   6,C   2)     -0.0057         0.019764   
    154. D(C  22,C   7,C   6,C   5)    179.9949         0.019764   
    155. D(C   8,C   7,C   6,C   2)    179.9953         0.019764   
    156. D(H  10,C   8,C   7,C   6)   -179.9979         0.025934   
    157. D(H  10,C   8,C   7,C  22)      0.0032         0.025934   
    158. D(H  10,C   8,C   3,C   4)    179.9960         0.023402   
    159. D(C   7,C   8,C   3,C   4)     -0.0109         0.023402   
    160. D(C   3,C   8,C   7,C   6)      0.0092         0.025934   
    161. D(C   7,C   8,C   3,C   1)    179.9868         0.023402   
    162. D(H  10,C   8,C   3,C   1)     -0.0063         0.023402   
    163. D(C   3,C   8,C   7,C  22)   -179.9898         0.025934   
    164. D(C  13,C  11,C   4,C   5)      0.0004         0.023034   
    165. D(C  13,C  11,C   4,C   3)   -179.9931         0.023034   
    166. D(H  12,C  11,C   4,C   5)   -179.9923         0.023034   
    167. D(H  12,C  11,C   4,C   3)      0.0142         0.023034   
    168. D(H  15,C  13,C  11,C   4)     57.2757         0.012893   
    169. D(H  14,C  13,C  11,H  12)    122.4818         0.012893   
    170. D(H  14,C  13,C  11,C   4)    -57.5108         0.012893   
    171. D(C  16,C  13,C  11,H  12)     -0.1251         0.012893   
    172. D(C  16,C  13,C  11,C   4)    179.8822         0.012893   
    173. D(H  15,C  13,C  11,H  12)   -122.7317         0.012893   
    174. D(C  19,C  16,C  13,C  11)    179.9972         0.010816   
    175. D(C  19,C  16,C  13,H  14)     56.9320         0.010816   
    176. D(H  18,C  16,C  13,H  15)   -179.2789         0.010816   
    177. D(H  18,C  16,C  13,H  14)    -65.4110         0.010816   
    178. D(H  18,C  16,C  13,C  11)     57.6541         0.010816   
    179. D(H  17,C  16,C  13,H  15)     65.4055         0.010816   
    180. D(H  17,C  16,C  13,H  14)    179.2734         0.010816   
    181. D(C  19,C  16,C  13,H  15)    -56.9359         0.010816   
    182. D(H  17,C  16,C  13,C  11)    -57.6615         0.010816   
    183. D(H  36,C  19,C  16,H  18)    -58.0586         0.011152   
    184. D(H  36,C  19,C  16,H  17)     58.0576         0.011152   
    185. D(H  21,C  19,C  16,H  18)     62.0694         0.011152   
    186. D(H  21,C  19,C  16,H  17)    178.1857         0.011152   
    187. D(H  36,C  19,C  16,C  13)    179.9976         0.011152   
    188. D(H  21,C  19,C  16,C  13)    -59.8744         0.011152   
    189. D(H  20,C  19,C  16,H  18)   -178.1864         0.011152   
    190. D(H  20,C  19,C  16,H  17)    -62.0702         0.011152   
    191. D(H  20,C  19,C  16,C  13)     59.8698         0.011152   
    192. D(C  25,C  22,C   7,C   8)      0.0072         0.011618   
    193. D(C  25,C  22,C   7,C   6)   -179.9918         0.011618   
    194. D(H  24,C  22,C   7,C   8)   -123.7687         0.011618   
    195. D(H  24,C  22,C   7,C   6)     56.2324         0.011618   
    196. D(H  23,C  22,C   7,C   8)    123.7801         0.011618   
    197. D(H  23,C  22,C   7,C   6)    -56.2188         0.011618   
    198. D(H  27,C  25,C  22,H  23)    -64.9891         0.011077   
    199. D(H  27,C  25,C  22,C   7)     58.2561         0.011077   
    200. D(H  26,C  25,C  22,H  24)     64.9928         0.011077   
    201. D(H  26,C  25,C  22,H  23)    178.4991         0.011077   
    202. D(H  26,C  25,C  22,C   7)    -58.2557         0.011077   
    203. D(C  28,C  25,C  22,H  24)    -56.7517         0.011077   
    204. D(C  28,C  25,C  22,H  23)     56.7546         0.011077   
    205. D(C  28,C  25,C  22,C   7)    179.9998         0.011077   
    206. D(H  27,C  25,C  22,H  24)   -178.4955         0.011077   
    207. D(C  31,C  28,C  25,H  27)    -57.7765         0.010865   
    208. D(C  31,C  28,C  25,C  22)   -179.9928         0.010865   
    209. D(H  30,C  28,C  25,H  27)    179.8769         0.010865   
    210. D(H  30,C  28,C  25,H  26)    -64.5574         0.010865   
    211. D(H  30,C  28,C  25,C  22)     57.6605         0.010865   
    212. D(H  29,C  28,C  25,H  27)     64.5701         0.010865   
    213. D(C  31,C  28,C  25,H  26)     57.7893         0.010865   
    214. D(H  29,C  28,C  25,H  26)   -179.8641         0.010865   
    215. D(H  29,C  28,C  25,C  22)    -57.6462         0.010865   
    216. D(H  37,C  31,C  28,H  30)    -57.8665         0.011082   
    217. D(H  37,C  31,C  28,H  29)     57.8774         0.011082   
    218. D(H  37,C  31,C  28,C  25)   -179.9947         0.011082   
    219. D(H  33,C  31,C  28,H  30)     62.2784         0.011082   
    220. D(H  33,C  31,C  28,H  29)    178.0223         0.011082   
    221. D(H  33,C  31,C  28,C  25)    -59.8498         0.011082   
    222. D(H  32,C  31,C  28,H  30)   -178.0111         0.011082   
    223. D(H  32,C  31,C  28,H  29)    -62.2673         0.011082   
    224. D(H  32,C  31,C  28,C  25)     59.8607         0.011082   
    225. D(H  46,C  39,C  38,H  44)     -0.0019         0.025075   
    226. D(H  46,C  39,C  38,C  43)    179.9986         0.025075   
    227. D(C  40,C  39,C  38,H  44)    179.9999         0.025075   
    228. D(C  40,C  39,C  38,C  43)      0.0004         0.025075   
    229. D(H  48,C  40,C  39,H  46)     -0.0000         0.026140   
    230. D(H  48,C  40,C  39,C  38)    179.9982         0.026140   
    231. D(C  41,C  40,C  39,H  46)   -179.9986         0.026140   
    232. D(C  41,C  40,C  39,C  38)     -0.0004         0.026140   
    233. D(C  42,C  41,C  40,H  48)   -179.9986         0.022674   
    234. D(C  42,C  41,C  40,C  39)     -0.0001         0.022674   
    235. D(C   0,C  41,C  40,H  48)     -0.0033         0.022674   
    236. D(C   0,C  41,C  40,C  39)    179.9952         0.022674   
    237. D(C  42,C  41,C   3,C   8)      0.0444         0.001500   
    238. D(C  42,C  41,C   3,C   4)    179.9589         0.001500   
    239. D(C  40,C  41,C   3,C   8)   -179.9093         0.001500   
    240. D(C  40,C  41,C   3,C   4)      0.0052         0.001500   
    241. D(H  45,C  42,C  41,C  40)    179.9998         0.022621   
    242. D(H  45,C  42,C  41,C   0)      0.0045         0.022621   
    243. D(C  43,C  42,C  41,C  40)      0.0004         0.022621   
    244. D(C  43,C  42,C  41,C   0)   -179.9949         0.022621   
    245. D(H  47,C  43,C  42,H  45)      0.0005         0.026170   
    246. D(H  47,C  43,C  42,C  41)    179.9998         0.026170   
    247. D(C  38,C  43,C  42,H  45)   -179.9998         0.026170   
    248. D(C  38,C  43,C  42,C  41)     -0.0004         0.026170   
    249. D(H  47,C  43,C  38,H  44)      0.0002         0.025064   
    250. D(H  47,C  43,C  38,C  39)    179.9997         0.025064   
    251. D(C  42,C  43,C  38,H  44)   -179.9995         0.025064   
    252. D(C  42,C  43,C  38,C  39)      0.0000         0.025064   
    -----------------------------------------------------------------

Number of atoms                         .... 49
Number of degrees of freedom            .... 252

         *************************************************************
         *                GEOMETRY OPTIMIZATION CYCLE   1            *
         *************************************************************
---------------------------------
CARTESIAN COORDINATES (ANGSTROEM)
---------------------------------
  C      4.055651   -0.073547    0.001259
  C      2.833542   -0.006600   -0.001853
  C     -2.844938    0.019403   -0.004605
  C      1.413420    0.037578   -0.002650
  C      0.700732    1.295437   -0.002274
  C     -0.721501    1.219563   -0.002939
  C     -1.411453    0.007143   -0.003953
  C     -0.698523   -1.233355   -0.004352
  C      0.695582   -1.174421   -0.003778
  H     -1.303965    2.141141   -0.002676
  H      1.274536   -2.097754   -0.004091
  C      1.376735    2.533606   -0.001170
  H      2.469590    2.505778   -0.000846
  C      0.711209    3.877604   -0.000569
  H      0.041247    3.969721   -0.880342
  H      0.037271    3.967005    0.876408
  C      1.701375    5.049653    0.003518
  H      2.358700    4.962416    0.887902
  H      2.362825    4.965169   -0.878056
  C      1.013980    6.416414    0.004035
  H      0.370653    6.541162    0.892218
  H      0.374821    6.543928   -0.886762
  C     -1.466096   -2.538946   -0.005338
  H     -2.145195   -2.541193    0.867755
  H     -2.144376   -2.540390   -0.879069
  C     -0.640631   -3.828188   -0.005524
  H      0.023196   -3.849353   -0.889420
  H      0.022302   -3.850153    0.879024
  C     -1.515380   -5.087922   -0.006538
  H     -2.182257   -5.068236    0.875347
  H     -2.181205   -5.067554   -0.889201
  C     -0.702663   -6.385165   -0.006558
  H     -0.052972   -6.450617    0.883324
  H     -0.051766   -6.449835   -0.895614
  C     -4.060832    0.033276   -0.006062
  H     -5.133143    0.050044   -0.008099
  H      1.748932    7.237402    0.007037
  H     -1.357003   -7.272006   -0.007390
  C      8.290611   -0.349909    0.011621
  C      7.669126    0.904242    0.011288
  C      6.278191    1.001489    0.007860
  C      5.479290   -0.163666    0.004675
  C      6.117697   -1.424276    0.005036
  C      7.509166   -1.511211    0.008484
  H      9.380725   -0.422104    0.014310
  H      5.506205   -2.328550    0.002590
  H      8.273734    1.814420    0.013750
  H      7.988600   -2.493123    0.008723
  H      5.792435    1.979098    0.007626

----------------------------
CARTESIAN COORDINATES (A.U.)
----------------------------
  NO LB      ZA    FRAG     MASS         X           Y           Z
   0 C     6.0000    0    12.011    7.664069   -0.138985    0.002378
   1 C     6.0000    0    12.011    5.354619   -0.012471   -0.003501
   2 C     6.0000    0    12.011   -5.376154    0.036665   -0.008702
   3 C     6.0000    0    12.011    2.670977    0.071013   -0.005008
   4 C     6.0000    0    12.011    1.324191    2.448021   -0.004297
   5 C     6.0000    0    12.011   -1.363439    2.304641   -0.005554
   6 C     6.0000    0    12.011   -2.667259    0.013499   -0.007470
   7 C     6.0000    0    12.011   -1.320018   -2.330703   -0.008224
   8 C     6.0000    0    12.011    1.314460   -2.219334   -0.007140
   9 H     1.0000    0     1.008   -2.464137    4.046170   -0.005057
  10 H     1.0000    0     1.008    2.408523   -3.964181   -0.007732
  11 C     6.0000    0    12.011    2.601652    4.787822   -0.002211
  12 H     1.0000    0     1.008    4.666848    4.735234   -0.001598
  13 C     6.0000    0    12.011    1.343990    7.327609   -0.001076
  14 H     1.0000    0     1.008    0.077945    7.501686   -1.663605
  15 H     1.0000    0     1.008    0.070432    7.496553    1.656171
  16 C     6.0000    0    12.011    3.215133    9.542461    0.006649
  17 H     1.0000    0     1.008    4.457296    9.377607    1.677892
  18 H     1.0000    0     1.008    4.465093    9.382810   -1.659286
  19 C     6.0000    0    12.011    1.916145   12.125265    0.007625
  20 H     1.0000    0     1.008    0.700433   12.361004    1.686048
  21 H     1.0000    0     1.008    0.708310   12.366232   -1.675737
  22 C     6.0000    0    12.011   -2.770520   -4.797913   -0.010087
  23 H     1.0000    0     1.008   -4.053831   -4.802158    1.639820
  24 H     1.0000    0     1.008   -4.052284   -4.800642   -1.661199
  25 C     6.0000    0    12.011   -1.210616   -7.234226   -0.010439
  26 H     1.0000    0     1.008    0.043833   -7.274224   -1.680761
  27 H     1.0000    0     1.008    0.042145   -7.275735    1.661115
  28 C     6.0000    0    12.011   -2.863654   -9.614779   -0.012354
  29 H     1.0000    0     1.008   -4.123869   -9.577579    1.654166
  30 H     1.0000    0     1.008   -4.121881   -9.576289   -1.680347
  31 C     6.0000    0    12.011   -1.327841  -12.066213   -0.012393
  32 H     1.0000    0     1.008   -0.100103  -12.189899    1.669240
  33 H     1.0000    0     1.008   -0.097823  -12.188421   -1.692465
  34 C     6.0000    0    12.011   -7.673860    0.062882   -0.011455
  35 H     1.0000    0     1.008   -9.700235    0.094570   -0.015304
  36 H     1.0000    0     1.008    3.305003   13.676708    0.013298
  37 H     1.0000    0     1.008   -2.564364  -13.742101   -0.013965
  38 C     6.0000    0    12.011   15.666984   -0.661233    0.021961
  39 C     6.0000    0    12.011   14.492548    1.708771    0.021331
  40 C     6.0000    0    12.011   11.864061    1.892540    0.014853
  41 C     6.0000    0    12.011   10.354357   -0.309284    0.008834
  42 C     6.0000    0    12.011   11.560771   -2.691492    0.009518
  43 C     6.0000    0    12.011   14.190267   -2.855775    0.016033
  44 H     1.0000    0     1.008   17.727002   -0.797661    0.027042
  45 H     1.0000    0     1.008   10.405219   -4.400322    0.004894
  46 H     1.0000    0     1.008   15.635091    3.428758    0.025984
  47 H     1.0000    0     1.008   15.096267   -4.711320    0.016484
  48 H     1.0000    0     1.008   10.946116    3.739953    0.014412

--------------------------------
INTERNAL COORDINATES (ANGSTROEM)
--------------------------------
 C      0   0   0     0.000000000000     0.00000000     0.00000000
 C      1   0   0     1.223944647573     0.00000000     0.00000000
 C      2   1   0     5.678540645159   177.12438180     0.00000000
 C      2   1   3     1.420809202642   178.64150904     2.44431677
 C      4   2   1     1.445729165687   121.31720245   175.16981916
 C      5   4   2     1.424255516326   116.48164806   180.00937570
 C      6   5   4     1.394989894114   122.69665584     0.00000000
 C      7   6   5     1.430770475003   120.47058161     0.00000000
 C      8   7   6     1.395350618297   117.46584694     0.00000000
 H      6   5   4     1.090215457928   119.24033859   179.99914683
 H      9   8   7     1.089831121132   119.66808581   180.00213207
 C      5   4   2     1.410689310921   121.83139226     0.00000000
 H     12   5   4     1.093209149059   117.17455913     0.00000000
 C     12   5   4     1.499751794170   125.02291054   180.00687956
 H     14  12   5     1.109654846731   109.99860095   302.48920861
 H     14  12   5     1.109627295780   110.00096960    57.27566589
 C     14  12   5     1.534322662643   113.46440707   179.88223754
 H     17  14  12     1.105359701805   109.00261219   302.33851858
 H     17  14  12     1.105363205741   109.00589269    57.65414182
 C     17  14  12     1.529884878207   113.10875966   179.99715414
 H     20  17  14     1.103766676989   111.29198241    59.86978372
 H     20  17  14     1.103767437557   111.29183324   300.12562852
 C      8   7   6     1.514509309906   119.66171924   179.99490633
 H     23   8   7     1.106106678311   108.20372483   303.78115592
 H     23   8   7     1.106106781022   108.20538527    56.23236455
 C     23   8   7     1.530861214263   116.91791859   180.00823965
 H     26  23   8     1.105615802611   109.87518301   301.74434795
 H     26  23   8     1.105616679730   109.87386616    58.25609416
 C     26  23   8     1.533661703851   112.59386665   179.99982985
 H     29  26  23     1.105817474584   109.19702637   302.35381928
 H     29  26  23     1.105817815154   109.19733801    57.66053976
 C     29  26  23     1.530800214028   113.15720454   180.00717205
 H     32  29  26     1.103753255283   111.26888837    59.86068768
 H     32  29  26     1.103752736605   111.26897896   300.15022909
 C      3   2   1     1.215973833186   179.60651930   183.61387337
 H     35   3   7     1.072444113162   179.75450435   354.82602579
 H     20  17  14     1.101900589981   111.46543257   179.99758572
 H     32  29  26     1.102111274406   111.51194430   180.00532062
 C      1   2   4     4.243980477130   179.40186820     5.34062787
 C     39   1   2     1.399692572308    59.90605783   179.51424035
 C     40  39   1     1.394335108547   120.35957136     0.00000000
 C     41  40  39     1.412741592642   120.43777592     0.00000000
 C     42  41  40     1.413046831520   118.70410868     0.00000000
 C     43  42  41     1.394186399331   120.43384454     0.00000000
 H     39   1   2     1.092506054340   179.94468773   358.29790612
 H     43  42  41     1.091622658465   119.07348878   179.99981101
 H     40  39   1     1.092694147880   120.04448756   179.99673554
 H     44  43  42     1.092707315883   119.59966557   179.99984571
 H     41  40  39     1.091639988254   120.42115855   179.99816908

---------------------------
INTERNAL COORDINATES (A.U.)
---------------------------
 C      0   0   0     0.000000000000     0.00000000     0.00000000
 C      1   0   0     2.312920186992     0.00000000     0.00000000
 C      2   1   0    10.730886659691   177.12438180     0.00000000
 C      2   1   3     2.684940281549   178.64150904     2.44431677
 C      4   2   1     2.732032186971   121.31720245   175.16981916
 C      5   4   2     2.691452870583   116.48164806   180.00937570
 C      6   5   4     2.636148859463   122.69665584     0.00000000
 C      7   6   5     2.703764358257   120.47058161     0.00000000
 C      8   7   6     2.636830529379   117.46584694     0.00000000
 H      6   5   4     2.060208642452   119.24033859   179.99914683
 H      9   8   7     2.059482351164   119.66808581   180.00213207
 C      5   4   2     2.665816457691   121.83139226     0.00000000
 H     12   5   4     2.065865898819   117.17455913     0.00000000
 C     12   5   4     2.834120159839   125.02291054   180.00687956
 H     14  12   5     2.096943763500   109.99860095   302.48920861
 H     14  12   5     2.096891699747   110.00096960    57.27566589
 C     14  12   5     2.899449633465   113.46440707   179.88223754
 H     17  14  12     2.088827115885   109.00261219   302.33851858
 H     17  14  12     2.088833737364   109.00589269    57.65414182
 C     17  14  12     2.891063436239   113.10875966   179.99715414
 H     20  17  14     2.085816735257   111.29198241    59.86978372
 H     20  17  14     2.085818172524   111.29183324   300.12562852
 C      8   7   6     2.862007822996   119.66171924   179.99490633
 H     23   8   7     2.090238696909   108.20372483   303.78115592
 H     23   8   7     2.090238891006   108.20538527    56.23236455
 C     23   8   7     2.892908444000   116.91791859   180.00823965
 H     26  23   8     2.089311076270   109.87518301   301.74434795
 H     26  23   8     2.089312733785   109.87386616    58.25609416
 C     26  23   8     2.898200602362   112.59386665   179.99982985
 H     29  26  23     2.089692181069   109.19702637   302.35381928
 H     29  26  23     2.089692824652   109.19733801    57.66053976
 C     29  26  23     2.892793170261   113.15720454   180.00717205
 H     32  29  26     2.085791371908   111.26888837    59.86068768
 H     32  29  26     2.085790391750   111.26897896   300.15022909
 C      3   2   1     2.297857530736   179.60651930   183.61387337
 H     35   3   7     2.026625667811   179.75450435   354.82602579
 H     20  17  14     2.082290341871   111.46543257   179.99758572
 H     32  29  26     2.082688477735   111.51194430   180.00532062
 C      1   2   4     8.019960819483   179.40186820     5.34062787
 C     39   1   2     2.645035633346    59.90605783   179.51424035
 C     40  39   1     2.634911494065   120.35957136     0.00000000
 C     41  40  39     2.669694708093   120.43777592     0.00000000
 C     42  41  40     2.670271525978   118.70410868     0.00000000
 C     43  42  41     2.634630474374   120.43384454     0.00000000
 H     39   1   2     2.064537242353   179.94468773   358.29790612
 H     43  42  41     2.062867866083   119.07348878   179.99981101
 H     40  39   1     2.064892687631   120.04448756   179.99673554
 H     44  43  42     2.064917571551   119.59966557   179.99984571
 H     41  40  39     2.062900614636   120.42115855   179.99816908

---------------------
BASIS SET INFORMATION
---------------------
There are 2 groups of distinct atoms

 Group   1 Type C   : 10s5p1d contracted to 6s2p1d pattern {511111/41/1}
 Group   2 Type H   : 6s1p contracted to 4s1p pattern {3111/1}

Atom   0C    basis set group =>   1
Atom   1C    basis set group =>   1
Atom   2C    basis set group =>   1
Atom   3C    basis set group =>   1
Atom   4C    basis set group =>   1
Atom   5C    basis set group =>   1
Atom   6C    basis set group =>   1
Atom   7C    basis set group =>   1
Atom   8C    basis set group =>   1
Atom   9H    basis set group =>   2
Atom  10H    basis set group =>   2
Atom  11C    basis set group =>   1
Atom  12H    basis set group =>   2
Atom  13C    basis set group =>   1
Atom  14H    basis set group =>   2
Atom  15H    basis set group =>   2
Atom  16C    basis set group =>   1
Atom  17H    basis set group =>   2
Atom  18H    basis set group =>   2
Atom  19C    basis set group =>   1
Atom  20H    basis set group =>   2
Atom  21H    basis set group =>   2
Atom  22C    basis set group =>   1
Atom  23H    basis set group =>   2
Atom  24H    basis set group =>   2
Atom  25C    basis set group =>   1
Atom  26H    basis set group =>   2
Atom  27H    basis set group =>   2
Atom  28C    basis set group =>   1
Atom  29H    basis set group =>   2
Atom  30H    basis set group =>   2
Atom  31C    basis set group =>   1
Atom  32H    basis set group =>   2
Atom  33H    basis set group =>   2
Atom  34C    basis set group =>   1
Atom  35H    basis set group =>   2
Atom  36H    basis set group =>   2
Atom  37H    basis set group =>   2
Atom  38C    basis set group =>   1
Atom  39C    basis set group =>   1
Atom  40C    basis set group =>   1
Atom  41C    basis set group =>   1
Atom  42C    basis set group =>   1
Atom  43C    basis set group =>   1
Atom  44H    basis set group =>   2
Atom  45H    basis set group =>   2
Atom  46H    basis set group =>   2
Atom  47H    basis set group =>   2
Atom  48H    basis set group =>   2
---------------------------------
AUXILIARY/J BASIS SET INFORMATION
---------------------------------
There are 2 groups of distinct atoms

 Group   1 Type C   : 12s5p4d2f1g contracted to 6s4p3d1f1g pattern {711111/2111/211/2/1}
 Group   2 Type H   : 5s2p1d contracted to 3s1p1d pattern {311/2/1}

Atom   0C    basis set group =>   1
Atom   1C    basis set group =>   1
Atom   2C    basis set group =>   1
Atom   3C    basis set group =>   1
Atom   4C    basis set group =>   1
Atom   5C    basis set group =>   1
Atom   6C    basis set group =>   1
Atom   7C    basis set group =>   1
Atom   8C    basis set group =>   1
Atom   9H    basis set group =>   2
Atom  10H    basis set group =>   2
Atom  11C    basis set group =>   1
Atom  12H    basis set group =>   2
Atom  13C    basis set group =>   1
Atom  14H    basis set group =>   2
Atom  15H    basis set group =>   2
Atom  16C    basis set group =>   1
Atom  17H    basis set group =>   2
Atom  18H    basis set group =>   2
Atom  19C    basis set group =>   1
Atom  20H    basis set group =>   2
Atom  21H    basis set group =>   2
Atom  22C    basis set group =>   1
Atom  23H    basis set group =>   2
Atom  24H    basis set group =>   2
Atom  25C    basis set group =>   1
Atom  26H    basis set group =>   2
Atom  27H    basis set group =>   2
Atom  28C    basis set group =>   1
Atom  29H    basis set group =>   2
Atom  30H    basis set group =>   2
Atom  31C    basis set group =>   1
Atom  32H    basis set group =>   2
Atom  33H    basis set group =>   2
Atom  34C    basis set group =>   1
Atom  35H    basis set group =>   2
Atom  36H    basis set group =>   2
Atom  37H    basis set group =>   2
Atom  38C    basis set group =>   1
Atom  39C    basis set group =>   1
Atom  40C    basis set group =>   1
Atom  41C    basis set group =>   1
Atom  42C    basis set group =>   1
Atom  43C    basis set group =>   1
Atom  44H    basis set group =>   2
Atom  45H    basis set group =>   2
Atom  46H    basis set group =>   2
Atom  47H    basis set group =>   2
Atom  48H    basis set group =>   2


           ************************************************************
           *        Program running with 16 parallel MPI-processes    *
           *              working on a common directory               *
           ************************************************************
------------------------------------------------------------------------------
                           ORCA GTO INTEGRAL CALCULATION
                           -- RI-GTO INTEGRALS CHOSEN --
------------------------------------------------------------------------------
------------------------------------------------------------------------------
                   ___                                                        
                  /   \      - P O W E R E D   B Y -                         
                 /     \                                                     
                 |  |  |   _    _      __       _____    __    __             
                 |  |  |  | |  | |    /  \     |  _  \  |  |  /  |          
                  \  \/   | |  | |   /    \    | | | |  |  | /  /          
                 / \  \   | |__| |  /  /\  \   | |_| |  |  |/  /          
                |  |  |   |  __  | /  /__\  \  |    /   |      \           
                |  |  |   | |  | | |   __   |  |    \   |  |\   \          
                \     /   | |  | | |  |  |  |  | |\  \  |  | \   \       
                 \___/    |_|  |_| |__|  |__|  |_| \__\ |__|  \__/        
                                                                              
                      - O R C A' S   B I G   F R I E N D -                    
                                      &                                       
                       - I N T E G R A L  F E E D E R -                       
                                                                              
 v1 FN, 2020, v2 2021                                                         
------------------------------------------------------------------------------


Reading SHARK input file opt_EPRII.SHARKINP.tmp ... ok
----------------------
SHARK INTEGRAL PACKAGE
----------------------

Number of atoms                             ...     49
Number of basis functions                   ...    583
Number of shells                            ...    341
Maximum angular momentum                    ...      2
Integral batch strategy                     ... SHARK/LIBINT Hybrid
RI-J (if used) integral strategy            ... SPLIT-RIJ (Revised 2003 algorithm where possible)
Printlevel                                  ...      1
Contraction scheme used                     ... SEGMENTED contraction
Coulomb Range Separation                    ... NOT USED
Exchange Range Separation                   ... NOT USED
Finite Nucleus Model                        ... NOT USED
Auxiliary Coulomb fitting basis             ... AVAILABLE
   # of basis functions in Aux-J            ...   1451
   # of shells in Aux-J                     ...    485
   Maximum angular momentum in Aux-J        ...      4
Auxiliary J/K fitting basis                 ... NOT available
Auxiliary Correlation fitting basis         ... NOT available
Auxiliary 'external' fitting basis          ... NOT available
Integral threshold                          ...     2.500000e-11
Primitive cut-off                           ...     2.500000e-12
Primitive pair pre-selection threshold      ...     2.500000e-12

Calculating pre-screening integrals         ... done (  0.0 sec) Dimension = 341
Organizing shell pair data                  ... done (  0.2 sec)
Shell pair information
Total number of shell pairs                 ...     58311
Shell pairs after pre-screening             ...     30025
Total number of primitive shell pairs       ...    156979
Primitive shell pairs kept                  ...     56585
          la=0 lb=0:  13735 shell pairs
          la=1 lb=0:  10326 shell pairs
          la=1 lb=1:   1862 shell pairs
          la=2 lb=0:   2856 shell pairs
          la=2 lb=1:   1081 shell pairs
          la=2 lb=2:    165 shell pairs

Calculating one electron integrals          ... done (  0.0 sec)
Calculating RI/J V-Matrix + Cholesky decomp.... done (  0.2 sec)
Calculating Nuclear repulsion               ... done (  0.0 sec) ENN=   1724.107945491061 Eh

SHARK setup successfully completed in   1.1 seconds

Maximum memory used throughout the entire GTOINT-calculation: 41.5 MB


           ************************************************************
           *        Program running with 16 parallel MPI-processes    *
           *              working on a common directory               *
           ************************************************************
-------------------------------------------------------------------------------
                                 ORCA SCF
-------------------------------------------------------------------------------

------------
SCF SETTINGS
------------
Hamiltonian:
 Density Functional     Method          .... DFT(GTOs)
 Exchange Functional    Exchange        .... B88
   X-Alpha parameter    XAlpha          ....  0.666667
   Becke's b parameter  XBeta           ....  0.004200
 Correlation Functional Correlation     .... LYP
 LDA part of GGA corr.  LDAOpt          .... VWN-5
 Gradients option       PostSCFGGA      .... off
 Hybrid DFT is turned on
   Fraction HF Exchange ScalHFX         ....  0.200000
   Scaling of DF-GGA-X  ScalDFX         ....  0.720000
   Scaling of DF-GGA-C  ScalDFC         ....  0.810000
   Scaling of DF-LDA-C  ScalLDAC        ....  1.000000
   Perturbative correction              ....  0.000000
   Density functional embedding theory  .... OFF
   NL short-range parameter             ....  4.800000
 RI-approximation to the Coulomb term is turned on
   Number of AuxJ basis functions       .... 1451
   RIJ-COSX (HFX calculated with COS-X)).... on


General Settings:
 Integral files         IntName         .... opt_EPRII
 Hartree-Fock type      HFTyp           .... UHF
 Total Charge           Charge          ....    0
 Multiplicity           Mult            ....    2
 Number of Electrons    NEL             ....  169
 Basis Dimension        Dim             ....  583
 Nuclear Repulsion      ENuc            ....   1724.1079454911 Eh

Convergence Acceleration:
 DIIS                   CNVDIIS         .... on
   Start iteration      DIISMaxIt       ....    12
   Startup error        DIISStart       ....  0.200000
   # of expansion vecs  DIISMaxEq       ....     5
   Bias factor          DIISBfac        ....   1.050
   Max. coefficient     DIISMaxC        ....  10.000
 Trust-Rad. Augm. Hess. CNVTRAH         .... auto
   Auto Start mean grad. ratio tolernc. ....  1.125000
   Auto Start start iteration           ....    20
   Auto Start num. interpolation iter.  ....    10
   Max. Number of Micro iterations      ....    16
   Max. Number of Macro iterations      .... Maxiter - #DIIS iter
   Number of Davidson start vectors     ....     2
   Converg. threshold I  (grad. norm)   ....   1.000e-05
   Converg. threshold II (energy diff.) ....   1.000e-08
   Grad. Scal. Fac. for Micro threshold ....   0.100
   Minimum threshold for Micro iter.    ....   0.010
   NR start threshold (gradient norm)   ....   0.001
   Initial trust radius                 ....   0.400
   Minimum AH scaling param. (alpha)    ....   1.000
   Maximum AH scaling param. (alpha)    .... 1000.000
   Orbital update algorithm             .... Taylor
   White noise on init. David. guess    .... on
   Maximum white noise                  ....   0.010
   Quad. conv. algorithm                .... NR
 SOSCF                  CNVSOSCF        .... off
 Level Shifting         CNVShift        .... on
   Level shift para.    LevelShift      ....    0.2500
   Turn off err/grad.   ShiftErr        ....    0.0010
 Zerner damping         CNVZerner       .... off
 Static damping         CNVDamp         .... on
   Fraction old density DampFac         ....    0.7000
   Max. Damping (<1)    DampMax         ....    0.9800
   Min. Damping (>=0)   DampMin         ....    0.0000
   Turn off err/grad.   DampErr         ....    0.1000
 Fernandez-Rico         CNVRico         .... off

SCF Procedure:
 Maximum # iterations   MaxIter         ....   125
 SCF integral mode      SCFMode         .... Direct
   Integral package                     .... SHARK and LIBINT hybrid scheme
 Reset frequency        DirectResetFreq ....    20
 Integral Threshold     Thresh          ....  2.500e-11 Eh
 Primitive CutOff       TCut            ....  2.500e-12 Eh

Convergence Tolerance:
 Convergence Check Mode ConvCheckMode   .... Total+1el-Energy
 Convergence forced     ConvForced      .... 0
 Energy Change          TolE            ....  1.000e-08 Eh
 1-El. energy change                    ....  1.000e-05 Eh
 DIIS Error             TolErr          ....  5.000e-07


Diagonalization of the overlap matrix:
Smallest eigenvalue                        ... 6.485e-05
Time for diagonalization                   ...    0.075 sec
Threshold for overlap eigenvalues          ... 1.000e-08
Number of eigenvalues below threshold      ... 0
Time for construction of square roots      ...    0.064 sec
Total time needed                          ...    0.140 sec

Time for model grid setup =    0.328 sec

------------------------------
INITIAL GUESS: MODEL POTENTIAL
------------------------------
Loading Hartree-Fock densities                     ... done
Calculating cut-offs                               ... done
Initializing the effective Hamiltonian             ... done
Setting up the integral package (SHARK)            ... done
Starting the Coulomb interaction                   ... done (   0.3 sec)
Reading the grid                                   ... done
Mapping shells                                     ... done
Starting the XC term evaluation                    ... done (   0.2 sec)
  promolecular density results
     # of electrons  =    168.988540195
     EX              =   -130.677488295
     EC              =     -5.564695840
     EX+EC           =   -136.242184135
Transforming the Hamiltonian                       ... done (   0.0 sec)
Diagonalizing the Hamiltonian                      ... done (   0.1 sec)
Back transforming the eigenvectors                 ... done (   0.0 sec)
Now organizing SCF variables                       ... done
                      ------------------
                      INITIAL GUESS DONE (   1.3 sec)
                      ------------------
-------------------
DFT GRID GENERATION
-------------------

General Integration Accuracy     IntAcc      ... 4.388
Radial Grid Type                 RadialGrid  ... OptM3 with GC (2021)
Angular Grid (max. ang.)         AngularGrid ... 4 (Lebedev-302)
Angular grid pruning method      GridPruning ... 4 (adaptive)
Weight generation scheme         WeightScheme... Becke
Basis function cutoff            BFCut       ... 1.0000e-11
Integration weight cutoff        WCut        ... 1.0000e-14
Angular grids for H and He will be reduced by one unit
Partially contracted basis set               ... off
Rotationally invariant grid construction     ... off

Total number of grid points                  ...   223180
Total number of batches                      ...     3508
Average number of points per batch           ...       63
Average number of grid points per atom       ...     4555
Time for grid setup =    1.449 sec

--------------------
COSX GRID GENERATION
--------------------

GRIDX 1
-------
General Integration Accuracy     IntAcc      ... 3.816
Radial Grid Type                 RadialGrid  ... OptM3 with GC (2021)
Angular Grid (max. ang.)         AngularGrid ... 1 (Lebedev-50)
Angular grid pruning method      GridPruning ... 4 (adaptive)
Weight generation scheme         WeightScheme... Becke
Basis function cutoff            BFCut       ... 1.0000e-11
Integration weight cutoff        WCut        ... 1.0000e-14
Angular grids for H and He will be reduced by one unit
Partially contracted basis set               ... on
Rotationally invariant grid construction     ... off

Total number of grid points                  ...    28434
Total number of batches                      ...      470
Average number of points per batch           ...       60
Average number of grid points per atom       ...      580
UseSFitting                                  ... on

GRIDX 2
-------
General Integration Accuracy     IntAcc      ... 4.020
Radial Grid Type                 RadialGrid  ... OptM3 with GC (2021)
Angular Grid (max. ang.)         AngularGrid ... 2 (Lebedev-110)
Angular grid pruning method      GridPruning ... 4 (adaptive)
Weight generation scheme         WeightScheme... Becke
Basis function cutoff            BFCut       ... 1.0000e-11
Integration weight cutoff        WCut        ... 1.0000e-14
Angular grids for H and He will be reduced by one unit
Partially contracted basis set               ... on
Rotationally invariant grid construction     ... off

Total number of grid points                  ...    60669
Total number of batches                      ...      975
Average number of points per batch           ...       62
Average number of grid points per atom       ...     1238
UseSFitting                                  ... on

GRIDX 3
-------
General Integration Accuracy     IntAcc      ... 4.338
Radial Grid Type                 RadialGrid  ... OptM3 with GC (2021)
Angular Grid (max. ang.)         AngularGrid ... 3 (Lebedev-194)
Angular grid pruning method      GridPruning ... 4 (adaptive)
Weight generation scheme         WeightScheme... Becke
Basis function cutoff            BFCut       ... 1.0000e-11
Integration weight cutoff        WCut        ... 1.0000e-14
Angular grids for H and He will be reduced by one unit
Partially contracted basis set               ... on
Rotationally invariant grid construction     ... off

Total number of grid points                  ...   132673
Total number of batches                      ...     2100
Average number of points per batch           ...       63
Average number of grid points per atom       ...     2708
UseSFitting                                  ... on

Time for X-Grid setup             =    2.537 sec

--------------
SCF ITERATIONS
--------------
ITER       Energy         Delta-E        Max-DP      RMS-DP      [F,P]     Damp
               ***  Starting incremental Fock matrix formation  ***
  0   -928.4454849652   0.000000000000 0.07764343  0.00087169  0.0796253 0.7000
  1   -928.6768161648  -0.231331199599 0.04568313  0.00061012  0.0426354 0.7000
                               ***Turning on DIIS***
  2   -928.7820112997  -0.105195134980 0.10340629  0.00126888  0.0165541 0.0000
  3   -928.9303839201  -0.148372620301 0.03033571  0.00034971  0.0233500 0.0000
  4   -928.9698845148  -0.039500594756 0.02651165  0.00019380  0.0048448 0.0000
  5   -928.9718771700  -0.001992655201 0.01503514  0.00009336  0.0030467 0.0000
  6   -928.9722114761  -0.000334306100 0.00590198  0.00003968  0.0023631 0.0000
  7   -928.9723515572  -0.000140081087 0.00317526  0.00002064  0.0015516 0.0000
  8   -928.9724313984  -0.000079841241 0.00276879  0.00001322  0.0010590 0.0000
  9   -928.9724834045  -0.000052006079 0.00350818  0.00001916  0.0006644 0.0000
               *** Restarting incremental Fock matrix formation ***
                                   *** Resetting DIIS ***
 10   -928.9728106100  -0.000327205476 0.00248659  0.00001821  0.0004991 0.0000
 11   -928.9728122422  -0.000001632219 0.00069562  0.00000337  0.0009097 0.0000
 12   -928.9728164182  -0.000004175951 0.00050861  0.00000256  0.0002906 0.0000
 13   -928.9728175927  -0.000001174519 0.00050985  0.00000225  0.0001901 0.0000
 14   -928.9728183335  -0.000000740820 0.00030331  0.00000147  0.0000859 0.0000
 15   -928.9728185566  -0.000000223054 0.00011438  0.00000071  0.0000304 0.0000
 16   -928.9728186119  -0.000000055358 0.00004403  0.00000036  0.0000214 0.0000
 17   -928.9728186211  -0.000000009158 0.00003604  0.00000026  0.0000214 0.0000
 18   -928.9728186417  -0.000000020648 0.00004177  0.00000022  0.0000148 0.0000
 19   -928.9728186650  -0.000000023234 0.00005755  0.00000025  0.0000084 0.0000
 20   -928.9728186432   0.000000021715 0.00004138  0.00000017  0.0000084 0.0000
 21   -928.9728186477  -0.000000004503 0.00006914  0.00000025  0.0000031 0.0000
 22   -928.9728186695  -0.000000021769 0.00005691  0.00000018  0.0000019 0.0000
 23   -928.9728186903  -0.000000020745 0.00004477  0.00000015  0.0000017 0.0000
 24   -928.9728186964  -0.000000006119 0.00000842  0.00000007  0.0000023 0.0000
 25   -928.9728187130  -0.000000016642 0.00002015  0.00000010  0.0000010 0.0000
                            ***DIIS convergence achieved***

               *****************************************************
               *                     SUCCESS                       *
               *           SCF CONVERGED AFTER  26 CYCLES          *
               *****************************************************

Old exchange energy                            =    -26.605913566 Eh
New exchange energy                            =    -26.605909761 Eh
Exchange energy change after final integration =      0.000003805 Eh
Total energy after final integration           =   -928.972814931 Eh
Final COS-X integration done in                =    10.812 sec

----------------
TOTAL SCF ENERGY
----------------

Total Energy       :         -928.97281493 Eh          -25278.63544 eV

Components:
Nuclear Repulsion  :         1724.10794549 Eh           46915.36233 eV
Electronic Energy  :        -2653.08076042 Eh          -72193.99776 eV
One Electron Energy:        -4677.08864291 Eh         -127270.05226 eV
Two Electron Energy:         2024.00788249 Eh           55076.05450 eV
Max COSX asymmetry :            0.00000341 Eh               0.00009 eV

Virial components:
Potential Energy   :        -1850.54650999 Eh          -50355.93058 eV
Kinetic Energy     :          921.57369506 Eh           25077.29515 eV
Virial Ratio       :            2.00802879


DFT components:
N(Alpha)           :       85.000123057006 electrons
N(Beta)            :       84.000110997305 electrons
N(Total)           :      169.000234054311 electrons
E(X)               :     -105.550623591133 Eh       
E(C)               :       -6.576982182124 Eh       
E(XC)              :     -112.127605773258 Eh       
DFET-embed. en.    :        0.000000000000 Eh       

---------------
SCF CONVERGENCE
---------------

  Last Energy change         ...   -2.2960e-08  Tolerance :   1.0000e-08
  Last MAX-Density change    ...    0.0000e+00  Tolerance :   1.0000e-07
  Last RMS-Density change    ...    0.0000e+00  Tolerance :   5.0000e-09
  Last DIIS Error            ...    7.2432e-07  Tolerance :   5.0000e-07

             **** THE GBW FILE WAS UPDATED (opt_EPRII.gbw) ****
             **** DENSITY opt_EPRII.scfp WAS UPDATED ****
             **** ENERGY FILE WAS UPDATED (opt_EPRII.en.tmp) ****
----------------------
UHF SPIN CONTAMINATION
----------------------

Warning: in a DFT calculation there is little theoretical justification to 
         calculate <S**2> as in Hartree-Fock theory. We will do it anyways
         but you should keep in mind that the values have only limited relevance

Expectation value of <S**2>     :     0.787592
Ideal value S*(S+1) for S=0.5   :     0.750000
Deviation                       :     0.037592

             **** THE GBW FILE WAS UPDATED (opt_EPRII.gbw) ****
             **** DENSITY opt_EPRII.scfp WAS UPDATED ****
----------------
ORBITAL ENERGIES
----------------
                 SPIN UP ORBITALS
  NO   OCC          E(Eh)            E(eV) 
   0   1.0000     -10.226615      -278.2803 
   1   1.0000     -10.223934      -278.2074 
   2   1.0000     -10.221837      -278.1503 
   3   1.0000     -10.211619      -277.8723 
   4   1.0000     -10.208277      -277.7813 
   5   1.0000     -10.205557      -277.7073 
   6   1.0000     -10.204784      -277.6863 
   7   1.0000     -10.204493      -277.6784 
   8   1.0000     -10.204281      -277.6726 
   9   1.0000     -10.203351      -277.6473 
  10   1.0000     -10.203164      -277.6422 
  11   1.0000     -10.202252      -277.6174 
  12   1.0000     -10.201832      -277.6060 
  13   1.0000     -10.199073      -277.5309 
  14   1.0000     -10.198231      -277.5080 
  15   1.0000     -10.196576      -277.4629 
  16   1.0000     -10.196355      -277.4569 
  17   1.0000     -10.190077      -277.2861 
  18   1.0000     -10.187466      -277.2150 
  19   1.0000     -10.185528      -277.1623 
  20   1.0000     -10.182208      -277.0720 
  21   1.0000     -10.181936      -277.0646 
  22   1.0000     -10.175344      -276.8852 
  23   1.0000     -10.172956      -276.8202 
  24   1.0000      -0.873586       -23.7715 
  25   1.0000      -0.862769       -23.4771 
  26   1.0000      -0.819286       -22.2939 
  27   1.0000      -0.798859       -21.7381 
  28   1.0000      -0.794323       -21.6146 
  29   1.0000      -0.778622       -21.1874 
  30   1.0000      -0.766628       -20.8610 
  31   1.0000      -0.750810       -20.4306 
  32   1.0000      -0.745526       -20.2868 
  33   1.0000      -0.729522       -19.8513 
  34   1.0000      -0.714424       -19.4405 
  35   1.0000      -0.696601       -18.9555 
  36   1.0000      -0.655951       -17.8493 
  37   1.0000      -0.644385       -17.5346 
  38   1.0000      -0.617647       -16.8070 
  39   1.0000      -0.613018       -16.6811 
  40   1.0000      -0.609043       -16.5729 
  41   1.0000      -0.592382       -16.1195 
  42   1.0000      -0.579760       -15.7761 
  43   1.0000      -0.561943       -15.2913 
  44   1.0000      -0.542156       -14.7528 
  45   1.0000      -0.530760       -14.4427 
  46   1.0000      -0.506881       -13.7929 
  47   1.0000      -0.492947       -13.4138 
  48   1.0000      -0.480232       -13.0678 
  49   1.0000      -0.476433       -12.9644 
  50   1.0000      -0.470020       -12.7899 
  51   1.0000      -0.462705       -12.5909 
  52   1.0000      -0.456537       -12.4230 
  53   1.0000      -0.437005       -11.8915 
  54   1.0000      -0.432354       -11.7649 
  55   1.0000      -0.429267       -11.6809 
  56   1.0000      -0.425666       -11.5830 
  57   1.0000      -0.424805       -11.5595 
  58   1.0000      -0.421485       -11.4692 
  59   1.0000      -0.411378       -11.1942 
  60   1.0000      -0.398748       -10.8505 
  61   1.0000      -0.397526       -10.8172 
  62   1.0000      -0.383956       -10.4480 
  63   1.0000      -0.378575       -10.3015 
  64   1.0000      -0.377037       -10.2597 
  65   1.0000      -0.364772        -9.9259 
  66   1.0000      -0.362110        -9.8535 
  67   1.0000      -0.356574        -9.7029 
  68   1.0000      -0.353687        -9.6243 
  69   1.0000      -0.351244        -9.5578 
  70   1.0000      -0.339717        -9.2442 
  71   1.0000      -0.332630        -9.0513 
  72   1.0000      -0.331931        -9.0323 
  73   1.0000      -0.331250        -9.0138 
  74   1.0000      -0.326916        -8.8958 
  75   1.0000      -0.323036        -8.7903 
  76   1.0000      -0.320801        -8.7295 
  77   1.0000      -0.300398        -8.1742 
  78   1.0000      -0.276948        -7.5361 
  79   1.0000      -0.273455        -7.4411 
  80   1.0000      -0.268542        -7.3074 
  81   1.0000      -0.259119        -7.0510 
  82   1.0000      -0.256420        -6.9775 
  83   1.0000      -0.217659        -5.9228 
  84   1.0000      -0.171366        -4.6631 
  85   0.0000      -0.058933        -1.6036 
  86   0.0000      -0.014888        -0.4051 
  87   0.0000      -0.014117        -0.3841 
  88   0.0000       0.010607         0.2886 
  89   0.0000       0.015349         0.4177 
  90   0.0000       0.019688         0.5357 
  91   0.0000       0.022447         0.6108 
  92   0.0000       0.028584         0.7778 
  93   0.0000       0.034136         0.9289 
  94   0.0000       0.037521         1.0210 
  95   0.0000       0.039830         1.0838 
  96   0.0000       0.044634         1.2146 
  97   0.0000       0.046026         1.2524 
  98   0.0000       0.048363         1.3160 
  99   0.0000       0.057008         1.5513 
 100   0.0000       0.062534         1.7016 
 101   0.0000       0.066705         1.8151 
 102   0.0000       0.070269         1.9121 
 103   0.0000       0.074011         2.0139 
 104   0.0000       0.082565         2.2467 
 105   0.0000       0.084309         2.2942 
 106   0.0000       0.090989         2.4759 
 107   0.0000       0.099252         2.7008 
 108   0.0000       0.112291         3.0556 
 109   0.0000       0.113329         3.0838 
 110   0.0000       0.124422         3.3857 
 111   0.0000       0.126332         3.4377 
 112   0.0000       0.135367         3.6835 
 113   0.0000       0.149386         4.0650 
 114   0.0000       0.151250         4.1157 
 115   0.0000       0.159016         4.3270 
 116   0.0000       0.162104         4.4111 
 117   0.0000       0.174136         4.7385 
 118   0.0000       0.174836         4.7575 
 119   0.0000       0.181545         4.9401 
 120   0.0000       0.184803         5.0287 
 121   0.0000       0.194416         5.2903 
 122   0.0000       0.196410         5.3446 
 123   0.0000       0.197677         5.3791 
 124   0.0000       0.198501         5.4015 
 125   0.0000       0.201053         5.4709 
 126   0.0000       0.201522         5.4837 
 127   0.0000       0.205989         5.6052 
 128   0.0000       0.215194         5.8557 
 129   0.0000       0.216445         5.8898 
 130   0.0000       0.221630         6.0309 
 131   0.0000       0.222362         6.0508 
 132   0.0000       0.225766         6.1434 
 133   0.0000       0.234734         6.3874 
 134   0.0000       0.239633         6.5207 
 135   0.0000       0.244703         6.6587 
 136   0.0000       0.246338         6.7032 
 137   0.0000       0.252136         6.8610 
 138   0.0000       0.253588         6.9005 
 139   0.0000       0.254962         6.9379 
 140   0.0000       0.258115         7.0237 
 141   0.0000       0.264744         7.2041 
 142   0.0000       0.267235         7.2718 
 143   0.0000       0.273117         7.4319 
 144   0.0000       0.275961         7.5093 
 145   0.0000       0.278593         7.5809 
 146   0.0000       0.284492         7.7414 
 147   0.0000       0.286357         7.7922 
 148   0.0000       0.288952         7.8628 
 149   0.0000       0.293196         7.9783 
 150   0.0000       0.293603         7.9893 
 151   0.0000       0.296818         8.0768 
 152   0.0000       0.299863         8.1597 
 153   0.0000       0.301676         8.2090 
 154   0.0000       0.304624         8.2893 
 155   0.0000       0.307258         8.3609 
 156   0.0000       0.313686         8.5358 
 157   0.0000       0.316240         8.6053 
 158   0.0000       0.317004         8.6261 
 159   0.0000       0.321486         8.7481 
 160   0.0000       0.323996         8.8164 
 161   0.0000       0.324696         8.8354 
 162   0.0000       0.327940         8.9237 
 163   0.0000       0.334257         9.0956 
 164   0.0000       0.335460         9.1283 
 165   0.0000       0.345647         9.4055 
 166   0.0000       0.345884         9.4120 
 167   0.0000       0.348768         9.4905 
 168   0.0000       0.350240         9.5305 
 169   0.0000       0.355667         9.6782 
 170   0.0000       0.361927         9.8485 
 171   0.0000       0.368495        10.0273 
 172   0.0000       0.369646        10.0586 
 173   0.0000       0.375879        10.2282 
 174   0.0000       0.378144        10.2898 
 175   0.0000       0.384572        10.4647 
 176   0.0000       0.388307        10.5664 
 177   0.0000       0.398774        10.8512 
 178   0.0000       0.402641        10.9564 
 179   0.0000       0.406809        11.0698 
 180   0.0000       0.412661        11.2291 
 181   0.0000       0.415502        11.3064 
 182   0.0000       0.418192        11.3796 
 183   0.0000       0.421834        11.4787 
 184   0.0000       0.424198        11.5430 
 185   0.0000       0.425828        11.5874 
 186   0.0000       0.431456        11.7405 
 187   0.0000       0.438658        11.9365 
 188   0.0000       0.446607        12.1528 
 189   0.0000       0.447537        12.1781 
 190   0.0000       0.448966        12.2170 
 191   0.0000       0.457444        12.4477 
 192   0.0000       0.459143        12.4939 
 193   0.0000       0.465365        12.6632 
 194   0.0000       0.469175        12.7669 
 195   0.0000       0.472797        12.8655 
 196   0.0000       0.480291        13.0694 
 197   0.0000       0.485761        13.2182 
 198   0.0000       0.487694        13.2708 
 199   0.0000       0.490351        13.3431 
 200   0.0000       0.503568        13.7028 
 201   0.0000       0.506103        13.7718 
 202   0.0000       0.509871        13.8743 
 203   0.0000       0.514041        13.9878 
 204   0.0000       0.517750        14.0887 
 205   0.0000       0.520556        14.1651 
 206   0.0000       0.532600        14.4928 
 207   0.0000       0.536128        14.5888 
 208   0.0000       0.537171        14.6172 
 209   0.0000       0.541201        14.7268 
 210   0.0000       0.548716        14.9313 
 211   0.0000       0.553871        15.0716 
 212   0.0000       0.562982        15.3195 
 213   0.0000       0.573044        15.5933 
 214   0.0000       0.585524        15.9329 
 215   0.0000       0.591387        16.0925 
 216   0.0000       0.591953        16.1079 
 217   0.0000       0.593580        16.1521 
 218   0.0000       0.600643        16.3443 
 219   0.0000       0.603634        16.4257 
 220   0.0000       0.615188        16.7401 
 221   0.0000       0.622385        16.9360 
 222   0.0000       0.639110        17.3911 
 223   0.0000       0.643216        17.5028 
 224   0.0000       0.656626        17.8677 
 225   0.0000       0.663391        18.0518 
 226   0.0000       0.668162        18.1816 
 227   0.0000       0.676517        18.4090 
 228   0.0000       0.684207        18.6182 
 229   0.0000       0.688437        18.7333 
 230   0.0000       0.705692        19.2028 
 231   0.0000       0.724723        19.7207 
 232   0.0000       0.737653        20.0726 
 233   0.0000       0.755255        20.5515 
 234   0.0000       0.769409        20.9367 
 235   0.0000       0.777357        21.1530 
 236   0.0000       0.790542        21.5118 
 237   0.0000       0.791323        21.5330 
 238   0.0000       0.815212        22.1830 
 239   0.0000       0.820272        22.3207 
 240   0.0000       0.833303        22.6753 
 241   0.0000       0.836071        22.7506 
 242   0.0000       0.842503        22.9257 
 243   0.0000       0.847090        23.0505 
 244   0.0000       0.854019        23.2390 
 245   0.0000       0.856982        23.3197 
 246   0.0000       0.861361        23.4388 
 247   0.0000       0.866490        23.5784 
 248   0.0000       0.869117        23.6499 
 249   0.0000       0.880540        23.9607 
 250   0.0000       0.884011        24.0552 
 251   0.0000       0.891699        24.2644 
 252   0.0000       0.901182        24.5224 
 253   0.0000       0.901450        24.5297 
 254   0.0000       0.906740        24.6737 
 255   0.0000       0.913571        24.8595 
 256   0.0000       0.919290        25.0151 
 257   0.0000       0.919747        25.0276 
 258   0.0000       0.924974        25.1698 
 259   0.0000       0.925243        25.1771 
 260   0.0000       0.937135        25.5007 
 261   0.0000       0.939252        25.5583 
 262   0.0000       0.940827        25.6012 
 263   0.0000       0.944055        25.6890 
 264   0.0000       0.959223        26.1018 
 265   0.0000       0.960702        26.1420 
 266   0.0000       0.963770        26.2255 
 267   0.0000       0.972036        26.4504 
 268   0.0000       0.979889        26.6641 
 269   0.0000       0.979983        26.6667 
 270   0.0000       0.989613        26.9287 
 271   0.0000       0.991000        26.9665 
 272   0.0000       0.994059        27.0497 
 273   0.0000       0.997666        27.1479 
 274   0.0000       1.000445        27.2235 
 275   0.0000       1.002880        27.2898 
 276   0.0000       1.008865        27.4526 
 277   0.0000       1.011247        27.5174 
 278   0.0000       1.021319        27.7915 
 279   0.0000       1.027065        27.9479 
 280   0.0000       1.027871        27.9698 
 281   0.0000       1.030712        28.0471 
 282   0.0000       1.035587        28.1797 
 283   0.0000       1.037764        28.2390 
 284   0.0000       1.059396        28.8276 
 285   0.0000       1.059463        28.8294 
 286   0.0000       1.059751        28.8373 
 287   0.0000       1.071111        29.1464 
 288   0.0000       1.072996        29.1977 
 289   0.0000       1.092054        29.7163 
 290   0.0000       1.103885        30.0382 
 291   0.0000       1.106380        30.1061 
 292   0.0000       1.110689        30.2234 
 293   0.0000       1.116747        30.3882 
 294   0.0000       1.120039        30.4778 
 295   0.0000       1.137581        30.9552 
 296   0.0000       1.140793        31.0426 
 297   0.0000       1.141920        31.0732 
 298   0.0000       1.169857        31.8334 
 299   0.0000       1.172229        31.8980 
 300   0.0000       1.177695        32.0467 
 301   0.0000       1.183751        32.2115 
 302   0.0000       1.188140        32.3309 
 303   0.0000       1.189069        32.3562 
 304   0.0000       1.197896        32.5964 
 305   0.0000       1.204319        32.7712 
 306   0.0000       1.207189        32.8493 
 307   0.0000       1.216363        33.0989 
 308   0.0000       1.243753        33.8442 
 309   0.0000       1.248946        33.9855 
 310   0.0000       1.257723        34.2244 
 311   0.0000       1.259035        34.2601 
 312   0.0000       1.271043        34.5868 
 313   0.0000       1.274320        34.6760 
 314   0.0000       1.281438        34.8697 
 315   0.0000       1.296889        35.2902 
[...]
      dyz     :     0.000052
      dx2y2   :    -0.000271
      dxy     :    -0.000555
  3 C s       :     0.005792  s :     0.005792
      pz      :     0.155000  p :     0.164011
      px      :     0.004238
      py      :     0.004773
      dz2     :    -0.000858  d :    -0.009503
      dxz     :    -0.002265
      dyz     :    -0.004320
      dx2y2   :    -0.000976
      dxy     :    -0.001085
  4 C s       :    -0.006405  s :    -0.006405
      pz      :    -0.090118  p :    -0.105714
      px      :    -0.006656
      py      :    -0.008940
      dz2     :     0.000582  d :     0.039233
      dxz     :     0.010651
      dyz     :     0.025007
      dx2y2   :     0.001399
      dxy     :     0.001594
  5 C s       :     0.005432  s :     0.005432
      pz      :     0.161306  p :     0.169936
      px      :     0.004642
      py      :     0.003988
      dz2     :    -0.000664  d :    -0.008108
      dxz     :    -0.004099
      dyz     :    -0.001732
      dx2y2   :    -0.000642
      dxy     :    -0.000971
  6 C s       :    -0.003652  s :    -0.003652
      pz      :    -0.067047  p :    -0.074650
      px      :    -0.002868
      py      :    -0.004735
      dz2     :     0.000407  d :     0.016859
      dxz     :     0.001683
      dyz     :     0.013121
      dx2y2   :     0.000647
      dxy     :     0.001001
  7 C s       :     0.006053  s :     0.006053
      pz      :     0.165250  p :     0.174365
      px      :     0.004535
      py      :     0.004580
      dz2     :    -0.000799  d :    -0.006572
      dxz     :    -0.003044
      dyz     :    -0.001518
      dx2y2   :    -0.000585
      dxy     :    -0.000626
  8 C s       :    -0.003686  s :    -0.003686
      pz      :    -0.071425  p :    -0.079450
      px      :    -0.004433
      py      :    -0.003592
      dz2     :     0.000336  d :     0.017150
      dxz     :     0.010852
      dyz     :     0.004602
      dx2y2   :     0.000714
      dxy     :     0.000645
  9 H s       :    -0.004761  s :    -0.004761
      pz      :     0.005097  p :     0.005963
      px      :     0.000303
      py      :     0.000563
 10 H s       :     0.002083  s :     0.002083
      pz      :    -0.002153  p :    -0.002669
      px      :    -0.000207
      py      :    -0.000309
 11 C s       :     0.017141  s :     0.017141
      pz      :     0.537781  p :     0.560642
      px      :     0.011367
      py      :     0.011493
      dz2     :    -0.002023  d :    -0.006161
      dxz     :    -0.000302
      dyz     :    -0.001740
      dx2y2   :    -0.001069
      dxy     :    -0.001027
 12 H s       :    -0.014699  s :    -0.014699
      pz      :     0.016632  p :     0.019254
      px      :     0.002459
      py      :     0.000162
 13 C s       :    -0.003076  s :    -0.003076
      pz      :    -0.003327  p :    -0.017156
      px      :    -0.004952
      py      :    -0.008877
      dz2     :     0.000364  d :     0.023678
      dxz     :     0.010278
      dyz     :     0.011615
      dx2y2   :     0.000594
      dxy     :     0.000827
 14 H s       :     0.024694  s :     0.024694
      pz      :    -0.000282  p :    -0.000755
      px      :    -0.000386
      py      :    -0.000086
 15 H s       :     0.024508  s :     0.024508
      pz      :    -0.000275  p :    -0.000753
      px      :    -0.000390
      py      :    -0.000088
 16 C s       :     0.000057  s :     0.000057
      pz      :     0.000869  p :     0.001273
      px      :     0.000289
      py      :     0.000115
      dz2     :    -0.000055  d :    -0.000393
      dxz     :     0.000234
      dyz     :    -0.000121
      dx2y2   :    -0.000377
      dxy     :    -0.000074
 17 H s       :    -0.000200  s :    -0.000200
      pz      :     0.000033  p :     0.000154
      px      :     0.000073
      py      :     0.000049
 18 H s       :    -0.000198  s :    -0.000198
      pz      :     0.000032  p :     0.000153
      px      :     0.000070
      py      :     0.000050
 19 C s       :    -0.000236  s :    -0.000236
      pz      :     0.000392  p :    -0.000011
      px      :    -0.000077
      py      :    -0.000327
      dz2     :    -0.000003  d :     0.000085
      dxz     :     0.000004
      dyz     :     0.000092
      dx2y2   :     0.000009
      dxy     :    -0.000017
 20 H s       :     0.000168  s :     0.000168
      pz      :     0.000001  p :     0.000030
      px      :     0.000013
      py      :     0.000016
 21 H s       :     0.000168  s :     0.000168
      pz      :     0.000001  p :     0.000031
      px      :     0.000013
      py      :     0.000017
 22 C s       :    -0.001069  s :    -0.001069
      pz      :    -0.000111  p :    -0.005062
      px      :    -0.002177
      py      :    -0.002773
      dz2     :     0.000137  d :     0.007755
      dxz     :     0.003993
      dyz     :     0.003116
      dx2y2   :     0.000199
      dxy     :     0.000309
 23 H s       :     0.008338  s :     0.008338
      pz      :    -0.000107  p :    -0.000235
      px      :    -0.000160
      py      :     0.000032
 24 H s       :     0.008346  s :     0.008346
      pz      :    -0.000107  p :    -0.000235
      px      :    -0.000159
      py      :     0.000032
 25 C s       :     0.000042  s :     0.000042
      pz      :    -0.000015  p :     0.000180
      px      :     0.000114
      py      :     0.000081
      dz2     :    -0.000014  d :    -0.000038
      dxz     :     0.000149
      dyz     :    -0.000027
      dx2y2   :    -0.000099
      dxy     :    -0.000047
 26 H s       :    -0.000009  s :    -0.000009
      pz      :     0.000006  p :     0.000016
      px      :     0.000008
      py      :     0.000002
 27 H s       :    -0.000009  s :    -0.000009
      pz      :     0.000006  p :     0.000016
      px      :     0.000008
      py      :     0.000002
 28 C s       :    -0.000052  s :    -0.000052
      pz      :     0.000174  p :     0.000048
      px      :    -0.000031
      py      :    -0.000094
      dz2     :    -0.000002  d :    -0.000003
      dxz     :    -0.000006
      dyz     :     0.000012
      dx2y2   :     0.000000
      dxy     :    -0.000008
 29 H s       :     0.000038  s :     0.000038
      pz      :     0.000001  p :     0.000019
      px      :     0.000004
      py      :     0.000014
 30 H s       :     0.000038  s :     0.000038
      pz      :     0.000001  p :     0.000019
      px      :     0.000004
      py      :     0.000014
 31 C s       :    -0.000008  s :    -0.000008
      pz      :     0.000006  p :    -0.000038
      px      :    -0.000013
      py      :    -0.000031
      dz2     :    -0.000000  d :     0.000013
      dxz     :     0.000010
      dyz     :     0.000005
      dx2y2   :    -0.000003
      dxy     :     0.000001
 32 H s       :     0.000017  s :     0.000017
      pz      :    -0.000000  p :    -0.000002
      px      :    -0.000001
      py      :    -0.000001
 33 H s       :     0.000016  s :     0.000016
      pz      :    -0.000000  p :    -0.000002
      px      :    -0.000001
      py      :    -0.000001
 34 C s       :    -0.001164  s :    -0.001164
      pz      :    -0.034618  p :    -0.040406
      px      :    -0.000493
      py      :    -0.005294
      dz2     :     0.000128  d :     0.001321
      dxz     :     0.000805
      dyz     :     0.000000
      dx2y2   :     0.000137
      dxy     :     0.000251
 35 H s       :     0.001200  s :     0.001200
      pz      :    -0.001065  p :    -0.001435
      px      :    -0.000220
      py      :    -0.000149
 36 H s       :    -0.000097  s :    -0.000097
      pz      :     0.000025  p :     0.000014
      px      :     0.000003
      py      :    -0.000013
 37 H s       :    -0.000003  s :    -0.000003
      pz      :    -0.000000  p :    -0.000003
      px      :    -0.000001
      py      :    -0.000002
 38 C s       :     0.000710  s :     0.000710
      pz      :     0.021324  p :     0.022368
      px      :     0.000466
      py      :     0.000578
      dz2     :    -0.000090  d :    -0.000769
      dxz     :    -0.000091
      dyz     :    -0.000448
      dx2y2   :    -0.000065
      dxy     :    -0.000075
 39 C s       :    -0.000436  s :    -0.000436
      pz      :    -0.008865  p :    -0.009808
      px      :    -0.000525
      py      :    -0.000418
      dz2     :     0.000044  d :     0.002001
      dxz     :     0.001251
      dyz     :     0.000542
      dx2y2   :     0.000086
      dxy     :     0.000078
 40 C s       :     0.000739  s :     0.000739
      pz      :     0.019304  p :     0.020485
      px      :     0.000628
      py      :     0.000553
      dz2     :    -0.000080  d :    -0.001051
      dxz     :    -0.000516
      dyz     :    -0.000239
      dx2y2   :    -0.000123
      dxy     :    -0.000094
 41 C s       :    -0.000913  s :    -0.000913
      pz      :    -0.012552  p :    -0.014872
      px      :    -0.001636
      py      :    -0.000684
      dz2     :     0.000094  d :     0.005088
      dxz     :     0.003821
      dyz     :     0.000429
      dx2y2   :     0.000268
      dxy     :     0.000475
 42 C s       :     0.000744  s :     0.000744
      pz      :     0.019476  p :     0.020659
      px      :     0.000593
      py      :     0.000591
      dz2     :    -0.000080  d :    -0.001050
      dxz     :    -0.000450
      dyz     :    -0.000304
      dx2y2   :    -0.000110
      dxy     :    -0.000106
 43 C s       :    -0.000436  s :    -0.000436
      pz      :    -0.008848  p :    -0.009790
      px      :    -0.000554
      py      :    -0.000388
      dz2     :     0.000044  d :     0.002007
      dxz     :     0.001419
      dyz     :     0.000379
      dx2y2   :     0.000081
      dxy     :     0.000085
 44 H s       :    -0.000644  s :    -0.000644
      pz      :     0.000686  p :     0.000801
      px      :     0.000104
      py      :     0.000011
 45 H s       :    -0.000590  s :    -0.000590
      pz      :     0.000550  p :     0.000662
      px      :     0.000037
      py      :     0.000075
 46 H s       :     0.000266  s :     0.000266
      pz      :    -0.000264  p :    -0.000325
      px      :    -0.000026
      py      :    -0.000036
 47 H s       :     0.000266  s :     0.000266
      pz      :    -0.000263  p :    -0.000324
      px      :    -0.000023
      py      :    -0.000038
 48 H s       :    -0.000584  s :    -0.000584
      pz      :     0.000542  p :     0.000654
      px      :     0.000028
      py      :     0.000084


                      *****************************
                      * MAYER POPULATION ANALYSIS *
                      *****************************

  NA   - Mulliken gross atomic population
  ZA   - Total nuclear charge
  QA   - Mulliken gross atomic charge
  VA   - Mayer's total valence
  BVA  - Mayer's bonded valence
  FA   - Mayer's free valence

  ATOM       NA         ZA         QA         VA         BVA        FA
  0 C      6.3106     6.0000    -0.3106     3.9385     3.9325     0.0060
  1 C      6.3890     6.0000    -0.3890     3.7674     3.7654     0.0020
  2 C      6.0049     6.0000    -0.0049     3.8117     3.8113     0.0004
  3 C      5.5091     6.0000     0.4909     3.8468     3.8127     0.0341
  4 C      5.6225     6.0000     0.3775     3.9564     3.9416     0.0148
  5 C      6.4377     6.0000    -0.4377     4.2366     4.2015     0.0351
  6 C      5.5848     6.0000     0.4152     3.9459     3.9386     0.0073
  7 C      5.7078     6.0000     0.2922     3.8250     3.7874     0.0376
  8 C      6.3969     6.0000    -0.3969     4.3212     4.3129     0.0083
  9 H      0.8682     1.0000     0.1318     0.9651     0.9650     0.0002
 10 H      0.8679     1.0000     0.1321     0.9665     0.9665     0.0000
 11 C      6.2644     6.0000    -0.2644     3.9832     3.6078     0.3754
 12 H      0.8736     1.0000     0.1264     0.9834     0.9819     0.0016
 13 C      6.2711     6.0000    -0.2711     3.9617     3.9603     0.0013
 14 H      0.8473     1.0000     0.1527     0.9639     0.9630     0.0009
 15 H      0.8476     1.0000     0.1524     0.9640     0.9631     0.0009
 16 C      6.2888     6.0000    -0.2888     3.9024     3.9024     0.0000
 17 H      0.8452     1.0000     0.1548     0.9637     0.9637     0.0000
 18 H      0.8454     1.0000     0.1546     0.9637     0.9637     0.0000
 19 C      6.5096     6.0000    -0.5096     3.9062     3.9062     0.0000
 20 H      0.8405     1.0000     0.1595     0.9653     0.9653     0.0000
 21 H      0.8405     1.0000     0.1595     0.9653     0.9653     0.0000
 22 C      6.3870     6.0000    -0.3870     4.0556     4.0554     0.0002
 23 H      0.8449     1.0000     0.1551     0.9621     0.9619     0.0001
 24 H      0.8448     1.0000     0.1552     0.9620     0.9619     0.0001
 25 C      6.2697     6.0000    -0.2697     4.0161     4.0161     0.0000
 26 H      0.8581     1.0000     0.1419     0.9662     0.9662     0.0000
 27 H      0.8581     1.0000     0.1419     0.9662     0.9662     0.0000
 28 C      6.2625     6.0000    -0.2625     3.8879     3.8879     0.0000
 29 H      0.8551     1.0000     0.1449     0.9669     0.9669     0.0000
 30 H      0.8551     1.0000     0.1449     0.9669     0.9669     0.0000
 31 C      6.5105     6.0000    -0.5105     3.9008     3.9008     0.0000
 32 H      0.8406     1.0000     0.1594     0.9653     0.9653     0.0000
 33 H      0.8406     1.0000     0.1594     0.9653     0.9653     0.0000
 34 C      6.5420     6.0000    -0.5420     3.8864     3.8847     0.0016
 35 H      0.8162     1.0000     0.1838     0.9774     0.9774     0.0000
 36 H      0.8541     1.0000     0.1459     0.9671     0.9671     0.0000
 37 H      0.8556     1.0000     0.1444     0.9668     0.9668     0.0000
 38 C      6.1243     6.0000    -0.1243     4.0767     4.0761     0.0006
 39 C      6.0997     6.0000    -0.0997     4.0994     4.0993     0.0001
 40 C      6.2808     6.0000    -0.2808     4.1939     4.1934     0.0005
 41 C      5.4049     6.0000     0.5951     3.9214     3.9211     0.0003
 42 C      6.2761     6.0000    -0.2761     4.1980     4.1975     0.0005
 43 C      6.1001     6.0000    -0.1001     4.0957     4.0956     0.0001
 44 H      0.8932     1.0000     0.1068     0.9581     0.9581     0.0000
 45 H      0.8807     1.0000     0.1193     0.9606     0.9606     0.0000
 46 H      0.8945     1.0000     0.1055     0.9614     0.9614     0.0000
 47 H      0.8942     1.0000     0.1058     0.9615     0.9615     0.0000
 48 H      0.8834     1.0000     0.1166     0.9610     0.9610     0.0000

  Mayer bond orders larger than 0.100000
B(  0-C ,  1-C ) :   2.4739 B(  0-C , 41-C ) :   1.0185 B(  1-C ,  3-C ) :   0.8177 
B(  1-C ,  4-C ) :   0.1008 B(  2-C ,  6-C ) :   0.9017 B(  2-C , 34-C ) :   2.7136 
B(  3-C ,  4-C ) :   1.2562 B(  3-C ,  8-C ) :   1.4480 B(  4-C ,  5-C ) :   1.2427 
B(  4-C ,  6-C ) :   0.1037 B(  4-C , 11-C ) :   1.2983 B(  5-C ,  6-C ) :   1.4785 
B(  5-C ,  9-H ) :   0.9754 B(  5-C , 34-C ) :   0.1014 B(  6-C ,  7-C ) :   1.3122 
B(  6-C ,  8-C ) :   0.1017 B(  7-C ,  8-C ) :   1.4231 B(  7-C , 22-C ) :   0.9419 
B(  8-C , 10-H ) :   0.9714 B( 11-C , 12-H ) :   0.9807 B( 11-C , 13-C ) :   0.9991 
B( 13-C , 14-H ) :   0.9563 B( 13-C , 15-H ) :   0.9562 B( 13-C , 16-C ) :   0.9821 
B( 16-C , 17-H ) :   0.9724 B( 16-C , 18-H ) :   0.9723 B( 16-C , 19-C ) :   0.9619 
B( 19-C , 20-H ) :   0.9728 B( 19-C , 21-H ) :   0.9728 B( 19-C , 36-H ) :   0.9675 
B( 22-C , 23-H ) :   0.9599 B( 22-C , 24-H ) :   0.9600 B( 22-C , 25-C ) :   1.0195 
B( 25-C , 26-H ) :   0.9614 B( 25-C , 27-H ) :   0.9615 B( 25-C , 28-C ) :   0.9858 
B( 28-C , 29-H ) :   0.9717 B( 28-C , 30-H ) :   0.9717 B( 28-C , 31-C ) :   0.9543 
B( 31-C , 32-H ) :   0.9731 B( 31-C , 33-H ) :   0.9731 B( 31-C , 37-H ) :   0.9677 
B( 34-C , 35-H ) :   0.9834 B( 38-C , 39-C ) :   1.4533 B( 38-C , 40-C ) :   0.1012 
B( 38-C , 43-C ) :   1.4515 B( 38-C , 44-H ) :   0.9656 B( 39-C , 40-C ) :   1.4785 
B( 39-C , 46-H ) :   0.9767 B( 40-C , 41-C ) :   1.3828 B( 40-C , 48-H ) :   0.9809 
B( 41-C , 42-C ) :   1.3804 B( 42-C , 43-C ) :   1.4782 B( 42-C , 45-H ) :   0.9821 
B( 43-C , 47-H ) :   0.9760 

-------
TIMINGS
-------

Total SCF time: 0 days 0 hours 1 min 19 sec 

Total time                  ....      79.471 sec
Sum of individual times     ....      75.380 sec  ( 94.9%)

Fock matrix formation       ....      67.475 sec  ( 84.9%)
  Split-RI-J                ....       5.258 sec  (  7.8% of F)
  Chain of spheres X        ....      45.375 sec  ( 67.2% of F)
  XC integration            ....      12.627 sec  ( 18.7% of F)
    Basis function eval.    ....       1.023 sec  (  8.1% of XC)
    Density eval.           ....       1.658 sec  ( 13.1% of XC)
    XC-Functional eval.     ....       0.251 sec  (  2.0% of XC)
    XC-Potential eval.      ....       0.812 sec  (  6.4% of XC)
Diagonalization             ....       1.793 sec  (  2.3%)
Density matrix formation    ....       0.143 sec  (  0.2%)
Population analysis         ....       0.688 sec  (  0.9%)
Initial guess               ....       0.270 sec  (  0.3%)
Orbital Transformation      ....       0.000 sec  (  0.0%)
Orbital Orthonormalization  ....       0.208 sec  (  0.3%)
DIIS solution               ....       1.195 sec  (  1.5%)
Grid generation             ....       3.816 sec  (  4.8%)

Maximum memory used throughout the entire SCF-calculation: 138.2 MB

-------------------------   --------------------
FINAL SINGLE POINT ENERGY      -928.973980872595
-------------------------   --------------------

                                *** OPTIMIZATION RUN DONE ***

                            ***************************************
                            *     ORCA property calculations      *
                            ***************************************

                                    ---------------------
                                    Active property flags
                                    ---------------------
   (+) Dipole Moment


------------------------------------------------------------------------------
                       ORCA ELECTRIC PROPERTIES CALCULATION
------------------------------------------------------------------------------

Dipole Moment Calculation                       ... on
Quadrupole Moment Calculation                   ... off
Polarizability Calculation                      ... off
GBWName                                         ... opt_EPRII.gbw
Electron density                                ... opt_EPRII.scfp
The origin for moment calculation is the CENTER OF MASS  = ( 3.215053, -0.122213 -0.000640)

-------------
DIPOLE MOMENT
-------------
                                X             Y             Z
Electronic contribution:     10.55746       2.03777      -0.00999
Nuclear contribution   :    -10.35096      -2.01389       0.01093
                        -----------------------------------------
Total Dipole Moment    :      0.20651       0.02388       0.00093
                        -----------------------------------------
Magnitude (a.u.)       :      0.20789
Magnitude (Debye)      :      0.52840



--------------------
Rotational spectrum 
--------------------
 
Rotational constants in cm-1:     0.006530     0.004261     0.002587 
Rotational constants in MHz :   195.769552   127.726625    77.554936 

 Dipole components along the rotational axes: 
x,y,z [a.u.] :     0.200896     0.053450     0.000625 
x,y,z [Debye]:     0.510638     0.135860     0.001589 

 

Timings for individual modules:

Sum of individual times         ...      839.984 sec (=  14.000 min)
GTO integral calculation        ...       19.240 sec (=   0.321 min)   2.3 %
SCF iterations                  ...      677.011 sec (=  11.284 min)  80.6 %
SCF Gradient evaluation         ...      141.771 sec (=   2.363 min)  16.9 %
Geometry relaxation             ...        1.962 sec (=   0.033 min)   0.2 %
                             ****ORCA TERMINATED NORMALLY****
TOTAL RUN TIME: 0 days 0 hours 14 minutes 20 seconds 48 msec
