
                                 *****************
                                 * O   R   C   A *
                                 *****************

                                            #,                                       
                                            ###                                      
                                            ####                                     
                                            #####                                    
                                            ######                                   
                                           ########,                                 
                                     ,,################,,,,,                         
                               ,,#################################,,                 
                          ,,##########################################,,             
                       ,#########################################, ''#####,          
                    ,#############################################,,   '####,        
                  ,##################################################,,,,####,       
                ,###########''''           ''''###############################       
              ,#####''   ,,,,##########,,,,          '''####'''          '####       
            ,##' ,,,,###########################,,,                        '##       
           ' ,,###''''                  '''############,,,                           
         ,,##''                                '''############,,,,        ,,,,,,###''
      ,#''                                            '''#######################'''  
     '                                                          ''''####''''         
             ,#######,   #######,   ,#######,      ##                                
            ,#'     '#,  ##    ##  ,#'     '#,    #''#        ######   ,####,        
            ##       ##  ##   ,#'  ##            #'  '#       #        #'  '#        
            ##       ##  #######   ##           ,######,      #####,   #    #        
            '#,     ,#'  ##    ##  '#,     ,#' ,#      #,         ##   #,  ,#        
             '#######'   ##     ##  '#######'  #'      '#     #####' # '####'        



                  #######################################################
                  #                        -***-                        #
                  #          Department of theory and spectroscopy      #
                  #    Directorship and core code : Frank Neese         #
                  #        Max Planck Institute fuer Kohlenforschung    #
                  #                Kaiser Wilhelm Platz 1               #
                  #                 D-45470 Muelheim/Ruhr               #
                  #                      Germany                        #
                  #                                                     #
                  #                  All rights reserved                #
                  #                        -***-                        #
                  #######################################################


                         Program Version 5.0.4 -  RELEASE  -


 With contributions from (in alphabetic order):
   Daniel Aravena         : Magnetic Suceptibility
   Michael Atanasov       : Ab Initio Ligand Field Theory (pilot matlab implementation)
   Alexander A. Auer      : GIAO ZORA, VPT2 properties, NMR spectrum
   Ute Becker             : Parallelization
   Giovanni Bistoni       : ED, misc. LED, open-shell LED, HFLD
   Martin Brehm           : Molecular dynamics
   Dmytro Bykov           : SCF Hessian
   Vijay G. Chilkuri      : MRCI spin determinant printing, contributions to CSF-ICE
   Dipayan Datta          : RHF DLPNO-CCSD density
   Achintya Kumar Dutta   : EOM-CC, STEOM-CC
   Dmitry Ganyushin       : Spin-Orbit,Spin-Spin,Magnetic field MRCI
   Miquel Garcia          : C-PCM and meta-GGA Hessian, CC/C-PCM, Gaussian charge scheme
   Yang Guo               : DLPNO-NEVPT2, F12-NEVPT2, CIM, IAO-localization
   Andreas Hansen         : Spin unrestricted coupled pair/coupled cluster methods
   Benjamin Helmich-Paris : MC-RPA, TRAH-SCF, COSX integrals
   Lee Huntington         : MR-EOM, pCC
   Robert Izsak           : Overlap fitted RIJCOSX, COSX-SCS-MP3, EOM
   Marcus Kettner         : VPT2
   Christian Kollmar      : KDIIS, OOCD, Brueckner-CCSD(T), CCSD density, CASPT2, CASPT2-K
   Simone Kossmann        : Meta GGA functionals, TD-DFT gradient, OOMP2, MP2 Hessian
   Martin Krupicka        : Initial AUTO-CI
   Lucas Lang             : DCDCAS
   Marvin Lechner         : AUTO-CI (C++ implementation), FIC-MRCC
   Dagmar Lenk            : GEPOL surface, SMD
   Dimitrios Liakos       : Extrapolation schemes; Compound Job, initial MDCI parallelization
   Dimitrios Manganas     : Further ROCIS development; embedding schemes
   Dimitrios Pantazis     : SARC Basis sets
   Anastasios Papadopoulos: AUTO-CI, single reference methods and gradients
   Taras Petrenko         : DFT Hessian,TD-DFT gradient, ASA, ECA, R-Raman, ABS, FL, XAS/XES, NRVS
   Peter Pinski           : DLPNO-MP2, DLPNO-MP2 Gradient
   Christoph Reimann      : Effective Core Potentials
   Marius Retegan         : Local ZFS, SOC
   Christoph Riplinger    : Optimizer, TS searches, QM/MM, DLPNO-CCSD(T), (RO)-DLPNO pert. Triples
   Tobias Risthaus        : Range-separated hybrids, TD-DFT gradient, RPA, STAB
   Michael Roemelt        : Original ROCIS implementation
   Masaaki Saitow         : Open-shell DLPNO-CCSD energy and density
   Barbara Sandhoefer     : DKH picture change effects
   Avijit Sen             : IP-ROCIS
   Kantharuban Sivalingam : CASSCF convergence, NEVPT2, FIC-MRCI
   Bernardo de Souza      : ESD, SOC TD-DFT
   Georgi Stoychev        : AutoAux, RI-MP2 NMR, DLPNO-MP2 response
   Willem Van den Heuvel  : Paramagnetic NMR
   Boris Wezisla          : Elementary symmetry handling
   Frank Wennmohs         : Technical directorship


 We gratefully acknowledge several colleagues who have allowed us to
 interface, adapt or use parts of their codes:
   Stefan Grimme, W. Hujo, H. Kruse, P. Pracht,  : VdW corrections, initial TS optimization,
                  C. Bannwarth, S. Ehlert          DFT functionals, gCP, sTDA/sTD-DF
   Ed Valeev, F. Pavosevic, A. Kumar             : LibInt (2-el integral package), F12 methods
   Garnet Chan, S. Sharma, J. Yang, R. Olivares  : DMRG
   Ulf Ekstrom                                   : XCFun DFT Library
   Mihaly Kallay                                 : mrcc  (arbitrary order and MRCC methods)
   Jiri Pittner, Ondrej Demel                    : Mk-CCSD
   Frank Weinhold                                : gennbo (NPA and NBO analysis)
   Christopher J. Cramer and Donald G. Truhlar   : smd solvation model
   Lars Goerigk                                  : TD-DFT with DH, B97 family of functionals
   V. Asgeirsson, H. Jonsson                     : NEB implementation
   FAccTs GmbH                                   : IRC, NEB, NEB-TS, DLPNO-Multilevel, CI-OPT
                                                   MM, QMMM, 2- and 3-layer-ONIOM, Crystal-QMMM,
                                                   LR-CPCM, SF, NACMEs, symmetry and pop. for TD-DFT,
                                                   nearIR, NL-DFT gradient (VV10), updates on ESD,
                                                   ML-optimized integration grids
   S Lehtola, MJT Oliveira, MAL Marques          : LibXC Library
   Liviu Ungur et al                             : ANISO software


 Your calculation uses the libint2 library for the computation of 2-el integrals
 For citations please refer to: http://libint.valeyev.net

 Your ORCA version has been built with support for libXC version: 5.1.0
 For citations please refer to: https://tddft.org/programs/libxc/

 This ORCA versions uses:
   CBLAS   interface :  Fast vector & matrix operations
   LAPACKE interface :  Fast linear algebra routines
   SCALAPACK package :  Parallel linear algebra routines
   Shared memory     :  Shared parallel matrices
   BLAS/LAPACK       :  OpenBLAS 0.3.15  USE64BITINT DYNAMIC_ARCH NO_AFFINITY SkylakeX SINGLE_THREADED
        Core in use  :  SkylakeX
   Copyright (c) 2011-2014, The OpenBLAS Project




***************************************
The coordinates will be read from file: model.xyz
***************************************


================================================================================

----- Orbital basis set information -----
Your calculation utilizes the basis: cc-pVDZ 
       H, B-Ne : Obtained from the ccRepo (grant-hill.group.shef.ac.uk/ccrepo) Feb. 2017
                 T. H. Dunning, Jr., J. Chem. Phys. 90, 1007 (1989)
            He : Obtained from the ccRepo (grant-hill.group.shef.ac.uk/ccrepo) Feb. 2017
                 D. E. Woon, T. H. Dunning, Jr., J. Chem. Phys. 100, 2975 (1994)
  Li-Be, Na-Mg : Obtained from the ccRepo (grant-hill.group.shef.ac.uk/ccrepo) Feb. 2017
                 B. P. Prascher, D. E. Woon, K. A. Peterson, T. H. Dunning, Jr., A. K. Wilson, Theor. Chem. Acc. 128, 69 (2011)
         Al-Ar : Obtained from the ccRepo (grant-hill.group.shef.ac.uk/ccrepo) Feb. 2017
                 D. E. Woon, T. H. Dunning, Jr., J. Chem. Phys. 98, 1358 (1993)
            Ca : Obtained from the Peterson Research Group Website (tyr0.chem.wsu.edu/~kipeters) Feb. 2017
                 J. Koput, K. A. Peterson, J. Phys. Chem. 106, 9595 (2002)
         Sc-Zn : Obtained from the ccRepo (grant-hill.group.shef.ac.uk/ccrepo) Feb. 2017
                 N. B. Balabanov, K. A. Peterson, J. Chem. Phys. 123, 064107 (2005)
                 N. B. Balabanov, K. A. Peterson, J. Chem. Phys. 125, 074110 (2006)
         Ga-Kr : Obtained from the ccRepo (grant-hill.group.shef.ac.uk/ccrepo) Feb. 2017
                 A. K. Wilson, D. E. Woon, K. A. Peterson, T. H. Dunning, Jr., J. Chem. Phys. 110, 7667 (1999)

----- AuxJ basis set information -----
Your calculation utilizes the auxiliary basis: def2/J
   F. Weigend, Phys. Chem. Chem. Phys. 8, 1057 (2006).

================================================================================
                                        WARNINGS
                       Please study these warnings very carefully!
================================================================================


WARNING: your system is open-shell and RHF/RKS was chosen
  ===> : WILL SWITCH to UHF/UKS


WARNING: Geometry Optimization
  ===> : Switching off AutoStart
         For restart on a previous wavefunction, please use MOREAD

INFO   : the flag for use of the SHARK integral package has been found!

================================================================================
                                       INPUT FILE
================================================================================
NAME = opt.inp
|  1> ! B3LYP cc-pVDZ OPT
|  2> %pal nprocs 16 end
|  3> *XYZFile 0 2 model.xyz
|  4> 
|  5>                          ****END OF INPUT****
================================================================================

                       *****************************
                       * Geometry Optimization Run *
                       *****************************

Geometry optimization settings:
Update method            Update   .... BFGS
Choice of coordinates    CoordSys .... Z-matrix Internals
Initial Hessian          InHess   .... Almoef's Model

Convergence Tolerances:
Energy Change            TolE     ....  5.0000e-06 Eh
Max. Gradient            TolMAXG  ....  3.0000e-04 Eh/bohr
RMS Gradient             TolRMSG  ....  1.0000e-04 Eh/bohr
Max. Displacement        TolMAXD  ....  4.0000e-03 bohr
RMS Displacement         TolRMSD  ....  2.0000e-03 bohr
Strict Convergence                ....  False
------------------------------------------------------------------------------
                        ORCA OPTIMIZATION COORDINATE SETUP
------------------------------------------------------------------------------

The optimization will be done in new redundant internal coordinates
Making redundant internal coordinates   ...  (new redundants) done
Evaluating the initial hessian          ...  (Almloef) done
Evaluating the coordinates              ...  done
Calculating the B-matrix                .... done
Calculating the G-matrix                .... done
Diagonalizing the G-matrix              .... done
Small eigenvalue found = 7.076e-04
Small eigenvalue found = 1.978e-03
Small eigenvalue found = 5.917e-03
Small eigenvalue found = 7.937e-03
Small eigenvalue found = 1.570e-02
Small eigenvalue found = 1.996e-02
Small eigenvalue found = 2.030e-02
Small eigenvalue found = 2.429e-02
Small eigenvalue found = 2.981e-02
Small eigenvalue found = 2.995e-02
The first mode is                       ....  111
The number of degrees of freedom        ....  141

    -----------------------------------------------------------------
                    Redundant Internal Coordinates


    -----------------------------------------------------------------
         Definition                    Initial Value    Approx d2E/dq
    -----------------------------------------------------------------
      1. B(C   1,C   0)                  1.2240         1.149629   
      2. B(C   3,C   1)                  1.4209         0.557777   
      3. B(C   4,C   3)                  1.4458         0.508914   
      4. B(C   5,C   4)                  1.4239         0.551570   
      5. B(C   6,C   5)                  1.3949         0.613628   
      6. B(C   6,C   2)                  1.4337         0.532222   
      7. B(C   7,C   6)                  1.4308         0.537870   
      8. B(C   8,C   7)                  1.3955         0.612222   
      9. B(C   8,C   3)                  1.4086         0.583589   
     10. B(H   9,C   5)                  1.0901         0.359965   
     11. B(H  10,C   8)                  1.0898         0.360368   
     12. B(C  11,C   4)                  1.4109         0.578617   
     13. B(H  12,C  11)                  1.0935         0.355461   
     14. B(C  13,C  11)                  1.4994         0.417950   
     15. B(H  14,C  13)                  1.1099         0.334769   
     16. B(H  15,C  13)                  1.1098         0.334787   
     17. B(C  16,C  13)                  1.5339         0.368319   
     18. B(H  17,C  16)                  1.1057         0.339889   
     19. B(H  18,C  16)                  1.1057         0.339882   
     20. B(C  19,C  16)                  1.5295         0.374283   
     21. B(H  20,C  19)                  1.1039         0.342141   
     22. B(H  21,C  19)                  1.1039         0.342144   
     23. B(C  22,C   7)                  1.5148         0.394992   
     24. B(H  23,C  22)                  1.1065         0.338868   
     25. B(H  24,C  22)                  1.1065         0.338885   
     26. B(C  25,C  22)                  1.5307         0.372656   
     27. B(H  26,C  25)                  1.1061         0.339458   
     28. B(H  27,C  25)                  1.1061         0.339455   
     29. B(C  28,C  25)                  1.5331         0.369342   
     30. B(H  29,C  28)                  1.1063         0.339227   
     31. B(H  30,C  28)                  1.1063         0.339226   
     32. B(C  31,C  28)                  1.5303         0.373200   
     33. B(H  32,C  31)                  1.1040         0.342058   
     34. B(H  33,C  31)                  1.1040         0.342058   
     35. B(C  34,C   2)                  1.2160         1.184167   
     36. B(H  35,C  34)                  1.0726         0.383909   
     37. B(H  36,C  19)                  1.1018         0.344837   
     38. B(H  37,C  31)                  1.1020         0.344616   
     39. B(C  39,C  38)                  1.3998         0.602811   
     40. B(C  40,C  39)                  1.3941         0.615453   
     41. B(C  41,C  40)                  1.4130         0.574113   
     42. B(C  41,C   0)                  1.4265         0.546459   
     43. B(C  42,C  41)                  1.4126         0.575106   
     44. B(C  43,C  42)                  1.3942         0.615138   
     45. B(C  43,C  38)                  1.3997         0.603020   
     46. B(H  44,C  38)                  1.0928         0.356437   
     47. B(H  45,C  42)                  1.0916         0.357948   
     48. B(H  46,C  39)                  1.0927         0.356488   
     49. B(H  47,C  43)                  1.0928         0.356476   
     50. B(H  48,C  40)                  1.0917         0.357875   
     51. L(C   1,C   0,C  41,C  42, 2) 179.9893         0.474644   
     52. L(C   1,C   0,C  41,C  42, 1) 179.8844         0.474644   
     53. L(C   0,C   1,C   3,C   8, 1) 178.9843         0.476438   
     54. L(C   0,C   1,C   3,C   8, 2) 179.7374         0.476438   
     55. L(C   6,C   2,C  34,C   5, 2) 179.8860         0.474924   
     56. L(C   6,C   2,C  34,C   5, 1) 179.7951         0.474924   
     57. A(C   1,C   3,C   8)          118.9647         0.421321   
     58. A(C   4,C   3,C   8)          119.8249         0.414496   
     59. A(C   1,C   3,C   4)          121.2104         0.411180   
     60. A(C   3,C   4,C  11)          121.8002         0.413866   
     61. A(C   5,C   4,C  11)          121.6858         0.419839   
     62. A(C   3,C   4,C   5)          116.5139         0.410365   
     63. A(C   4,C   5,H   9)          119.1842         0.345993   
     64. A(C   4,C   5,C   6)          122.6757         0.424267   
     65. A(C   6,C   5,H   9)          118.1400         0.352270   
     66. A(C   5,C   6,C   7)          120.4718         0.422364   
     67. A(C   2,C   6,C   7)          120.4305         0.411796   
     68. A(C   2,C   6,C   5)          119.0978         0.421568   
     69. A(C   8,C   7,C  22)          122.9155         0.399702   
     70. A(C   6,C   7,C  22)          119.5947         0.390728   
     71. A(C   6,C   7,C   8)          117.4898         0.422191   
     72. A(C   7,C   8,H  10)          119.6153         0.352200   
     73. A(C   3,C   8,H  10)          117.3608         0.349362   
     74. A(C   3,C   8,C   7)          123.0239         0.428400   
     75. A(C   4,C  11,H  12)          117.1833         0.348053   
     76. A(C   4,C  11,C  13)          124.9833         0.399705   
     77. A(H  12,C  11,C  13)          117.8335         0.329666   
     78. A(H  15,C  13,C  16)          109.1573         0.319727   
     79. A(H  14,C  13,C  16)          109.1556         0.319725   
     80. A(C  11,C  13,C  16)          113.4834         0.369510   
     81. A(H  14,C  13,H  15)          104.6332         0.284286   
     82. A(C  11,C  13,H  15)          110.0172         0.326424   
     83. A(C  11,C  13,H  14)          110.0140         0.326422   
     84. A(C  13,C  16,C  19)          113.1337         0.362590   
     85. A(H  17,C  16,H  18)          106.0590         0.285629   
     86. A(C  13,C  16,H  18)          108.9785         0.320518   
     87. A(C  13,C  16,H  17)          108.9772         0.320519   
     88. A(H  18,C  16,C  19)          109.7216         0.321361   
     89. A(H  17,C  16,C  19)          109.7217         0.321362   
     90. A(H  20,C  19,H  21)          107.3424         0.286219   
     91. A(C  16,C  19,H  21)          111.3045         0.321710   
     92. A(C  16,C  19,H  20)          111.3041         0.321710   
     93. A(H  21,C  19,H  36)          107.6260         0.286570   
     94. A(H  20,C  19,H  36)          107.6253         0.286570   
     95. A(C  16,C  19,H  36)          111.4343         0.322123   
     96. A(H  24,C  22,C  25)          109.2272         0.320978   
     97. A(H  23,C  22,C  25)          109.2199         0.320975   
     98. A(C   7,C  22,C  25)          116.9090         0.366680   
     99. A(C   7,C  22,H  24)          108.2146         0.324054   
    100. A(H  23,C  22,H  24)          104.3196         0.285365   
    101. A(C   7,C  22,H  23)          108.2125         0.324051   
    102. A(H  27,C  25,C  28)          109.0348         0.320597   
    103. A(H  26,C  25,C  28)          109.0408         0.320597   
    104. A(C  22,C  25,C  28)          112.6312         0.362492   
    105. A(H  26,C  25,H  27)          106.2258         0.285517   
    106. A(C  22,C  25,H  27)          109.8494         0.321066   
    107. A(C  22,C  25,H  26)          109.8503         0.321066   
    108. A(H  30,C  28,C  31)          109.5609         0.321107   
    109. A(H  29,C  28,C  31)          109.5598         0.321107   
    110. A(C  25,C  28,C  31)          113.1523         0.362583   
    111. A(H  29,C  28,H  30)          105.8696         0.285457   
    112. A(C  25,C  28,H  30)          109.2197         0.320562   
    113. A(C  25,C  28,H  29)          109.2188         0.320562   
    114. A(H  32,C  31,H  33)          107.3542         0.286197   
    115. A(C  28,C  31,H  33)          111.3068         0.321544   
    116. A(C  28,C  31,H  32)          111.3072         0.321544   
    117. A(H  33,C  31,H  37)          107.5814         0.286530   
    118. A(H  32,C  31,H  37)          107.5819         0.286530   
    119. A(C  28,C  31,H  37)          111.5001         0.321937   
    120. L(C   2,C  34,H  35, 2)       180.0840         0.398994   
    121. L(C   2,C  34,H  35, 1)       180.3023         0.398994   
    122. A(C  43,C  38,H  44)          120.1399         0.350649   
    123. A(C  39,C  38,H  44)          120.1962         0.350629   
    124. A(C  39,C  38,C  43)          119.6639         0.429729   
    125. A(C  40,C  39,H  46)          119.5820         0.351869   
    126. A(C  38,C  39,H  46)          120.0356         0.350637   
    127. A(C  38,C  39,C  40)          120.3824         0.431306   
    128. A(C  41,C  40,H  48)          119.1784         0.347992   
    129. A(C  39,C  40,H  48)          120.3800         0.352100   
    130. A(C  39,C  40,C  41)          120.4416         0.427548   
    131. A(C  40,C  41,C  42)          118.6811         0.422392   
    132. A(C   0,C  41,C  42)          120.6297         0.418688   
    133. A(C   0,C  41,C  40)          120.6892         0.418559   
    134. A(C  43,C  42,H  45)          120.4203         0.352082   
    135. A(C  41,C  42,H  45)          119.1285         0.348105   
    136. A(C  41,C  42,C  43)          120.4512         0.427641   
    137. A(C  42,C  43,H  47)          119.6234         0.351837   
    138. A(C  38,C  43,H  47)          119.9969         0.350656   
    139. A(C  38,C  43,C  42)          120.3797         0.431293   
    140. D(C  11,C   4,C   3,C   8)   -179.9862         0.017649   
    141. D(C   5,C   4,C   3,C   8)      0.0123         0.017649   
    142. D(C   5,C   4,C   3,C   1)   -179.9823         0.017649   
    143. D(C  11,C   4,C   3,C   1)      0.0191         0.017649   
    144. D(C   6,C   5,C   4,C   3)     -0.0079         0.020816   
    145. D(C   6,C   5,C   4,C  11)    179.9907         0.020816   
    146. D(H   9,C   5,C   4,C   3)    179.9965         0.020816   
    147. D(H   9,C   5,C   4,C  11)     -0.0049         0.020816   
    148. D(C   7,C   6,C   5,C   4)      0.0042         0.026023   
    149. D(C   2,C   6,C   5,H   9)      0.0015         0.026023   
    150. D(C   2,C   6,C   5,C   4)   -179.9941         0.026023   
    151. D(C   7,C   6,C   5,H   9)    179.9999         0.026023   
    152. D(C   8,C   7,C   6,C   5)     -0.0048         0.019763   
    153. D(C  22,C   7,C   6,C   2)     -0.0117         0.019763   
    154. D(C  22,C   7,C   6,C   5)    179.9899         0.019763   
    155. D(C   8,C   7,C   6,C   2)    179.9936         0.019763   
    156. D(H  10,C   8,C   7,C   6)   -179.9989         0.025897   
    157. D(H  10,C   8,C   7,C  22)      0.0065         0.025897   
    158. D(H  10,C   8,C   3,C   4)    179.9946         0.023412   
    159. D(C   7,C   8,C   3,C   4)     -0.0140         0.023412   
    160. D(C   3,C   8,C   7,C   6)      0.0098         0.025897   
    161. D(C   7,C   8,C   3,C   1)    179.9808         0.023412   
    162. D(H  10,C   8,C   3,C   1)     -0.0106         0.023412   
    163. D(C   3,C   8,C   7,C  22)   -179.9847         0.025897   
    164. D(C  13,C  11,C   4,C   5)      0.0048         0.022997   
    165. D(C  13,C  11,C   4,C   3)   -179.9967         0.022997   
    166. D(H  12,C  11,C   4,C   5)   -179.9814         0.022997   
    167. D(H  12,C  11,C   4,C   3)      0.0171         0.022997   
    168. D(H  15,C  13,C  11,C   4)     57.3112         0.012921   
    169. D(H  14,C  13,C  11,H  12)    122.5351         0.012921   
    170. D(H  14,C  13,C  11,C   4)    -57.4510         0.012921   
    171. D(C  16,C  13,C  11,H  12)     -0.0815         0.012921   
    172. D(C  16,C  13,C  11,C   4)    179.9324         0.012921   
    173. D(H  15,C  13,C  11,H  12)   -122.7027         0.012921   
    174. D(C  19,C  16,C  13,C  11)   -179.9938         0.010851   
    175. D(C  19,C  16,C  13,H  14)     56.9167         0.010851   
    176. D(H  18,C  16,C  13,H  15)   -179.2413         0.010851   
    177. D(H  18,C  16,C  13,H  14)    -65.4258         0.010851   
    178. D(H  18,C  16,C  13,C  11)     57.6637         0.010851   
    179. D(H  17,C  16,C  13,H  15)     65.4429         0.010851   
    180. D(H  17,C  16,C  13,H  14)    179.2584         0.010851   
    181. D(C  19,C  16,C  13,H  15)    -56.8988         0.010851   
    182. D(H  17,C  16,C  13,C  11)    -57.6520         0.010851   
    183. D(H  36,C  19,C  16,H  18)    -58.0714         0.011183   
    184. D(H  36,C  19,C  16,H  17)     58.0760         0.011183   
    185. D(H  21,C  19,C  16,H  18)     62.0782         0.011183   
    186. D(H  21,C  19,C  16,H  17)    178.2257         0.011183   
    187. D(H  36,C  19,C  16,C  13)   -179.9985         0.011183   
    188. D(H  21,C  19,C  16,C  13)    -59.8488         0.011183   
    189. D(H  20,C  19,C  16,H  18)   -178.2198         0.011183   
    190. D(H  20,C  19,C  16,H  17)    -62.0724         0.011183   
    191. D(H  20,C  19,C  16,C  13)     59.8531         0.011183   
    192. D(C  25,C  22,C   7,C   8)     -0.0445         0.011592   
    193. D(C  25,C  22,C   7,C   6)    179.9611         0.011592   
    194. D(H  24,C  22,C   7,C   8)   -123.8097         0.011592   
    195. D(H  24,C  22,C   7,C   6)     56.1959         0.011592   
    196. D(H  23,C  22,C   7,C   8)    123.7091         0.011592   
    197. D(H  23,C  22,C   7,C   6)    -56.2853         0.011592   
    198. D(H  27,C  25,C  22,H  23)    -64.9632         0.011092   
    199. D(H  27,C  25,C  22,C   7)     58.2747         0.011092   
    200. D(H  26,C  25,C  22,H  24)     65.0237         0.011092   
    201. D(H  26,C  25,C  22,H  23)    178.5390         0.011092   
    202. D(H  26,C  25,C  22,C   7)    -58.2231         0.011092   
    203. D(C  28,C  25,C  22,H  24)    -56.7316         0.011092   
    204. D(C  28,C  25,C  22,H  23)     56.7837         0.011092   
    205. D(C  28,C  25,C  22,C   7)   -179.9784         0.011092   
    206. D(H  27,C  25,C  22,H  24)   -178.4784         0.011092   
    207. D(C  31,C  28,C  25,H  27)    -57.7824         0.010907   
    208. D(C  31,C  28,C  25,C  22)   -179.9899         0.010907   
    209. D(H  30,C  28,C  25,H  27)    179.8937         0.010907   
    210. D(H  30,C  28,C  25,H  26)    -64.5267         0.010907   
    211. D(H  30,C  28,C  25,C  22)     57.6862         0.010907   
    212. D(H  29,C  28,C  25,H  27)     64.5395         0.010907   
    213. D(C  31,C  28,C  25,H  26)     57.7972         0.010907   
    214. D(H  29,C  28,C  25,H  26)   -179.8810         0.010907   
    215. D(H  29,C  28,C  25,C  22)    -57.6680         0.010907   
    216. D(H  37,C  31,C  28,H  30)    -57.8697         0.011123   
    217. D(H  37,C  31,C  28,H  29)     57.8655         0.011123   
    218. D(H  37,C  31,C  28,C  25)    179.9970         0.011123   
    219. D(H  33,C  31,C  28,H  30)     62.2695         0.011123   
    220. D(H  33,C  31,C  28,H  29)    178.0047         0.011123   
    221. D(H  33,C  31,C  28,C  25)    -59.8638         0.011123   
    222. D(H  32,C  31,C  28,H  30)   -178.0098         0.011123   
    223. D(H  32,C  31,C  28,H  29)    -62.2747         0.011123   
    224. D(H  32,C  31,C  28,C  25)     59.8568         0.011123   
    225. D(H  46,C  39,C  38,H  44)      0.0006         0.025063   
    226. D(H  46,C  39,C  38,C  43)    179.9987         0.025063   
    227. D(C  40,C  39,C  38,H  44)   -179.9935         0.025063   
    228. D(C  40,C  39,C  38,C  43)      0.0047         0.025063   
    229. D(H  48,C  40,C  39,H  46)     -0.0004         0.026188   
    230. D(H  48,C  40,C  39,C  38)    179.9936         0.026188   
    231. D(C  41,C  40,C  39,H  46)   -179.9925         0.026188   
    232. D(C  41,C  40,C  39,C  38)      0.0015         0.026188   
    233. D(C  42,C  41,C  40,H  48)   -179.9997         0.022624   
    234. D(C  42,C  41,C  40,C  39)     -0.0075         0.022624   
    235. D(C   0,C  41,C  40,H  48)      0.0008         0.022624   
    236. D(C   0,C  41,C  40,C  39)    179.9930         0.022624   
    237. D(C  42,C  41,C   3,C   8)      0.2236         0.001500   
    238. D(C  42,C  41,C   3,C   4)   -179.8827         0.001500   
    239. D(C  40,C  41,C   3,C   8)   -179.7229         0.001500   
    240. D(C  40,C  41,C   3,C   4)      0.1708         0.001500   
    241. D(H  45,C  42,C  41,C  40)   -179.9903         0.022706   
    242. D(H  45,C  42,C  41,C   0)      0.0092         0.022706   
    243. D(C  43,C  42,C  41,C  40)      0.0074         0.022706   
    244. D(C  43,C  42,C  41,C   0)   -179.9931         0.022706   
    245. D(H  47,C  43,C  42,H  45)     -0.0026         0.026159   
    246. D(H  47,C  43,C  42,C  41)    179.9998         0.026159   
    247. D(C  38,C  43,C  42,H  45)    179.9963         0.026159   
    248. D(C  38,C  43,C  42,C  41)     -0.0013         0.026159   
    249. D(H  47,C  43,C  38,H  44)     -0.0077         0.025082   
    250. D(H  47,C  43,C  38,C  39)    179.9941         0.025082   
    251. D(C  42,C  43,C  38,H  44)    179.9934         0.025082   
    252. D(C  42,C  43,C  38,C  39)     -0.0048         0.025082   
    -----------------------------------------------------------------

Number of atoms                         .... 49
Number of degrees of freedom            .... 252

         *************************************************************
         *                GEOMETRY OPTIMIZATION CYCLE   1            *
         *************************************************************
---------------------------------
CARTESIAN COORDINATES (ANGSTROEM)
---------------------------------
  C      4.056606   -0.083885    0.001340
  C      2.834131   -0.022584   -0.001991
  C     -2.844474    0.021416   -0.003157
  C      1.413990    0.023414   -0.002480
  C      0.705203    1.283606   -0.002002
  C     -0.716979    1.213022   -0.002166
  C     -1.410940    0.002984   -0.002915
  C     -0.702181   -1.239913   -0.003468
  C      0.692321   -1.186243   -0.003332
  H     -1.295057    2.137223   -0.001764
  H      1.266908   -2.112260   -0.003759
  C      1.385870    2.519460   -0.001435
  H      2.478940    2.487759   -0.001660
  C      0.724508    3.865171   -0.000848
  H      0.053448    3.958997   -0.879854
  H      0.051480    3.957323    0.876812
  C      1.717495    5.034226    0.001357
  H      2.375731    4.945234    0.885342
  H      2.377519    4.947080   -0.881486
  C      1.034517    6.402751    0.002096
  H      0.392365    6.530045    0.890965
  H      0.394079    6.531870   -0.887744
  C     -1.475825   -2.542283   -0.004047
  H     -2.154051   -2.542044    0.870279
  H     -2.155231   -2.540608   -0.877436
  C     -0.656113   -3.834963   -0.005550
  H      0.007182   -3.858056   -0.890364
  H      0.007541   -3.859866    0.878949
  C     -1.535229   -5.090971   -0.006562
  H     -2.201509   -5.069825    0.876288
  H     -2.201758   -5.068247   -0.889184
  C     -0.727517   -6.390715   -0.007820
  H     -0.076985   -6.459617    0.881483
  H     -0.077300   -6.458082   -0.897471
  C     -4.060267    0.041397   -0.004577
  H     -5.132582    0.064681   -0.007401
  H      1.772383    7.220977    0.003655
  H     -1.385175   -7.274915   -0.008473
  C      8.295215   -0.306468    0.012726
  C      7.656499    0.939059    0.015688
  C      6.264623    1.017702    0.011911
  C      5.481131   -0.158199    0.005080
  C      6.136523   -1.409508    0.002014
  C      7.529084   -1.477808    0.005831
  H      9.386448   -0.364569    0.015808
  H      5.538350   -2.322645   -0.003424
  H      8.248688    1.857412    0.021089
  H      8.022056   -2.453043    0.003392
  H      5.766520    1.989128    0.014327

----------------------------
CARTESIAN COORDINATES (A.U.)
----------------------------
  NO LB      ZA    FRAG     MASS         X           Y           Z
   0 C     6.0000    0    12.011    7.665873   -0.158520    0.002533
   1 C     6.0000    0    12.011    5.355732   -0.042678   -0.003763
   2 C     6.0000    0    12.011   -5.375278    0.040470   -0.005966
   3 C     6.0000    0    12.011    2.672053    0.044246   -0.004686
   4 C     6.0000    0    12.011    1.332641    2.425664   -0.003784
   5 C     6.0000    0    12.011   -1.354894    2.292279   -0.004094
   6 C     6.0000    0    12.011   -2.666290    0.005639   -0.005508
   7 C     6.0000    0    12.011   -1.326930   -2.343095   -0.006554
   8 C     6.0000    0    12.011    1.308297   -2.241674   -0.006297
   9 H     1.0000    0     1.008   -2.447303    4.038765   -0.003333
  10 H     1.0000    0     1.008    2.394109   -3.991592   -0.007103
  11 C     6.0000    0    12.011    2.618916    4.761090   -0.002712
  12 H     1.0000    0     1.008    4.684518    4.701183   -0.003137
  13 C     6.0000    0    12.011    1.369122    7.304115   -0.001602
  14 H     1.0000    0     1.008    0.101002    7.481420   -1.662684
  15 H     1.0000    0     1.008    0.097283    7.478257    1.656935
  16 C     6.0000    0    12.011    3.245595    9.513308    0.002564
  17 H     1.0000    0     1.008    4.489481    9.345137    1.673053
  18 H     1.0000    0     1.008    4.492859    9.348627   -1.665767
  19 C     6.0000    0    12.011    1.954954   12.099447    0.003961
  20 H     1.0000    0     1.008    0.741462   12.339997    1.683680
  21 H     1.0000    0     1.008    0.744701   12.343446   -1.677592
  22 C     6.0000    0    12.011   -2.788905   -4.804220   -0.007647
  23 H     1.0000    0     1.008   -4.070566   -4.803767    1.644589
  24 H     1.0000    0     1.008   -4.072797   -4.801054   -1.658115
  25 C     6.0000    0    12.011   -1.239873   -7.247030   -0.010487
  26 H     1.0000    0     1.008    0.013572   -7.290668   -1.682544
  27 H     1.0000    0     1.008    0.014250   -7.294090    1.660973
  28 C     6.0000    0    12.011   -2.901162   -9.620541   -0.012400
  29 H     1.0000    0     1.008   -4.160249   -9.580581    1.655944
  30 H     1.0000    0     1.008   -4.160720   -9.577599   -1.680314
  31 C     6.0000    0    12.011   -1.374807  -12.076702   -0.014778
  32 H     1.0000    0     1.008   -0.145481  -12.206907    1.665761
  33 H     1.0000    0     1.008   -0.146075  -12.204007   -1.695974
  34 C     6.0000    0    12.011   -7.672792    0.078230   -0.008650
  35 H     1.0000    0     1.008   -9.699175    0.122228   -0.013986
  36 H     1.0000    0     1.008    3.349318   13.645668    0.006907
  37 H     1.0000    0     1.008   -2.617602  -13.747598   -0.016012
  38 C     6.0000    0    12.011   15.675684   -0.579141    0.024048
  39 C     6.0000    0    12.011   14.468686    1.774564    0.029646
  40 C     6.0000    0    12.011   11.838421    1.923179    0.022509
  41 C     6.0000    0    12.011   10.357836   -0.298954    0.009600
  42 C     6.0000    0    12.011   11.596347   -2.663585    0.003806
  43 C     6.0000    0    12.011   14.227908   -2.792652    0.011019
  44 H     1.0000    0     1.008   17.737815   -0.688935    0.029874
  45 H     1.0000    0     1.008   10.465964   -4.389164   -0.006470
  46 H     1.0000    0     1.008   15.587762    3.510000    0.039853
  47 H     1.0000    0     1.008   15.159488   -4.635579    0.006411
  48 H     1.0000    0     1.008   10.897143    3.758907    0.027073

--------------------------------
INTERNAL COORDINATES (ANGSTROEM)
--------------------------------
 C      0   0   0     0.000000000000     0.00000000     0.00000000
 C      1   0   0     1.224014613976     0.00000000     0.00000000
 C      2   1   0     5.678776470693   177.56899402     0.00000000
 C      2   1   3     1.420886631210   178.97539702     4.24314948
 C      4   2   1     1.445843113904   121.21043402   172.32326937
 C      5   4   2     1.423932776411   116.51393976   180.01767613
 C      6   5   4     1.394909859363   122.67574847     0.00000000
 C      7   6   5     1.430779726252   120.47175371     0.00000000
 C      8   7   6     1.395534429669   117.48977866     0.00000000
 H      6   5   4     1.090101793235   119.18421803   179.99652552
 H      9   8   7     1.089797225983   119.61525027   180.00105392
 C      5   4   2     1.410901514349   121.80022433     0.00000000
 H     12   5   4     1.093529379662   117.18325012     0.00000000
 C     12   5   4     1.499445862750   124.98325303   180.00330981
 H     14  12   5     1.109854949916   110.01397975   302.54900427
 H     14  12   5     1.109840723452   110.01721335    57.31118191
 C     14  12   5     1.533856691401   113.48342551   179.93237094
 H     17  14  12     1.105723347927   108.97719239   302.34797749
 H     17  14  12     1.105729113157   108.97848661    57.66369983
 C     17  14  12     1.529484095736   113.13369231   180.00624400
 H     20  17  14     1.103925641900   111.30405236    59.85309648
 H     20  17  14     1.103923724823   111.30450441   300.15115483
 C      8   7   6     1.514824845168   119.59470825   179.98993116
 H     23   8   7     1.106542327925   108.21247041   303.71472306
 H     23   8   7     1.106528685301   108.21462890    56.19587519
 C     23   8   7     1.530670321363   116.90900240   179.96108544
 H     26  23   8     1.106069285530   109.85033598   301.77685117
 H     26  23   8     1.106071589144   109.84939284    58.27468580
 C     26  23   8     1.533102161341   112.63118884   180.02155019
 H     29  26  23     1.106254573733   109.21882408   302.33200339
 H     29  26  23     1.106254962309   109.21967891    57.68622773
 C     29  26  23     1.530273136452   113.15228274   180.01011572
 H     32  29  26     1.103991989083   111.30719829    59.85676997
 H     32  29  26     1.103992191457   111.30682354   300.13616740
 C      3   2   1     1.215957169687   179.49933853   182.92258216
 H     35   3   7     1.072572125377   179.68625511   359.91649109
 H     20  17  14     1.101789551520   111.43428296   180.00151041
 H     32  29  26     1.101964020035   111.50009466   179.99696145
 C      1   2   4     4.244464560812   179.86463275     8.59703028
 C     39   1   2     1.399751273128    59.84545599   179.27325731
 C     40  39   1     1.394101425449   120.38238146     0.00000000
 C     41  40  39     1.413029003624   120.44161657     0.00000000
 C     42  41  40     1.412558544888   118.68114145     0.00000000
 C     43  42  41     1.394241026571   120.45123676     0.00000000
 H     39   1   2     1.092783080324   179.95754768   348.26639574
 H     43  42  41     1.091631701642   119.12847721   180.00973055
 H     40  39   1     1.092743859819   120.03564094   179.99118878
 H     44  43  42     1.092753401909   119.62338734   179.99978697
 H     41  40  39     1.091686785971   120.37997194   179.99363069

---------------------------
INTERNAL COORDINATES (A.U.)
---------------------------
 C      0   0   0     0.000000000000     0.00000000     0.00000000
 C      1   0   0     2.313052404333     0.00000000     0.00000000
 C      2   1   0    10.731332305366   177.56899402     0.00000000
 C      2   1   3     2.685086600336   178.97539702     4.24314948
 C      4   2   1     2.732247517894   121.21043402   172.32326937
 C      5   4   2     2.690842980530   116.51393976   180.01767613
 C      6   5   4     2.635997615703   122.67574847     0.00000000
 C      7   6   5     2.703781840584   120.47175371     0.00000000
 C      8   7   6     2.637177882532   117.48977866     0.00000000
 H      6   5   4     2.059993847310   119.18421803   179.99652552
 H      9   8   7     2.059418298615   119.61525027   180.00105392
 C      5   4   2     2.666217464055   121.80022433     0.00000000
 H     12   5   4     2.066471046958   117.18325012     0.00000000
 C     12   5   4     2.833542033238   124.98325303   180.00330981
 H     14  12   5     2.097321903718   110.01397975   302.54900427
 H     14  12   5     2.097295019598   110.01721335    57.31118191
 C     14  12   5     2.898569075430   113.48342551   179.93237094
 H     17  14  12     2.089514307465   108.97719239   302.34797749
 H     17  14  12     2.089525202171   108.97848661    57.66369983
 C     17  14  12     2.890306067128   113.13369231   180.00624400
 H     20  17  14     2.086117135404   111.30405236    59.85309648
 H     20  17  14     2.086113512653   111.30450441   300.15115483
 C      8   7   6     2.862604098228   119.59470825   179.98993116
 H     23   8   7     2.091061955369   108.21247041   303.71472306
 H     23   8   7     2.091036174546   108.21462890    56.19587519
 C     23   8   7     2.892547708698   116.90900240   179.96108544
 H     26  23   8     2.090168034794   109.85033598   301.77685117
 H     26  23   8     2.090172387994   109.84939284    58.27468580
 C     26  23   8     2.897143220258   112.63118884   180.02155019
 H     29  26  23     2.090518178754   109.21882408   302.33200339
 H     29  26  23     2.090518913055   109.21967891    57.68622773
 C     29  26  23     2.891797137990   113.15228274   180.01011572
 H     32  29  26     2.086242513409   111.30719829    59.85676997
 H     32  29  26     2.086242895841   111.30682354   300.13616740
 C      3   2   1     2.297826041286   179.49933853   182.92258216
 H     35   3   7     2.026867575841   179.68625511   359.91649109
 H     20  17  14     2.082080509588   111.43428296   180.00151041
 H     32  29  26     2.082410207302   111.50009466   179.99696145
 C      1   2   4     8.020875605069   179.86463275     8.59703028
 C     39   1   2     2.645146561819    59.84545599   179.27325731
 C     40  39   1     2.634469897009   120.38238146     0.00000000
 C     41  40  39     2.670237836136   120.44161657     0.00000000
 C     42  41  40     2.669348797968   118.68114145     0.00000000
 C     43  42  41     2.634733704896   120.45123676     0.00000000
 H     39   1   2     2.065060745594   179.95754768   348.26639574
 H     43  42  41     2.062884955211   119.12847721   180.00973055
 H     40  39   1     2.064986629582   120.03564094   179.99118878
 H     44  43  42     2.065004661518   119.62338734   179.99978697
 H     41  40  39     2.062989049506   120.37997194   179.99363069

---------------------
BASIS SET INFORMATION
---------------------
There are 2 groups of distinct atoms

 Group   1 Type C   : 17s4p1d contracted to 3s2p1d pattern {881/31/1}
 Group   2 Type H   : 4s1p contracted to 2s1p pattern {31/1}

Atom   0C    basis set group =>   1
Atom   1C    basis set group =>   1
Atom   2C    basis set group =>   1
Atom   3C    basis set group =>   1
Atom   4C    basis set group =>   1
Atom   5C    basis set group =>   1
Atom   6C    basis set group =>   1
Atom   7C    basis set group =>   1
Atom   8C    basis set group =>   1
Atom   9H    basis set group =>   2
Atom  10H    basis set group =>   2
Atom  11C    basis set group =>   1
Atom  12H    basis set group =>   2
Atom  13C    basis set group =>   1
Atom  14H    basis set group =>   2
Atom  15H    basis set group =>   2
Atom  16C    basis set group =>   1
Atom  17H    basis set group =>   2
Atom  18H    basis set group =>   2
Atom  19C    basis set group =>   1
Atom  20H    basis set group =>   2
Atom  21H    basis set group =>   2
Atom  22C    basis set group =>   1
Atom  23H    basis set group =>   2
Atom  24H    basis set group =>   2
Atom  25C    basis set group =>   1
Atom  26H    basis set group =>   2
Atom  27H    basis set group =>   2
Atom  28C    basis set group =>   1
Atom  29H    basis set group =>   2
Atom  30H    basis set group =>   2
Atom  31C    basis set group =>   1
Atom  32H    basis set group =>   2
Atom  33H    basis set group =>   2
Atom  34C    basis set group =>   1
Atom  35H    basis set group =>   2
Atom  36H    basis set group =>   2
Atom  37H    basis set group =>   2
Atom  38C    basis set group =>   1
Atom  39C    basis set group =>   1
Atom  40C    basis set group =>   1
Atom  41C    basis set group =>   1
Atom  42C    basis set group =>   1
Atom  43C    basis set group =>   1
Atom  44H    basis set group =>   2
Atom  45H    basis set group =>   2
Atom  46H    basis set group =>   2
Atom  47H    basis set group =>   2
Atom  48H    basis set group =>   2
---------------------------------
AUXILIARY/J BASIS SET INFORMATION
---------------------------------
There are 2 groups of distinct atoms

 Group   1 Type C   : 12s5p4d2f1g contracted to 6s4p3d1f1g pattern {711111/2111/211/2/1}
 Group   2 Type H   : 5s2p1d contracted to 3s1p1d pattern {311/2/1}

Atom   0C    basis set group =>   1
Atom   1C    basis set group =>   1
Atom   2C    basis set group =>   1
Atom   3C    basis set group =>   1
Atom   4C    basis set group =>   1
Atom   5C    basis set group =>   1
Atom   6C    basis set group =>   1
Atom   7C    basis set group =>   1
Atom   8C    basis set group =>   1
Atom   9H    basis set group =>   2
Atom  10H    basis set group =>   2
Atom  11C    basis set group =>   1
Atom  12H    basis set group =>   2
Atom  13C    basis set group =>   1
Atom  14H    basis set group =>   2
Atom  15H    basis set group =>   2
Atom  16C    basis set group =>   1
Atom  17H    basis set group =>   2
Atom  18H    basis set group =>   2
Atom  19C    basis set group =>   1
Atom  20H    basis set group =>   2
Atom  21H    basis set group =>   2
Atom  22C    basis set group =>   1
Atom  23H    basis set group =>   2
Atom  24H    basis set group =>   2
Atom  25C    basis set group =>   1
Atom  26H    basis set group =>   2
Atom  27H    basis set group =>   2
Atom  28C    basis set group =>   1
Atom  29H    basis set group =>   2
Atom  30H    basis set group =>   2
Atom  31C    basis set group =>   1
Atom  32H    basis set group =>   2
Atom  33H    basis set group =>   2
Atom  34C    basis set group =>   1
Atom  35H    basis set group =>   2
Atom  36H    basis set group =>   2
Atom  37H    basis set group =>   2
Atom  38C    basis set group =>   1
Atom  39C    basis set group =>   1
Atom  40C    basis set group =>   1
Atom  41C    basis set group =>   1
Atom  42C    basis set group =>   1
Atom  43C    basis set group =>   1
Atom  44H    basis set group =>   2
Atom  45H    basis set group =>   2
Atom  46H    basis set group =>   2
Atom  47H    basis set group =>   2
Atom  48H    basis set group =>   2


           ************************************************************
           *        Program running with 16 parallel MPI-processes    *
           *              working on a common directory               *
           ************************************************************
------------------------------------------------------------------------------
                           ORCA GTO INTEGRAL CALCULATION
                           -- RI-GTO INTEGRALS CHOSEN --
------------------------------------------------------------------------------
------------------------------------------------------------------------------
                   ___                                                        
                  /   \      - P O W E R E D   B Y -                         
                 /     \                                                     
                 |  |  |   _    _      __       _____    __    __             
                 |  |  |  | |  | |    /  \     |  _  \  |  |  /  |          
                  \  \/   | |  | |   /    \    | | | |  |  | /  /          
                 / \  \   | |__| |  /  /\  \   | |_| |  |  |/  /          
                |  |  |   |  __  | /  /__\  \  |    /   |      \           
                |  |  |   | |  | | |   __   |  |    \   |  |\   \          
                \     /   | |  | | |  |  |  |  | |\  \  |  | \   \       
                 \___/    |_|  |_| |__|  |__|  |_| \__\ |__|  \__/        
                                                                              
                      - O R C A' S   B I G   F R I E N D -                    
                                      &                                       
                       - I N T E G R A L  F E E D E R -                       
                                                                              
 v1 FN, 2020, v2 2021                                                         
------------------------------------------------------------------------------


Reading SHARK input file opt.SHARKINP.tmp ... ok
----------------------
SHARK INTEGRAL PACKAGE
----------------------

Number of atoms                             ...     49
Number of basis functions                   ...    605
Number of shells                            ...    363
Maximum angular momentum                    ...      2
Integral batch strategy                     ... SHARK/LIBINT Hybrid
RI-J (if used) integral strategy            ... SPLIT-RIJ (Revised 2003 algorithm where possible)
Printlevel                                  ...      1
Contraction scheme used                     ... PARTIAL GENERAL contraction
Coulomb Range Separation                    ... NOT USED
Exchange Range Separation                   ... NOT USED
Finite Nucleus Model                        ... NOT USED
Auxiliary Coulomb fitting basis             ... AVAILABLE
   # of basis functions in Aux-J            ...   1451
   # of shells in Aux-J                     ...    485
   Maximum angular momentum in Aux-J        ...      4
Auxiliary J/K fitting basis                 ... NOT available
Auxiliary Correlation fitting basis         ... NOT available
Auxiliary 'external' fitting basis          ... NOT available
Integral threshold                          ...     2.500000e-11
Primitive cut-off                           ...     2.500000e-12
Primitive pair pre-selection threshold      ...     2.500000e-12

Calculating pre-screening integrals         ... done (  0.0 sec) Dimension = 363
Calculating pre-screening integrals (ORCA)  ... done (  0.1 sec) Dimension = 219
Organizing shell pair data                  ... done (  0.2 sec)
Shell pair information
Total number of shell pairs                 ...     66066
Shell pairs after pre-screening             ...     26251
Total number of primitive shell pairs       ...    106638
Primitive shell pairs kept                  ...     35509
          la=0 lb=0:  11354 shell pairs
          la=1 lb=0:   9285 shell pairs
          la=1 lb=1:   1649 shell pairs
          la=2 lb=0:   2797 shell pairs
          la=2 lb=1:   1001 shell pairs
          la=2 lb=2:    165 shell pairs

Calculating one electron integrals          ... done (  0.0 sec)
Calculating RI/J V-Matrix + Cholesky decomp.... done (  0.2 sec)
Calculating Nuclear repulsion               ... done (  0.0 sec) ENN=   1724.282573614951 Eh

SHARK setup successfully completed in   0.9 seconds

Maximum memory used throughout the entire GTOINT-calculation: 37.7 MB


           ************************************************************
           *        Program running with 16 parallel MPI-processes    *
           *              working on a common directory               *
           ************************************************************
-------------------------------------------------------------------------------
                                 ORCA SCF
-------------------------------------------------------------------------------

------------
SCF SETTINGS
------------
Hamiltonian:
 Density Functional     Method          .... DFT(GTOs)
 Exchange Functional    Exchange        .... B88
   X-Alpha parameter    XAlpha          ....  0.666667
   Becke's b parameter  XBeta           ....  0.004200
 Correlation Functional Correlation     .... LYP
 LDA part of GGA corr.  LDAOpt          .... VWN-5
 Gradients option       PostSCFGGA      .... off
 Hybrid DFT is turned on
   Fraction HF Exchange ScalHFX         ....  0.200000
   Scaling of DF-GGA-X  ScalDFX         ....  0.720000
   Scaling of DF-GGA-C  ScalDFC         ....  0.810000
   Scaling of DF-LDA-C  ScalLDAC        ....  1.000000
   Perturbative correction              ....  0.000000
   Density functional embedding theory  .... OFF
   NL short-range parameter             ....  4.800000
 RI-approximation to the Coulomb term is turned on
   Number of AuxJ basis functions       .... 1451
   RIJ-COSX (HFX calculated with COS-X)).... on


General Settings:
 Integral files         IntName         .... opt
 Hartree-Fock type      HFTyp           .... UHF
 Total Charge           Charge          ....    0
 Multiplicity           Mult            ....    2
 Number of Electrons    NEL             ....  169
 Basis Dimension        Dim             ....  461
 Nuclear Repulsion      ENuc            ....   1724.2825736150 Eh

Convergence Acceleration:
 DIIS                   CNVDIIS         .... on
   Start iteration      DIISMaxIt       ....    12
   Startup error        DIISStart       ....  0.200000
   # of expansion vecs  DIISMaxEq       ....     5
   Bias factor          DIISBfac        ....   1.050
   Max. coefficient     DIISMaxC        ....  10.000
 Trust-Rad. Augm. Hess. CNVTRAH         .... auto
   Auto Start mean grad. ratio tolernc. ....  1.125000
   Auto Start start iteration           ....    20
   Auto Start num. interpolation iter.  ....    10
   Max. Number of Micro iterations      ....    16
   Max. Number of Macro iterations      .... Maxiter - #DIIS iter
   Number of Davidson start vectors     ....     2
   Converg. threshold I  (grad. norm)   ....   1.000e-05
   Converg. threshold II (energy diff.) ....   1.000e-08
   Grad. Scal. Fac. for Micro threshold ....   0.100
   Minimum threshold for Micro iter.    ....   0.010
   NR start threshold (gradient norm)   ....   0.001
   Initial trust radius                 ....   0.400
   Minimum AH scaling param. (alpha)    ....   1.000
   Maximum AH scaling param. (alpha)    .... 1000.000
   Orbital update algorithm             .... Taylor
   White noise on init. David. guess    .... on
   Maximum white noise                  ....   0.010
   Quad. conv. algorithm                .... NR
 SOSCF                  CNVSOSCF        .... off
 Level Shifting         CNVShift        .... on
   Level shift para.    LevelShift      ....    0.2500
   Turn off err/grad.   ShiftErr        ....    0.0010
 Zerner damping         CNVZerner       .... off
 Static damping         CNVDamp         .... on
   Fraction old density DampFac         ....    0.7000
   Max. Damping (<1)    DampMax         ....    0.9800
   Min. Damping (>=0)   DampMin         ....    0.0000
   Turn off err/grad.   DampErr         ....    0.1000
 Fernandez-Rico         CNVRico         .... off

SCF Procedure:
 Maximum # iterations   MaxIter         ....   125
 SCF integral mode      SCFMode         .... Direct
   Integral package                     .... SHARK and LIBINT hybrid scheme
 Reset frequency        DirectResetFreq ....    20
 Integral Threshold     Thresh          ....  2.500e-11 Eh
 Primitive CutOff       TCut            ....  2.500e-12 Eh

Convergence Tolerance:
 Convergence Check Mode ConvCheckMode   .... Total+1el-Energy
 Convergence forced     ConvForced      .... 0
 Energy Change          TolE            ....  1.000e-08 Eh
 1-El. energy change                    ....  1.000e-05 Eh
 DIIS Error             TolErr          ....  5.000e-07


Diagonalization of the overlap matrix:
Smallest eigenvalue                        ... 5.108e-05
Time for diagonalization                   ...    0.040 sec
Threshold for overlap eigenvalues          ... 1.000e-08
Number of eigenvalues below threshold      ... 0
Time for construction of square roots      ...    0.047 sec
Total time needed                          ...    0.088 sec

Time for model grid setup =    0.337 sec

------------------------------
INITIAL GUESS: MODEL POTENTIAL
------------------------------
Loading Hartree-Fock densities                     ... done
Calculating cut-offs                               ... done
Initializing the effective Hamiltonian             ... done
Setting up the integral package (SHARK)            ... done
Starting the Coulomb interaction                   ... done (   0.2 sec)
Reading the grid                                   ... done
Mapping shells                                     ... done
Starting the XC term evaluation                    ... done (   0.1 sec)
  promolecular density results
     # of electrons  =    168.989170996
     EX              =   -130.677448500
     EC              =     -5.564746829
     EX+EC           =   -136.242195329
Transforming the Hamiltonian                       ... done (   0.0 sec)
Diagonalizing the Hamiltonian                      ... done (   0.0 sec)
Back transforming the eigenvectors                 ... done (   0.0 sec)
Now organizing SCF variables                       ... done
                      ------------------
                      INITIAL GUESS DONE (   1.0 sec)
                      ------------------
-------------------
DFT GRID GENERATION
-------------------

General Integration Accuracy     IntAcc      ... 4.388
Radial Grid Type                 RadialGrid  ... OptM3 with GC (2021)
Angular Grid (max. ang.)         AngularGrid ... 4 (Lebedev-302)
Angular grid pruning method      GridPruning ... 4 (adaptive)
Weight generation scheme         WeightScheme... Becke
Basis function cutoff            BFCut       ... 1.0000e-11
Integration weight cutoff        WCut        ... 1.0000e-14
Angular grids for H and He will be reduced by one unit
Partially contracted basis set               ... off
Rotationally invariant grid construction     ... off

Total number of grid points                  ...   223175
Total number of batches                      ...     3508
Average number of points per batch           ...       63
Average number of grid points per atom       ...     4555
Time for grid setup =    1.318 sec

--------------------
COSX GRID GENERATION
--------------------

GRIDX 1
-------
General Integration Accuracy     IntAcc      ... 3.816
Radial Grid Type                 RadialGrid  ... OptM3 with GC (2021)
Angular Grid (max. ang.)         AngularGrid ... 1 (Lebedev-50)
Angular grid pruning method      GridPruning ... 4 (adaptive)
Weight generation scheme         WeightScheme... Becke
Basis function cutoff            BFCut       ... 1.0000e-11
Integration weight cutoff        WCut        ... 1.0000e-14
Angular grids for H and He will be reduced by one unit
Partially contracted basis set               ... on
Rotationally invariant grid construction     ... off

Total number of grid points                  ...    28438
Total number of batches                      ...      470
Average number of points per batch           ...       60
Average number of grid points per atom       ...      580
UseSFitting                                  ... on

GRIDX 2
-------
General Integration Accuracy     IntAcc      ... 4.020
Radial Grid Type                 RadialGrid  ... OptM3 with GC (2021)
Angular Grid (max. ang.)         AngularGrid ... 2 (Lebedev-110)
Angular grid pruning method      GridPruning ... 4 (adaptive)
Weight generation scheme         WeightScheme... Becke
Basis function cutoff            BFCut       ... 1.0000e-11
Integration weight cutoff        WCut        ... 1.0000e-14
Angular grids for H and He will be reduced by one unit
Partially contracted basis set               ... on
Rotationally invariant grid construction     ... off

Total number of grid points                  ...    60657
Total number of batches                      ...      973
Average number of points per batch           ...       62
Average number of grid points per atom       ...     1238
UseSFitting                                  ... on

GRIDX 3
-------
General Integration Accuracy     IntAcc      ... 4.338
Radial Grid Type                 RadialGrid  ... OptM3 with GC (2021)
Angular Grid (max. ang.)         AngularGrid ... 3 (Lebedev-194)
Angular grid pruning method      GridPruning ... 4 (adaptive)
Weight generation scheme         WeightScheme... Becke
Basis function cutoff            BFCut       ... 1.0000e-11
Integration weight cutoff        WCut        ... 1.0000e-14
Angular grids for H and He will be reduced by one unit
Partially contracted basis set               ... on
Rotationally invariant grid construction     ... off

Total number of grid points                  ...   132656
Total number of batches                      ...     2100
Average number of points per batch           ...       63
Average number of grid points per atom       ...     2707
UseSFitting                                  ... on

Time for X-Grid setup             =    2.304 sec

 re-compute Schwartz prescreening matrix in partically contracted basis (1) ...done (   0.103 sec)
--------------
SCF ITERATIONS
--------------
ITER       Energy         Delta-E        Max-DP      RMS-DP      [F,P]     Damp
               ***  Starting incremental Fock matrix formation  ***
  0   -928.3595707496   0.000000000000 0.07249536  0.00091819  0.0869736 0.7000
  1   -928.5976372170  -0.238066467328 0.06326557  0.00071604  0.0458108 0.7000
                               ***Turning on DIIS***
  2   -928.7058147521  -0.108177535155 0.13171203  0.00139712  0.0175273 0.0000
  3   -928.8597963830  -0.153981630866 0.02883019  0.00036841  0.0249069 0.0000
  4   -928.8987930202  -0.038996637232 0.01828081  0.00015759  0.0056582 0.0000
  5   -928.9012502571  -0.002457236933 0.00445813  0.00003853  0.0030267 0.0000
  6   -928.9016198534  -0.000369596296 0.00355480  0.00002381  0.0022910 0.0000
  7   -928.9017728797  -0.000153026223 0.00232630  0.00001596  0.0014308 0.0000
  8   -928.9018537910  -0.000080911361 0.00360496  0.00002835  0.0009613 0.0000
               *** Restarting incremental Fock matrix formation ***
                                   *** Resetting DIIS ***
  9   -928.9021839622  -0.000330171161 0.00111231  0.00001018  0.0010898 0.0000
 10   -928.9021870887  -0.000003126569 0.00049786  0.00000357  0.0012398 0.0000
 11   -928.9021953561  -0.000008267337 0.00068582  0.00000532  0.0004607 0.0000
 12   -928.9021998777  -0.000004521603 0.00057309  0.00000439  0.0001800 0.0000
 13   -928.9022017180  -0.000001840317 0.00031269  0.00000225  0.0001362 0.0000
 14   -928.9022023150  -0.000000596993 0.00011786  0.00000111  0.0000739 0.0000
 15   -928.9022024188  -0.000000103838 0.00007406  0.00000066  0.0000849 0.0000
 16   -928.9022024718  -0.000000053007 0.00003049  0.00000032  0.0000312 0.0000
 17   -928.9022024802  -0.000000008332 0.00004356  0.00000032  0.0000345 0.0000
 18   -928.9022025141  -0.000000033931 0.00001436  0.00000016  0.0000227 0.0000
 19   -928.9022025217  -0.000000007600 0.00001295  0.00000014  0.0000092 0.0000
 20   -928.9022025246  -0.000000002943 0.00000845  0.00000009  0.0000055 0.0000
 21   -928.9022025114   0.000000013209 0.00000748  0.00000006  0.0000063 0.0000
                 **** Energy Check signals convergence ****

               *****************************************************
               *                     SUCCESS                       *
               *           SCF CONVERGED AFTER  22 CYCLES          *
               *****************************************************

Old exchange energy                            =    -26.637994942 Eh
New exchange energy                            =    -26.638113226 Eh
Exchange energy change after final integration =     -0.000118284 Eh
Total energy after final integration           =   -928.902320805 Eh
Final COS-X integration done in                =     8.370 sec

----------------
TOTAL SCF ENERGY
----------------

Total Energy       :         -928.90232080 Eh          -25276.71719 eV

Components:
Nuclear Repulsion  :         1724.28257361 Eh           46920.11420 eV
Electronic Energy  :        -2653.18489442 Eh          -72196.83139 eV
One Electron Energy:        -4677.56600560 Eh         -127283.04196 eV
Two Electron Energy:         2024.38111118 Eh           55086.21056 eV
Max COSX asymmetry :            0.00000075 Eh               0.00002 eV

Virial components:
Potential Energy   :        -1851.36748306 Eh          -50378.27040 eV
Kinetic Energy     :          922.46516226 Eh           25101.55320 eV
Virial Ratio       :            2.00697821


DFT components:
N(Alpha)           :       85.000124681959 electrons
N(Beta)            :       84.000115613782 electrons
N(Total)           :      169.000240295742 electrons
E(X)               :     -105.658423078879 Eh       
E(C)               :       -6.575599293342 Eh       
E(XC)              :     -112.234022372220 Eh       
DFET-embed. en.    :        0.000000000000 Eh       

---------------
SCF CONVERGENCE
---------------

  Last Energy change         ...   -9.0209e-09  Tolerance :   1.0000e-08
  Last MAX-Density change    ...    0.0000e+00  Tolerance :   1.0000e-07
  Last RMS-Density change    ...    0.0000e+00  Tolerance :   5.0000e-09
  Last DIIS Error            ...    6.0758e-06  Tolerance :   5.0000e-07

             **** THE GBW FILE WAS UPDATED (opt.gbw) ****
             **** DENSITY opt.scfp WAS UPDATED ****
             **** ENERGY FILE WAS UPDATED (opt.en.tmp) ****
----------------------
UHF SPIN CONTAMINATION
----------------------

Warning: in a DFT calculation there is little theoretical justification to 
         calculate <S**2> as in Hartree-Fock theory. We will do it anyways
         but you should keep in mind that the values have only limited relevance

Expectation value of <S**2>     :     0.787568
Ideal value S*(S+1) for S=0.5   :     0.750000
Deviation                       :     0.037568

             **** THE GBW FILE WAS UPDATED (opt.gbw) ****
             **** DENSITY opt.scfp WAS UPDATED ****
----------------
ORBITAL ENERGIES
----------------
                 SPIN UP ORBITALS
  NO   OCC          E(Eh)            E(eV) 
   0   1.0000     -10.215414      -277.9755 
   1   1.0000     -10.214445      -277.9492 
   2   1.0000     -10.211682      -277.8740 
   3   1.0000     -10.202734      -277.6305 
   4   1.0000     -10.198372      -277.5118 
   5   1.0000     -10.196457      -277.4597 
   6   1.0000     -10.196180      -277.4522 
   7   1.0000     -10.195150      -277.4241 
   8   1.0000     -10.195127      -277.4235 
   9   1.0000     -10.194421      -277.4043 
  10   1.0000     -10.194253      -277.3997 
  11   1.0000     -10.192588      -277.3544 
  12   1.0000     -10.191564      -277.3266 
  13   1.0000     -10.189805      -277.2787 
  14   1.0000     -10.189206      -277.2624 
  15   1.0000     -10.188432      -277.2413 
  16   1.0000     -10.186761      -277.1959 
  17   1.0000     -10.186542      -277.1899 
  18   1.0000     -10.186004      -277.1753 
  19   1.0000     -10.184442      -277.1328 
  20   1.0000     -10.181598      -277.0554 
  21   1.0000     -10.181408      -277.0502 
  22   1.0000     -10.177405      -276.9413 
  23   1.0000     -10.175423      -276.8873 
  24   1.0000      -0.873927       -23.7808 
  25   1.0000      -0.862529       -23.4706 
  26   1.0000      -0.820111       -22.3163 
  27   1.0000      -0.799091       -21.7444 
  28   1.0000      -0.795942       -21.6587 
  29   1.0000      -0.778114       -21.1736 
  30   1.0000      -0.767794       -20.8927 
  31   1.0000      -0.750241       -20.4151 
  32   1.0000      -0.744630       -20.2624 
  33   1.0000      -0.730365       -19.8742 
  34   1.0000      -0.713583       -19.4176 
  35   1.0000      -0.697719       -18.9859 
  36   1.0000      -0.656825       -17.8731 
  37   1.0000      -0.643857       -17.5202 
  38   1.0000      -0.617981       -16.8161 
  39   1.0000      -0.612674       -16.6717 
  40   1.0000      -0.608105       -16.5474 
  41   1.0000      -0.592618       -16.1259 
  42   1.0000      -0.580256       -15.7896 
  43   1.0000      -0.562032       -15.2937 
  44   1.0000      -0.540764       -14.7149 
  45   1.0000      -0.529268       -14.4021 
  46   1.0000      -0.506758       -13.7896 
  47   1.0000      -0.491785       -13.3822 
  48   1.0000      -0.479886       -13.0584 
  49   1.0000      -0.476018       -12.9531 
  50   1.0000      -0.470375       -12.7996 
  51   1.0000      -0.462638       -12.5890 
  52   1.0000      -0.456868       -12.4320 
  53   1.0000      -0.435951       -11.8628 
  54   1.0000      -0.432309       -11.7637 
  55   1.0000      -0.429479       -11.6867 
  56   1.0000      -0.426240       -11.5986 
  57   1.0000      -0.423351       -11.5200 
  58   1.0000      -0.421580       -11.4718 
  59   1.0000      -0.411887       -11.2080 
  60   1.0000      -0.398659       -10.8481 
  61   1.0000      -0.398020       -10.8307 
  62   1.0000      -0.383888       -10.4461 
  63   1.0000      -0.378737       -10.3060 
  64   1.0000      -0.377050       -10.2601 
  65   1.0000      -0.365316        -9.9407 
  66   1.0000      -0.361042        -9.8245 
  67   1.0000      -0.356507        -9.7010 
  68   1.0000      -0.353625        -9.6226 
  69   1.0000      -0.349651        -9.5145 
  70   1.0000      -0.340453        -9.2642 
  71   1.0000      -0.332982        -9.0609 
  72   1.0000      -0.331452        -9.0193 
  73   1.0000      -0.331204        -9.0125 
  74   1.0000      -0.327518        -8.9122 
  75   1.0000      -0.324168        -8.8211 
  76   1.0000      -0.321205        -8.7404 
  77   1.0000      -0.299672        -8.1545 
  78   1.0000      -0.275107        -7.4860 
  79   1.0000      -0.273313        -7.4372 
  80   1.0000      -0.267418        -7.2768 
  81   1.0000      -0.258408        -7.0317 
  82   1.0000      -0.255356        -6.9486 
  83   1.0000      -0.216714        -5.8971 
  84   1.0000      -0.170867        -4.6495 
  85   0.0000      -0.056643        -1.5413 
  86   0.0000      -0.011586        -0.3153 
  87   0.0000      -0.009794        -0.2665 
  88   0.0000       0.013063         0.3555 
  89   0.0000       0.041626         1.1327 
  90   0.0000       0.050425         1.3721 
  91   0.0000       0.054685         1.4881 
  92   0.0000       0.062851         1.7103 
  93   0.0000       0.063846         1.7373 
  94   0.0000       0.070860         1.9282 
  95   0.0000       0.077658         2.1132 
  96   0.0000       0.084445         2.2979 
  97   0.0000       0.087200         2.3728 
  98   0.0000       0.092269         2.5108 
  99   0.0000       0.094121         2.5612 
 100   0.0000       0.095497         2.5986 
 101   0.0000       0.101480         2.7614 
 102   0.0000       0.103516         2.8168 
 103   0.0000       0.117699         3.2028 
 104   0.0000       0.119838         3.2609 
 105   0.0000       0.125620         3.4183 
 106   0.0000       0.130230         3.5437 
 107   0.0000       0.133920         3.6442 
 108   0.0000       0.144398         3.9293 
 109   0.0000       0.146187         3.9780 
 110   0.0000       0.149276         4.0620 
 111   0.0000       0.159451         4.3389 
 112   0.0000       0.159742         4.3468 
 113   0.0000       0.162329         4.4172 
 114   0.0000       0.165796         4.5115 
 115   0.0000       0.169081         4.6009 
 116   0.0000       0.170161         4.6303 
 117   0.0000       0.179525         4.8851 
 118   0.0000       0.184368         5.0169 
 119   0.0000       0.204760         5.5718 
 120   0.0000       0.212923         5.7939 
 121   0.0000       0.213663         5.8141 
 122   0.0000       0.216832         5.9003 
 123   0.0000       0.219066         5.9611 
 124   0.0000       0.226160         6.1541 
 125   0.0000       0.243923         6.6375 
 126   0.0000       0.247330         6.7302 
 127   0.0000       0.262801         7.1512 
 128   0.0000       0.279658         7.6099 
 129   0.0000       0.281367         7.6564 
 130   0.0000       0.291382         7.9289 
 131   0.0000       0.291760         7.9392 
 132   0.0000       0.310098         8.4382 
 133   0.0000       0.315961         8.5977 
 134   0.0000       0.320018         8.7081 
 135   0.0000       0.332989         9.0611 
 136   0.0000       0.342647         9.3239 
 137   0.0000       0.359479         9.7819 
 138   0.0000       0.368017        10.0142 
 139   0.0000       0.375588        10.2203 
 140   0.0000       0.397434        10.8147 
 141   0.0000       0.409823        11.1518 
 142   0.0000       0.411960        11.2100 
 143   0.0000       0.413007        11.2385 
 144   0.0000       0.419889        11.4258 
 145   0.0000       0.421290        11.4639 
 146   0.0000       0.430876        11.7247 
 147   0.0000       0.439569        11.9613 
 148   0.0000       0.440145        11.9770 
 149   0.0000       0.445212        12.1148 
 150   0.0000       0.450064        12.2469 
 151   0.0000       0.452393        12.3102 
 152   0.0000       0.464075        12.6281 
 153   0.0000       0.471829        12.8391 
 154   0.0000       0.473111        12.8740 
 155   0.0000       0.474460        12.9107 
 156   0.0000       0.478024        13.0077 
 157   0.0000       0.482390        13.1265 
 158   0.0000       0.489852        13.3296 
 159   0.0000       0.501225        13.6390 
 160   0.0000       0.503173        13.6920 
 161   0.0000       0.505988        13.7686 
 162   0.0000       0.508143        13.8273 
 163   0.0000       0.510491        13.8912 
 164   0.0000       0.514580        14.0024 
 165   0.0000       0.515404        14.0249 
 166   0.0000       0.515540        14.0286 
 167   0.0000       0.516838        14.0639 
 168   0.0000       0.526056        14.3147 
 169   0.0000       0.526161        14.3176 
 170   0.0000       0.536438        14.5972 
 171   0.0000       0.546280        14.8650 
 172   0.0000       0.558018        15.1844 
 173   0.0000       0.560566        15.2538 
 174   0.0000       0.573531        15.6066 
 175   0.0000       0.573617        15.6089 
 176   0.0000       0.587547        15.9880 
 177   0.0000       0.588952        16.0262 
 178   0.0000       0.593408        16.1475 
 179   0.0000       0.597795        16.2668 
 180   0.0000       0.606435        16.5019 
 181   0.0000       0.608621        16.5614 
 182   0.0000       0.618529        16.8310 
 183   0.0000       0.620502        16.8847 
 184   0.0000       0.626120        17.0376 
 185   0.0000       0.631561        17.1856 
 186   0.0000       0.638545        17.3757 
 187   0.0000       0.638701        17.3800 
 188   0.0000       0.642847        17.4927 
 189   0.0000       0.642890        17.4939 
 190   0.0000       0.648511        17.6469 
 191   0.0000       0.654441        17.8083 
 192   0.0000       0.655742        17.8436 
 193   0.0000       0.656037        17.8517 
 194   0.0000       0.660182        17.9645 
 195   0.0000       0.662168        18.0185 
 196   0.0000       0.665037        18.0966 
 197   0.0000       0.665680        18.1141 
 198   0.0000       0.671216        18.2647 
 199   0.0000       0.675221        18.3737 
 200   0.0000       0.678026        18.4500 
 201   0.0000       0.682606        18.5746 
 202   0.0000       0.683860        18.6088 
 203   0.0000       0.685448        18.6520 
 204   0.0000       0.689016        18.7491 
 205   0.0000       0.692014        18.8307 
 206   0.0000       0.694437        18.8966 
 207   0.0000       0.703417        19.1409 
 208   0.0000       0.707425        19.2500 
 209   0.0000       0.716055        19.4849 
 210   0.0000       0.719334        19.5741 
 211   0.0000       0.729213        19.8429 
 212   0.0000       0.729960        19.8632 
 213   0.0000       0.735744        20.0206 
 214   0.0000       0.739464        20.1218 
 215   0.0000       0.745550        20.2874 
 216   0.0000       0.750720        20.4281 
 217   0.0000       0.759006        20.6536 
 218   0.0000       0.767995        20.8982 
 219   0.0000       0.780390        21.2355 
 220   0.0000       0.784712        21.3531 
 221   0.0000       0.793706        21.5978 
 222   0.0000       0.811999        22.0956 
 223   0.0000       0.816752        22.2250 
 224   0.0000       0.833290        22.6750 
 225   0.0000       0.833764        22.6879 
 226   0.0000       0.842036        22.9130 
 227   0.0000       0.850890        23.1539 
 228   0.0000       0.866294        23.5731 
 229   0.0000       0.869614        23.6634 
 230   0.0000       0.882094        24.0030 
 231   0.0000       0.889804        24.2128 
 232   0.0000       0.900903        24.5148 
 233   0.0000       0.912323        24.8256 
 234   0.0000       0.915326        24.9073 
 235   0.0000       0.917013        24.9532 
 236   0.0000       0.928968        25.2785 
 237   0.0000       0.938099        25.5270 
 238   0.0000       0.953109        25.9354 
 239   0.0000       0.958768        26.0894 
 240   0.0000       0.975299        26.5392 
 241   0.0000       0.976190        26.5635 
 242   0.0000       0.981788        26.7158 
 243   0.0000       0.988761        26.9056 
 244   0.0000       0.994420        27.0595 
 245   0.0000       0.994714        27.0676 
 246   0.0000       1.002036        27.2668 
 247   0.0000       1.018721        27.7208 
 248   0.0000       1.026921        27.9439 
 249   0.0000       1.033048        28.1107 
 250   0.0000       1.040114        28.3029 
 251   0.0000       1.041329        28.3360 
 252   0.0000       1.041764        28.3478 
 253   0.0000       1.052248        28.6331 
 254   0.0000       1.059161        28.8212 
 255   0.0000       1.059380        28.8272 
 256   0.0000       1.071648        29.1610 
 257   0.0000       1.072633        29.1878 
 258   0.0000       1.092975        29.7414 
 259   0.0000       1.103043        30.0153 
 260   0.0000       1.116105        30.3708 
 261   0.0000       1.133689        30.8492 
 262   0.0000       1.152523        31.3618 
 263   0.0000       1.155083        31.4314 
 264   0.0000       1.171281        31.8722 
 265   0.0000       1.181671        32.1549 
 266   0.0000       1.196422        32.5563 
 267   0.0000       1.203343        32.7446 
 268   0.0000       1.207471        32.8570 
 269   0.0000       1.209949        32.9244 
 270   0.0000       1.217752        33.1367 
 271   0.0000       1.218373        33.1536 
 272   0.0000       1.222053        33.2537 
 273   0.0000       1.231706        33.5164 
 274   0.0000       1.234912        33.6037 
 275   0.0000       1.254927        34.1483 
 276   0.0000       1.279338        34.8126 
 277   0.0000       1.291363        35.1398 
 278   0.0000       1.296066        35.2677 
 279   0.0000       1.300710        35.3941 
 280   0.0000       1.315198        35.7883 
 281   0.0000       1.315916        35.8079 
 282   0.0000       1.332680        36.2641 
 283   0.0000       1.339781        36.4573 
 284   0.0000       1.340960        36.4894 
 285   0.0000       1.365403        37.1545 
 286   0.0000       1.372961        37.3602 
 287   0.0000       1.384497        37.6741 
 288   0.0000       1.389719        37.8162 
 289   0.0000       1.392319        37.8869 
 290   0.0000       1.408007        38.3138 
 291   0.0000       1.419618        38.6298 
 292   0.0000       1.421372        38.6775 
[...]
      px      :     0.001031
      py      :     0.004382
      dz2     :    -0.000080  d :    -0.007297
      dxz     :    -0.006464
      dyz     :     0.000048
      dx2y2   :    -0.000253
      dxy     :    -0.000548
  3 C s       :     0.005814  s :     0.005814
      pz      :     0.154554  p :     0.163428
      px      :     0.004187
      py      :     0.004686
      dz2     :    -0.000750  d :    -0.009249
      dxz     :    -0.002265
      dyz     :    -0.004261
      dx2y2   :    -0.000937
      dxy     :    -0.001035
  4 C s       :    -0.006613  s :    -0.006613
      pz      :    -0.089374  p :    -0.104687
      px      :    -0.006570
      py      :    -0.008743
      dz2     :     0.000514  d :     0.038818
      dxz     :     0.010372
      dyz     :     0.025065
      dx2y2   :     0.001353
      dxy     :     0.001515
  5 C s       :     0.005637  s :     0.005637
      pz      :     0.159169  p :     0.167661
      px      :     0.004533
      py      :     0.003959
      dz2     :    -0.000662  d :    -0.008104
      dxz     :    -0.004068
      dyz     :    -0.001725
      dx2y2   :    -0.000624
      dxy     :    -0.001024
  6 C s       :    -0.003694  s :    -0.003694
      pz      :    -0.066375  p :    -0.073835
      px      :    -0.002819
      py      :    -0.004642
      dz2     :     0.000354  d :     0.016431
      dxz     :     0.001652
      dyz     :     0.012857
      dx2y2   :     0.000614
      dxy     :     0.000954
  7 C s       :     0.006034  s :     0.006034
      pz      :     0.164094  p :     0.173015
      px      :     0.004436
      py      :     0.004484
      dz2     :    -0.000697  d :    -0.006356
      dxz     :    -0.003012
      dyz     :    -0.001496
      dx2y2   :    -0.000555
      dxy     :    -0.000596
  8 C s       :    -0.003847  s :    -0.003847
      pz      :    -0.070410  p :    -0.078295
      px      :    -0.004318
      py      :    -0.003567
      dz2     :     0.000326  d :     0.017008
      dxz     :     0.010730
      dyz     :     0.004602
      dx2y2   :     0.000691
      dxy     :     0.000659
  9 H s       :    -0.004836  s :    -0.004836
      pz      :     0.004919  p :     0.005706
      px      :     0.000288
      py      :     0.000499
 10 H s       :     0.002091  s :     0.002091
      pz      :    -0.002065  p :    -0.002548
      px      :    -0.000199
      py      :    -0.000283
 11 C s       :     0.017632  s :     0.017632
      pz      :     0.535602  p :     0.558363
      px      :     0.011498
      py      :     0.011263
      dz2     :    -0.002076  d :    -0.006381
      dxz     :    -0.000344
      dyz     :    -0.001763
      dx2y2   :    -0.001233
      dxy     :    -0.000964
 12 H s       :    -0.014921  s :    -0.014921
      pz      :     0.015886  p :     0.018284
      px      :     0.002219
      py      :     0.000179
 13 C s       :    -0.003392  s :    -0.003392
      pz      :    -0.003804  p :    -0.017553
      px      :    -0.005005
      py      :    -0.008744
      dz2     :     0.000405  d :     0.026320
      dxz     :     0.012430
      dyz     :     0.012035
      dx2y2   :     0.000633
      dxy     :     0.000817
 14 H s       :     0.024910  s :     0.024910
      pz      :    -0.000180  p :    -0.000584
      px      :    -0.000334
      py      :    -0.000070
 15 H s       :     0.024805  s :     0.024805
      pz      :    -0.000177  p :    -0.000584
      px      :    -0.000336
      py      :    -0.000071
 16 C s       :     0.000136  s :     0.000136
      pz      :     0.001036  p :     0.001522
      px      :     0.000315
      py      :     0.000172
      dz2     :    -0.000060  d :    -0.000504
      dxz     :     0.000153
      dyz     :    -0.000128
      dx2y2   :    -0.000395
      dxy     :    -0.000074
 17 H s       :     0.000133  s :     0.000133
      pz      :     0.000033  p :     0.000167
      px      :     0.000079
      py      :     0.000055
 18 H s       :     0.000127  s :     0.000127
      pz      :     0.000033  p :     0.000166
      px      :     0.000078
      py      :     0.000056
 19 C s       :    -0.000173  s :    -0.000173
      pz      :     0.000390  p :     0.000018
      px      :    -0.000062
      py      :    -0.000309
      dz2     :    -0.000004  d :     0.000112
      dxz     :     0.000014
      dyz     :     0.000113
      dx2y2   :     0.000008
      dxy     :    -0.000019
 20 H s       :     0.000208  s :     0.000208
      pz      :     0.000001  p :     0.000037
      px      :     0.000016
      py      :     0.000019
 21 H s       :     0.000208  s :     0.000208
      pz      :     0.000001  p :     0.000037
      px      :     0.000016
      py      :     0.000020
 22 C s       :    -0.001168  s :    -0.001168
      pz      :    -0.000283  p :    -0.005165
      px      :    -0.002167
      py      :    -0.002715
      dz2     :     0.000151  d :     0.008511
      dxz     :     0.004706
      dyz     :     0.003138
      dx2y2   :     0.000218
      dxy     :     0.000298
 23 H s       :     0.008057  s :     0.008057
      pz      :    -0.000076  p :    -0.000195
      px      :    -0.000145
      py      :     0.000026
 24 H s       :     0.008059  s :     0.008059
      pz      :    -0.000076  p :    -0.000195
      px      :    -0.000145
      py      :     0.000026
 25 C s       :     0.000036  s :     0.000036
      pz      :     0.000009  p :     0.000183
      px      :     0.000100
      py      :     0.000074
      dz2     :    -0.000015  d :    -0.000069
      dxz     :     0.000121
      dyz     :    -0.000025
      dx2y2   :    -0.000104
      dxy     :    -0.000047
 26 H s       :     0.000034  s :     0.000034
      pz      :     0.000007  p :     0.000019
      px      :     0.000009
      py      :     0.000002
 27 H s       :     0.000034  s :     0.000034
      pz      :     0.000007  p :     0.000019
      px      :     0.000009
      py      :     0.000002
 28 C s       :    -0.000047  s :    -0.000047
      pz      :     0.000174  p :     0.000064
      px      :    -0.000024
      py      :    -0.000086
      dz2     :    -0.000002  d :    -0.000001
      dxz     :    -0.000003
      dyz     :     0.000012
      dx2y2   :    -0.000000
      dxy     :    -0.000007
 29 H s       :     0.000069  s :     0.000069
      pz      :     0.000001  p :     0.000019
      px      :     0.000006
      py      :     0.000013
 30 H s       :     0.000069  s :     0.000069
      pz      :     0.000001  p :     0.000019
      px      :     0.000006
      py      :     0.000013
 31 C s       :    -0.000009  s :    -0.000009
      pz      :    -0.000001  p :    -0.000045
      px      :    -0.000013
      py      :    -0.000032
      dz2     :    -0.000000  d :     0.000017
      dxz     :     0.000012
      dyz     :     0.000007
      dx2y2   :    -0.000003
      dxy     :     0.000001
 32 H s       :     0.000017  s :     0.000017
      pz      :    -0.000000  p :    -0.000002
      px      :    -0.000000
      py      :    -0.000001
 33 H s       :     0.000017  s :     0.000017
      pz      :    -0.000000  p :    -0.000002
      px      :    -0.000000
      py      :    -0.000001
 34 C s       :    -0.001261  s :    -0.001261
      pz      :    -0.034290  p :    -0.040032
      px      :    -0.000528
      py      :    -0.005213
      dz2     :     0.000143  d :     0.001310
      dxz     :     0.000775
      dyz     :     0.000000
      dx2y2   :     0.000151
      dxy     :     0.000241
 35 H s       :     0.001281  s :     0.001281
      pz      :    -0.001006  p :    -0.001348
      px      :    -0.000201
      py      :    -0.000141
 36 H s       :    -0.000130  s :    -0.000130
      pz      :     0.000032  p :     0.000020
      px      :     0.000003
      py      :    -0.000015
 37 H s       :    -0.000004  s :    -0.000004
      pz      :    -0.000000  p :    -0.000003
      px      :    -0.000001
      py      :    -0.000002
 38 C s       :     0.000743  s :     0.000743
      pz      :     0.021275  p :     0.022321
      px      :     0.000484
      py      :     0.000562
      dz2     :    -0.000093  d :    -0.000778
      dxz     :    -0.000093
      dyz     :    -0.000449
      dx2y2   :    -0.000073
      dxy     :    -0.000071
 39 C s       :    -0.000457  s :    -0.000457
      pz      :    -0.008804  p :    -0.009733
      px      :    -0.000513
      py      :    -0.000416
      dz2     :     0.000044  d :     0.002002
      dxz     :     0.001245
      dyz     :     0.000550
      dx2y2   :     0.000084
      dxy     :     0.000081
 40 C s       :     0.000776  s :     0.000776
      pz      :     0.019427  p :     0.020577
      px      :     0.000599
      py      :     0.000552
      dz2     :    -0.000081  d :    -0.001057
      dxz     :    -0.000517
      dyz     :    -0.000236
      dx2y2   :    -0.000125
      dxy     :    -0.000098
 41 C s       :    -0.000945  s :    -0.000945
      pz      :    -0.012465  p :    -0.014771
      px      :    -0.001619
      py      :    -0.000687
      dz2     :     0.000083  d :     0.005078
      dxz     :     0.003854
      dyz     :     0.000427
      dx2y2   :     0.000255
      dxy     :     0.000459
 42 C s       :     0.000773  s :     0.000773
      pz      :     0.019478  p :     0.020637
      px      :     0.000567
      py      :     0.000592
      dz2     :    -0.000081  d :    -0.001055
      dxz     :    -0.000446
      dyz     :    -0.000305
      dx2y2   :    -0.000108
      dxy     :    -0.000115
 43 C s       :    -0.000456  s :    -0.000456
      pz      :    -0.008788  p :    -0.009717
      px      :    -0.000544
      py      :    -0.000385
      dz2     :     0.000044  d :     0.002005
      dxz     :     0.001424
      dyz     :     0.000372
      dx2y2   :     0.000080
      dxy     :     0.000086
 44 H s       :    -0.000675  s :    -0.000675
      pz      :     0.000655  p :     0.000759
      px      :     0.000093
      py      :     0.000012
 45 H s       :    -0.000614  s :    -0.000614
      pz      :     0.000530  p :     0.000633
      px      :     0.000035
      py      :     0.000068
 46 H s       :     0.000278  s :     0.000278
      pz      :    -0.000255  p :    -0.000312
      px      :    -0.000025
      py      :    -0.000033
 47 H s       :     0.000279  s :     0.000279
      pz      :    -0.000254  p :    -0.000311
      px      :    -0.000022
      py      :    -0.000035
 48 H s       :    -0.000609  s :    -0.000609
      pz      :     0.000529  p :     0.000631
      px      :     0.000025
      py      :     0.000077


                      *****************************
                      * MAYER POPULATION ANALYSIS *
                      *****************************

  NA   - Mulliken gross atomic population
  ZA   - Total nuclear charge
  QA   - Mulliken gross atomic charge
  VA   - Mayer's total valence
  BVA  - Mayer's bonded valence
  FA   - Mayer's free valence

  ATOM       NA         ZA         QA         VA         BVA        FA
  0 C      5.8535     6.0000     0.1465     2.6176     2.6117     0.0060
  1 C      5.7238     6.0000     0.2762     2.4743     2.4721     0.0022
  2 C      5.3727     6.0000     0.6273     2.8907     2.8903     0.0004
  3 C      6.1776     6.0000    -0.1776     3.7516     3.7174     0.0343
  4 C      5.9286     6.0000     0.0714     4.1372     4.1221     0.0151
  5 C      6.0100     6.0000    -0.0100     3.8594     3.8256     0.0339
  6 C      6.0233     6.0000    -0.0233     3.8134     3.8060     0.0074
  7 C      6.0762     6.0000    -0.0762     4.1282     4.0909     0.0374
  8 C      5.9921     6.0000     0.0079     3.9055     3.8974     0.0081
  9 H      1.0503     1.0000    -0.0503     1.0023     1.0022     0.0001
 10 H      1.0545     1.0000    -0.0545     1.0038     1.0037     0.0000
 11 C      6.1004     6.0000    -0.1004     3.9307     3.5692     0.3615
 12 H      1.0260     1.0000    -0.0260     1.0085     1.0073     0.0012
 13 C      5.9655     6.0000     0.0345     4.0098     4.0084     0.0014
 14 H      0.9705     1.0000     0.0295     0.9627     0.9616     0.0011
 15 H      0.9705     1.0000     0.0295     0.9627     0.9616     0.0011
 16 C      6.0390     6.0000    -0.0390     4.1316     4.1316     0.0000
 17 H      0.9878     1.0000     0.0122     0.9640     0.9640     0.0000
 18 H      0.9878     1.0000     0.0122     0.9640     0.9640     0.0000
 19 C      5.9933     6.0000     0.0067     4.0162     4.0162     0.0000
 20 H      0.9823     1.0000     0.0177     0.9775     0.9775     0.0000
 21 H      0.9823     1.0000     0.0177     0.9775     0.9775     0.0000
 22 C      5.9563     6.0000     0.0437     4.0293     4.0291     0.0002
 23 H      0.9682     1.0000     0.0318     0.9696     0.9695     0.0001
 24 H      0.9682     1.0000     0.0318     0.9696     0.9695     0.0001
 25 C      6.0358     6.0000    -0.0358     4.1150     4.1150     0.0000
 26 H      0.9836     1.0000     0.0164     0.9629     0.9629     0.0000
 27 H      0.9836     1.0000     0.0164     0.9629     0.9629     0.0000
 28 C      6.0237     6.0000    -0.0237     4.1171     4.1171     0.0000
 29 H      0.9940     1.0000     0.0060     0.9674     0.9674     0.0000
 30 H      0.9940     1.0000     0.0060     0.9674     0.9674     0.0000
 31 C      5.9962     6.0000     0.0038     4.0168     4.0168     0.0000
 32 H      0.9832     1.0000     0.0168     0.9773     0.9773     0.0000
 33 H      0.9832     1.0000     0.0168     0.9773     0.9773     0.0000
 34 C      6.6064     6.0000    -0.6064     3.3875     3.3860     0.0016
 35 H      1.0298     1.0000    -0.0298     1.0305     1.0305     0.0000
 36 H      0.9868     1.0000     0.0132     0.9733     0.9733     0.0000
 37 H      0.9874     1.0000     0.0126     0.9734     0.9734     0.0000
 38 C      5.9667     6.0000     0.0333     3.9978     3.9972     0.0006
 39 C      5.9595     6.0000     0.0405     3.9989     3.9988     0.0001
 40 C      5.9742     6.0000     0.0258     3.9939     3.9934     0.0005
 41 C      6.2583     6.0000    -0.2583     3.9298     3.9295     0.0003
 42 C      5.9690     6.0000     0.0310     3.9934     3.9929     0.0005
 43 C      5.9589     6.0000     0.0411     3.9989     3.9988     0.0001
 44 H      1.0279     1.0000    -0.0279     0.9687     0.9687     0.0000
 45 H      1.0412     1.0000    -0.0412     0.9838     0.9838     0.0000
 46 H      1.0282     1.0000    -0.0282     0.9685     0.9685     0.0000
 47 H      1.0278     1.0000    -0.0278     0.9683     0.9683     0.0000
 48 H      1.0394     1.0000    -0.0394     0.9812     0.9812     0.0000

  Mayer bond orders larger than 0.100000
B(  0-C ,  1-C ) :   1.7147 B(  0-C , 41-C ) :   0.9320 B(  1-C ,  3-C ) :   0.8772 
B(  1-C , 41-C ) :  -0.1817 B(  2-C ,  6-C ) :   0.9018 B(  2-C , 34-C ) :   2.1200 
B(  3-C ,  4-C ) :   1.2776 B(  3-C ,  8-C ) :   1.4024 B(  4-C ,  5-C ) :   1.2852 
B(  4-C , 11-C ) :   1.3832 B(  5-C ,  6-C ) :   1.4434 B(  5-C ,  9-H ) :   0.9178 
B(  6-C ,  7-C ) :   1.3360 B(  7-C ,  8-C ) :   1.4211 B(  7-C , 22-C ) :   1.0929 
B(  8-C , 10-H ) :   0.9214 B( 11-C , 12-H ) :   0.8994 B( 11-C , 13-C ) :   1.0839 
B( 13-C , 14-H ) :   0.9115 B( 13-C , 15-H ) :   0.9115 B( 13-C , 16-C ) :   1.0716 
B( 16-C , 17-H ) :   0.9438 B( 16-C , 18-H ) :   0.9437 B( 16-C , 19-C ) :   1.1066 
B( 19-C , 20-H ) :   0.9653 B( 19-C , 21-H ) :   0.9653 B( 19-C , 36-H ) :   0.9608 
B( 22-C , 23-H ) :   0.8964 B( 22-C , 24-H ) :   0.8964 B( 22-C , 25-C ) :   1.1040 
B( 25-C , 26-H ) :   0.9292 B( 25-C , 27-H ) :   0.9292 B( 25-C , 28-C ) :   1.0750 
B( 28-C , 29-H ) :   0.9410 B( 28-C , 30-H ) :   0.9410 B( 28-C , 31-C ) :   1.1060 
B( 31-C , 32-H ) :   0.9662 B( 31-C , 33-H ) :   0.9662 B( 31-C , 37-H ) :   0.9617 
B( 34-C , 35-H ) :   1.1191 B( 38-C , 39-C ) :   1.4427 B( 38-C , 43-C ) :   1.4425 
B( 38-C , 44-H ) :   0.9433 B( 39-C , 40-C ) :   1.4710 B( 39-C , 46-H ) :   0.9379 
B( 40-C , 41-C ) :   1.4369 B( 40-C , 48-H ) :   0.9406 B( 41-C , 42-C ) :   1.4390 
B( 42-C , 43-C ) :   1.4721 B( 42-C , 45-H ) :   0.9399 B( 43-C , 47-H ) :   0.9379 


-------
TIMINGS
-------

Total SCF time: 0 days 0 hours 1 min 6 sec 

Total time                  ....      66.825 sec
Sum of individual times     ....      63.504 sec  ( 95.0%)

Fock matrix formation       ....      57.169 sec  ( 85.6%)
  Split-RI-J                ....       4.419 sec  (  7.7% of F)
  Chain of spheres X        ....      37.485 sec  ( 65.6% of F)
  XC integration            ....      11.737 sec  ( 20.5% of F)
    Basis function eval.    ....       1.191 sec  ( 10.1% of XC)
    Density eval.           ....       1.306 sec  ( 11.1% of XC)
    XC-Functional eval.     ....       0.293 sec  (  2.5% of XC)
    XC-Potential eval.      ....       0.662 sec  (  5.6% of XC)
Diagonalization             ....       1.161 sec  (  1.7%)
Density matrix formation    ....       0.124 sec  (  0.2%)
Population analysis         ....       0.347 sec  (  0.5%)
Initial guess               ....       0.169 sec  (  0.3%)
Orbital Transformation      ....       0.000 sec  (  0.0%)
Orbital Orthonormalization  ....       0.127 sec  (  0.2%)
DIIS solution               ....       0.805 sec  (  1.2%)
Grid generation             ....       3.729 sec  (  5.6%)

Maximum memory used throughout the entire SCF-calculation: 121.8 MB

-------------------------   --------------------
FINAL SINGLE POINT ENERGY      -928.902320216432
-------------------------   --------------------

                                *** OPTIMIZATION RUN DONE ***

                            ***************************************
                            *     ORCA property calculations      *
                            ***************************************

                                    ---------------------
                                    Active property flags
                                    ---------------------
   (+) Dipole Moment


------------------------------------------------------------------------------
                       ORCA ELECTRIC PROPERTIES CALCULATION
------------------------------------------------------------------------------

Dipole Moment Calculation                       ... on
Quadrupole Moment Calculation                   ... off
Polarizability Calculation                      ... off
GBWName                                         ... opt.gbw
Electron density                                ... opt.scfp
The origin for moment calculation is the CENTER OF MASS  = ( 3.216802, -0.122864 -0.000062)

-------------
DIPOLE MOMENT
-------------
                                X             Y             Z
Electronic contribution:     10.55359       2.01411       0.00512
Nuclear contribution   :    -10.39741      -1.99660      -0.00444
                        -----------------------------------------
Total Dipole Moment    :      0.15618       0.01752       0.00067
                        -----------------------------------------
Magnitude (a.u.)       :      0.15716
Magnitude (Debye)      :      0.39946



--------------------
Rotational spectrum 
--------------------
 
Rotational constants in cm-1:     0.006531     0.004289     0.002597 
Rotational constants in MHz :   195.785594   128.568523    77.869221 

 Dipole components along the rotational axes: 
x,y,z [a.u.] :     0.151953     0.040111     0.000438 
x,y,z [Debye]:     0.386233     0.101954     0.001113 

 

Timings for individual modules:

Sum of individual times         ...      491.894 sec (=   8.198 min)
GTO integral calculation        ...       14.890 sec (=   0.248 min)   3.0 %
SCF iterations                  ...      391.044 sec (=   6.517 min)  79.5 %
SCF Gradient evaluation         ...       85.010 sec (=   1.417 min)  17.3 %
Geometry relaxation             ...        0.950 sec (=   0.016 min)   0.2 %
                             ****ORCA TERMINATED NORMALLY****
TOTAL RUN TIME: 0 days 0 hours 8 minutes 26 seconds 601 msec
