 Entering Gaussian System, Link 0=g09
 Input=g09BDE.com
 Output=g09BDE.log
 Initial command:
 /hits/basement/its/doserbd/software/gaussian/g09d1/g09/l1.exe "/hits/basement/mbm/sucerquia/gaussian_scratch/Gau-3226565.inp" -scrdir="/hits/basement/mbm/sucerquia/gaussian_scratch/"
 Entering Link 1 = /hits/basement/its/doserbd/software/gaussian/g09d1/g09/l1.exe PID=   3226566.
  
 Copyright (c) 1988,1990,1992,1993,1995,1998,2003,2009,2013,
            Gaussian, Inc.  All Rights Reserved.
  
 This is part of the Gaussian(R) 09 program.  It is based on
 the Gaussian(R) 03 system (copyright 2003, Gaussian, Inc.),
 the Gaussian(R) 98 system (copyright 1998, Gaussian, Inc.),
 the Gaussian(R) 94 system (copyright 1995, Gaussian, Inc.),
 the Gaussian 92(TM) system (copyright 1992, Gaussian, Inc.),
 the Gaussian 90(TM) system (copyright 1990, Gaussian, Inc.),
 the Gaussian 88(TM) system (copyright 1988, Gaussian, Inc.),
 the Gaussian 86(TM) system (copyright 1986, Carnegie Mellon
 University), and the Gaussian 82(TM) system (copyright 1983,
 Carnegie Mellon University). Gaussian is a federally registered
 trademark of Gaussian, Inc.
  
 This software contains proprietary and confidential information,
 including trade secrets, belonging to Gaussian, Inc.
  
 This software is provided under written license and may be
 used, copied, transmitted, or stored only in accord with that
 written license.
  
 The following legend is applicable only to US Government
 contracts under FAR:
  
                    RESTRICTED RIGHTS LEGEND
  
 Use, reproduction and disclosure by the US Government is
 subject to restrictions as set forth in subparagraphs (a)
 and (c) of the Commercial Computer Software - Restricted
 Rights clause in FAR 52.227-19.
  
 Gaussian, Inc.
 340 Quinnipiac St., Bldg. 40, Wallingford CT 06492
  
  
 ---------------------------------------------------------------
 Warning -- This program may not be used in any manner that
 competes with the business of Gaussian, Inc. or will provide
 assistance to any competitor of Gaussian, Inc.  The licensee
 of this program is prohibited from giving any competitor of
 Gaussian, Inc. access to this program.  By using this program,
 the user acknowledges that Gaussian, Inc. is engaged in the
 business of creating and licensing software in the field of
 computational chemistry and represents and warrants to the
 licensee that it is not a competitor of Gaussian, Inc. and that
 it will not use this program in any manner prohibited above.
 ---------------------------------------------------------------
  

 Cite this work as:
 Gaussian 09, Revision D.01,
 M. J. Frisch, G. W. Trucks, H. B. Schlegel, G. E. Scuseria, 
 M. A. Robb, J. R. Cheeseman, G. Scalmani, V. Barone, B. Mennucci, 
 G. A. Petersson, H. Nakatsuji, M. Caricato, X. Li, H. P. Hratchian, 
 A. F. Izmaylov, J. Bloino, G. Zheng, J. L. Sonnenberg, M. Hada, 
 M. Ehara, K. Toyota, R. Fukuda, J. Hasegawa, M. Ishida, T. Nakajima, 
 Y. Honda, O. Kitao, H. Nakai, T. Vreven, J. A. Montgomery, Jr., 
 J. E. Peralta, F. Ogliaro, M. Bearpark, J. J. Heyd, E. Brothers, 
 K. N. Kudin, V. N. Staroverov, T. Keith, R. Kobayashi, J. Normand, 
 K. Raghavachari, A. Rendell, J. C. Burant, S. S. Iyengar, J. Tomasi, 
 M. Cossi, N. Rega, J. M. Millam, M. Klene, J. E. Knox, J. B. Cross, 
 V. Bakken, C. Adamo, J. Jaramillo, R. Gomperts, R. E. Stratmann, 
 O. Yazyev, A. J. Austin, R. Cammi, C. Pomelli, J. W. Ochterski, 
 R. L. Martin, K. Morokuma, V. G. Zakrzewski, G. A. Voth, 
 P. Salvador, J. J. Dannenberg, S. Dapprich, A. D. Daniels, 
 O. Farkas, J. B. Foresman, J. V. Ortiz, J. Cioslowski, 
 and D. J. Fox, Gaussian, Inc., Wallingford CT, 2013.
 
 ******************************************
 Gaussian 09:  ES64L-G09RevD.01 24-Apr-2013
                14-May-2024 
 ******************************************
 %chk=g09BDE
 %NProcShared=8
 Will use up to    8 processors via shared memory.
 ------------------
 #P bmk/6-31+g freq
 ------------------
 1/10=4,30=1,38=1/1,3;
 2/12=2,17=6,18=5,40=1/2;
 3/5=1,6=6,7=10,11=2,16=1,25=1,30=1,71=2,74=-34,140=1/1,2,3;
 4//1;
 5/5=2,38=5,98=1/2;
 8/6=4,10=90,11=11/1;
 11/6=1,8=1,9=11,15=111,16=1/1,2,10;
 10/6=1/2;
 6/7=2,8=2,9=2,10=2,18=1,28=1/1;
 7/8=1,10=1,25=1/1,2,3,16;
 1/10=4,30=1/3;
 99//99;
 Leave Link    1 at Tue May 14 10:23:23 2024, MaxMem=           0 cpu:         1.7
 (Enter /hits/basement/its/doserbd/software/gaussian/g09d1/g09/l101.exe)
 ------------------------------
 Gaussian input prepared by ASE
 ------------------------------
 Symbolic Z-matrix:
 Charge =  0 Multiplicity = 1
 C                     5.58942   0.07049   0.00032 
 C                     1.3543   -0.00402   0.0012 
 C                     2.07795  -1.22782   0.00769 
 C                     3.46951  -1.15279   0.00713 
 C                     4.16302   0.07726   0.00038 
 C                     3.43979   1.30106  -0.00615 
 C                     2.0483    1.22613  -0.00558 
 H                     4.06413  -2.06615   0.012 
 H                     1.45393   2.13966  -0.01042 
 C                     1.32707  -2.5453    0.01509 
 H                     0.64977  -2.56044  -0.85883 
 H                     0.65113  -2.55136   0.89017 
 C                     2.16913  -3.82374   0.02106 
 H                     2.83205  -3.84151  -0.86362 
 H                     2.83357  -3.83234   0.90474 
 C                     1.31036  -5.09442   0.02843 
 H                     0.64466  -5.0782    0.91139 
 H                     0.64292  -5.08722  -0.85333 
 C                     2.13872  -6.38167   0.03422 
 H                     2.79099  -6.43405   0.92308 
 H                     2.78868  -6.44353  -0.85572 
 C                     4.19058   2.61875  -0.01347 
 H                     4.86785   2.63411   0.86046 
 H                     4.86639   2.62526  -0.88863 
 C                     3.34762   3.89662  -0.01921 
 H                     2.68312   3.90464  -0.90284 
 H                     2.68476   3.91355   0.86554 
 C                     4.20446   5.16856  -0.02645 
 H                     4.87191   5.16238   0.8553 
 H                     4.86995   5.15368  -0.90958 
 C                     3.37381   6.45438  -0.03189 
 H                     2.72386   6.51495   0.85817 
 H                     2.72129   6.50576  -0.92065 
 C                     6.81203   0.05599  -0.00108 
 H                     1.49539  -7.27653   0.03983 
 H                     4.01553   7.35039  -0.03745 
 C                     8.2396    0.03563  -0.00121 
 C                     8.9415   -1.18992   0.00388 
 C                     10.33591  -1.20506   0.00384 
 C                     11.05632  -0.00513  -0.00128 
 C                     10.37098   1.21525  -0.0064 
 C                     8.9768    1.24032  -0.00639 
 H                     12.14872  -0.021    -0.00129 
 H                     10.92785   2.15541  -0.01041 
 H                     8.37763  -2.12463   0.00786 
 H                     8.44041   2.1911   -0.01036 
 H                     10.86538  -2.16091   0.00784 
 C                    -0.07136   0.00204   0.00136 
 C                    -1.29523   0.01218   0.00444 
 C                    -6.95601  -0.05631   0.00401 
 C                    -2.72089   0.01823   0.00423 
 C                    -3.44454   1.24203  -0.00121 
 C                    -4.8361    1.16699  -0.00099 
 C                    -5.5296   -0.06307   0.00432 
 C                    -4.80637  -1.28687   0.00978 
 C                    -3.41488  -1.21194   0.00959 
 H                    -5.43073   2.08036  -0.00503 
 H                    -2.8205   -2.12547   0.01361 
 C                    -2.69367   2.55952  -0.00712 
 H                    -2.01761   2.5665   -0.8821 
 H                    -2.01649   2.57375   0.86691 
 C                    -3.53574   3.83796  -0.01186 
 H                    -4.20006   3.8475   -0.89561 
 H                    -4.19877   3.85479   0.87276 
 C                    -2.67696   5.10866  -0.01778 
 H                    -2.00959   5.10049   0.86401 
 H                    -2.01121   5.0934   -0.90071 
 C                    -3.50533   6.39591  -0.02222 
 H                    -4.15531   6.45682   0.86778 
 H                    -4.15759   6.44922  -0.91103 
 C                    -5.55716  -2.60457   0.01555 
 H                    -6.23305  -2.61207   0.89064 
 H                    -6.23434  -2.61894  -0.85846 
 C                    -4.71419  -3.88245   0.01992 
 H                    -4.05122  -3.89834  -0.86476 
 H                    -4.04981  -3.89149   0.90363 
 C                    -5.57103  -5.1544    0.02559 
 H                    -6.23658  -5.14057   0.9087 
 H                    -6.23843  -5.14716  -0.85619 
 C                    -4.74037  -6.44022   0.02955 
 H                    -4.08786  -6.49262   0.91824 
 H                    -4.09043  -6.49976  -0.86058 
 C                    -8.17861  -0.04163   0.00235 
 H                    -2.862     7.29077  -0.02688 
 H                    -5.3821   -7.33624   0.03408 
 C                    -9.60618  -0.0213    0.00171 
 C                    -10.30813   1.20423  -0.00209 
 C                    -11.70253   1.21932  -0.00268 
 C                    -12.4229   0.01936   0.00048 
 C                    -11.73753  -1.201     0.00424 
 C                    -10.34334  -1.22603   0.00485 
 H                    -13.51531   0.03519   0. 
 H                    -12.29436  -2.14118   0.00671 
 H                    -9.74429   2.13897  -0.00455 
 H                    -9.80692  -2.17679   0.00775 
 H                    -12.23203   2.17516  -0.00563 
 
 NAtoms=     96 NQM=       96 NQMF=       0 NMMI=      0 NMMIF=      0
                NMic=       0 NMicF=      0.
                    Isotopes and Nuclear Properties:
 (Nuclear quadrupole moments (NQMom) in fm**2, nuclear magnetic moments (NMagM)
  in nuclear magnetons)

  Atom         1           2           3           4           5           6           7           8           9          10
 IAtWgt=          12          12          12          12          12          12          12           1           1          12
 AtmWgt=  12.0000000  12.0000000  12.0000000  12.0000000  12.0000000  12.0000000  12.0000000   1.0078250   1.0078250  12.0000000
 NucSpn=           0           0           0           0           0           0           0           1           1           0
 AtZEff=   0.0000000   0.0000000   0.0000000   0.0000000   0.0000000   0.0000000   0.0000000   0.0000000   0.0000000   0.0000000
 NQMom=    0.0000000   0.0000000   0.0000000   0.0000000   0.0000000   0.0000000   0.0000000   0.0000000   0.0000000   0.0000000
 NMagM=    0.0000000   0.0000000   0.0000000   0.0000000   0.0000000   0.0000000   0.0000000   2.7928460   2.7928460   0.0000000
 AtZNuc=   6.0000000   6.0000000   6.0000000   6.0000000   6.0000000   6.0000000   6.0000000   1.0000000   1.0000000   6.0000000

  Atom        11          12          13          14          15          16          17          18          19          20
 IAtWgt=           1           1          12           1           1          12           1           1          12           1
 AtmWgt=   1.0078250   1.0078250  12.0000000   1.0078250   1.0078250  12.0000000   1.0078250   1.0078250  12.0000000   1.0078250
 NucSpn=           1           1           0           1           1           0           1           1           0           1
 AtZEff=   0.0000000   0.0000000   0.0000000   0.0000000   0.0000000   0.0000000   0.0000000   0.0000000   0.0000000   0.0000000
 NQMom=    0.0000000   0.0000000   0.0000000   0.0000000   0.0000000   0.0000000   0.0000000   0.0000000   0.0000000   0.0000000
 NMagM=    2.7928460   2.7928460   0.0000000   2.7928460   2.7928460   0.0000000   2.7928460   2.7928460   0.0000000   2.7928460
 AtZNuc=   1.0000000   1.0000000   6.0000000   1.0000000   1.0000000   6.0000000   1.0000000   1.0000000   6.0000000   1.0000000

  Atom        21          22          23          24          25          26          27          28          29          30
 IAtWgt=           1          12           1           1          12           1           1          12           1           1
 AtmWgt=   1.0078250  12.0000000   1.0078250   1.0078250  12.0000000   1.0078250   1.0078250  12.0000000   1.0078250   1.0078250
 NucSpn=           1           0           1           1           0           1           1           0           1           1
 AtZEff=   0.0000000   0.0000000   0.0000000   0.0000000   0.0000000   0.0000000   0.0000000   0.0000000   0.0000000   0.0000000
 NQMom=    0.0000000   0.0000000   0.0000000   0.0000000   0.0000000   0.0000000   0.0000000   0.0000000   0.0000000   0.0000000
 NMagM=    2.7928460   0.0000000   2.7928460   2.7928460   0.0000000   2.7928460   2.7928460   0.0000000   2.7928460   2.7928460
 AtZNuc=   1.0000000   6.0000000   1.0000000   1.0000000   6.0000000   1.0000000   1.0000000   6.0000000   1.0000000   1.0000000

  Atom        31          32          33          34          35          36          37          38          39          40
 IAtWgt=          12           1           1          12           1           1          12          12          12          12
 AtmWgt=  12.0000000   1.0078250   1.0078250  12.0000000   1.0078250   1.0078250  12.0000000  12.0000000  12.0000000  12.0000000
 NucSpn=           0           1           1           0           1           1           0           0           0           0
 AtZEff=   0.0000000   0.0000000   0.0000000   0.0000000   0.0000000   0.0000000   0.0000000   0.0000000   0.0000000   0.0000000
 NQMom=    0.0000000   0.0000000   0.0000000   0.0000000   0.0000000   0.0000000   0.0000000   0.0000000   0.0000000   0.0000000
 NMagM=    0.0000000   2.7928460   2.7928460   0.0000000   2.7928460   2.7928460   0.0000000   0.0000000   0.0000000   0.0000000
 AtZNuc=   6.0000000   1.0000000   1.0000000   6.0000000   1.0000000   1.0000000   6.0000000   6.0000000   6.0000000   6.0000000

  Atom        41          42          43          44          45          46          47          48          49          50
 IAtWgt=          12          12           1           1           1           1           1          12          12          12
 AtmWgt=  12.0000000  12.0000000   1.0078250   1.0078250   1.0078250   1.0078250   1.0078250  12.0000000  12.0000000  12.0000000
 NucSpn=           0           0           1           1           1           1           1           0           0           0
 AtZEff=   0.0000000   0.0000000   0.0000000   0.0000000   0.0000000   0.0000000   0.0000000   0.0000000   0.0000000   0.0000000
 NQMom=    0.0000000   0.0000000   0.0000000   0.0000000   0.0000000   0.0000000   0.0000000   0.0000000   0.0000000   0.0000000
 NMagM=    0.0000000   0.0000000   2.7928460   2.7928460   2.7928460   2.7928460   2.7928460   0.0000000   0.0000000   0.0000000
 AtZNuc=   6.0000000   6.0000000   1.0000000   1.0000000   1.0000000   1.0000000   1.0000000   6.0000000   6.0000000   6.0000000

  Atom        51          52          53          54          55          56          57          58          59          60
 IAtWgt=          12          12          12          12          12          12           1           1          12           1
 AtmWgt=  12.0000000  12.0000000  12.0000000  12.0000000  12.0000000  12.0000000   1.0078250   1.0078250  12.0000000   1.0078250
 NucSpn=           0           0           0           0           0           0           1           1           0           1
 AtZEff=   0.0000000   0.0000000   0.0000000   0.0000000   0.0000000   0.0000000   0.0000000   0.0000000   0.0000000   0.0000000
 NQMom=    0.0000000   0.0000000   0.0000000   0.0000000   0.0000000   0.0000000   0.0000000   0.0000000   0.0000000   0.0000000
 NMagM=    0.0000000   0.0000000   0.0000000   0.0000000   0.0000000   0.0000000   2.7928460   2.7928460   0.0000000   2.7928460
 AtZNuc=   6.0000000   6.0000000   6.0000000   6.0000000   6.0000000   6.0000000   1.0000000   1.0000000   6.0000000   1.0000000

  Atom        61          62          63          64          65          66          67          68          69          70
 IAtWgt=           1          12           1           1          12           1           1          12           1           1
 AtmWgt=   1.0078250  12.0000000   1.0078250   1.0078250  12.0000000   1.0078250   1.0078250  12.0000000   1.0078250   1.0078250
 NucSpn=           1           0           1           1           0           1           1           0           1           1
 AtZEff=   0.0000000   0.0000000   0.0000000   0.0000000   0.0000000   0.0000000   0.0000000   0.0000000   0.0000000   0.0000000
 NQMom=    0.0000000   0.0000000   0.0000000   0.0000000   0.0000000   0.0000000   0.0000000   0.0000000   0.0000000   0.0000000
 NMagM=    2.7928460   0.0000000   2.7928460   2.7928460   0.0000000   2.7928460   2.7928460   0.0000000   2.7928460   2.7928460
 AtZNuc=   1.0000000   6.0000000   1.0000000   1.0000000   6.0000000   1.0000000   1.0000000   6.0000000   1.0000000   1.0000000

  Atom        71          72          73          74          75          76          77          78          79          80
 IAtWgt=          12           1           1          12           1           1          12           1           1          12
 AtmWgt=  12.0000000   1.0078250   1.0078250  12.0000000   1.0078250   1.0078250  12.0000000   1.0078250   1.0078250  12.0000000
 NucSpn=           0           1           1           0           1           1           0           1           1           0
 AtZEff=   0.0000000   0.0000000   0.0000000   0.0000000   0.0000000   0.0000000   0.0000000   0.0000000   0.0000000   0.0000000
 NQMom=    0.0000000   0.0000000   0.0000000   0.0000000   0.0000000   0.0000000   0.0000000   0.0000000   0.0000000   0.0000000
 NMagM=    0.0000000   2.7928460   2.7928460   0.0000000   2.7928460   2.7928460   0.0000000   2.7928460   2.7928460   0.0000000
 AtZNuc=   6.0000000   1.0000000   1.0000000   6.0000000   1.0000000   1.0000000   6.0000000   1.0000000   1.0000000   6.0000000

  Atom        81          82          83          84          85          86          87          88          89          90
 IAtWgt=           1           1          12           1           1          12          12          12          12          12
 AtmWgt=   1.0078250   1.0078250  12.0000000   1.0078250   1.0078250  12.0000000  12.0000000  12.0000000  12.0000000  12.0000000
 NucSpn=           1           1           0           1           1           0           0           0           0           0
 AtZEff=   0.0000000   0.0000000   0.0000000   0.0000000   0.0000000   0.0000000   0.0000000   0.0000000   0.0000000   0.0000000
 NQMom=    0.0000000   0.0000000   0.0000000   0.0000000   0.0000000   0.0000000   0.0000000   0.0000000   0.0000000   0.0000000
 NMagM=    2.7928460   2.7928460   0.0000000   2.7928460   2.7928460   0.0000000   0.0000000   0.0000000   0.0000000   0.0000000
 AtZNuc=   1.0000000   1.0000000   6.0000000   1.0000000   1.0000000   6.0000000   6.0000000   6.0000000   6.0000000   6.0000000

  Atom        91          92          93          94          95          96
 IAtWgt=          12           1           1           1           1           1
 AtmWgt=  12.0000000   1.0078250   1.0078250   1.0078250   1.0078250   1.0078250
 NucSpn=           0           1           1           1           1           1
 AtZEff=   0.0000000   0.0000000   0.0000000   0.0000000   0.0000000   0.0000000
 NQMom=    0.0000000   0.0000000   0.0000000   0.0000000   0.0000000   0.0000000
 NMagM=    0.0000000   2.7928460   2.7928460   2.7928460   2.7928460   2.7928460
 AtZNuc=   6.0000000   1.0000000   1.0000000   1.0000000   1.0000000   1.0000000
 Leave Link  101 at Tue May 14 10:23:24 2024, MaxMem=    33554432 cpu:         0.8
 (Enter /hits/basement/its/doserbd/software/gaussian/g09d1/g09/l103.exe)

 GradGradGradGradGradGradGradGradGradGradGradGradGradGradGradGradGradGrad
 Berny optimization.
 Initialization pass.
 Trust Radius=3.00D-01 FncErr=1.00D-07 GrdErr=1.00D-07
 Number of steps in this run=      2 maximum allowed number of steps=      2.
 GradGradGradGradGradGradGradGradGradGradGradGradGradGradGradGradGradGrad

 Leave Link  103 at Tue May 14 10:23:25 2024, MaxMem=    33554432 cpu:         0.1
 (Enter /hits/basement/its/doserbd/software/gaussian/g09d1/g09/l202.exe)
 Stoichiometry    C46H50
 Framework group  C1[X(C46H50)]
 Deg. of freedom   282
 Full point group                 C1      NOp   1
 Largest Abelian subgroup         C1      NOp   1
 Largest concise Abelian subgroup C1      NOp   1
                         Standard orientation:                         
 ---------------------------------------------------------------------
 Center     Atomic      Atomic             Coordinates (Angstroms)
 Number     Number       Type             X           Y           Z
 ---------------------------------------------------------------------
      1          6           0       -6.264242    0.332001   -0.000016
      2          6           0       -2.032844    0.139503   -0.000257
      3          6           0       -2.677933    1.406486    0.000711
      4          6           0       -4.071462    1.419292    0.000752
      5          6           0       -4.841099    0.235365   -0.000187
      6          6           0       -4.196424   -1.031591   -0.001193
      7          6           0       -2.802985   -1.044493   -0.001222
      8          1           0       -4.607345    2.368321    0.001503
      9          1           0       -2.267354   -1.993674   -0.001949
     10          6           0       -1.845528    2.674052    0.001881
     11          1           0       -1.169035    2.642467   -0.872216
     12          1           0       -1.170138    2.641534    0.876805
     13          6           0       -2.605360    4.003031    0.002104
     14          1           0       -3.266260    4.058463   -0.882535
     15          1           0       -3.267522    4.057548    0.885848
     16          6           0       -1.668220    5.217092    0.003441
     17          1           0       -1.004455    5.163013    0.886341
     18          1           0       -1.002982    5.163789   -0.878395
     19          6           0       -2.413821    6.553993    0.003432
     20          1           0       -3.061078    6.651455    0.892157
     21          1           0       -3.059018    6.652588   -0.886664
     22          6           0       -5.028761   -2.299373   -0.002280
     23          1           0       -5.705239   -2.268008    0.871828
     24          1           0       -5.704050   -2.267307   -0.877286
     25          6           0       -4.267995   -3.627836   -0.002268
     26          1           0       -3.605740   -3.681779   -0.885976
     27          1           0       -3.607105   -3.682426    0.882429
     28          6           0       -5.203286   -4.843278   -0.003477
     29          1           0       -5.868600   -4.790992    0.878359
     30          1           0       -5.866936   -4.790550   -0.886541
     31          6           0       -4.455306   -6.178889   -0.003126
     32          1           0       -3.810047   -6.276202    0.887084
     33          1           0       -3.807746   -6.275375   -0.891752
     34          6           0       -7.483506    0.423508   -0.001260
     35          1           0       -1.715379    7.406552    0.004792
     36          1           0       -5.152216   -7.032703   -0.004431
     37          6           0       -8.906959    0.533787   -0.001231
     38          6           0       -9.530239    1.801139   -0.001681
     39          6           0      -10.920921    1.904110   -0.001534
     40          6           0      -11.715510    0.751955   -0.000980
     41          6           0      -11.108436   -0.509193   -0.000578
     42          6           0       -9.718602   -0.622072   -0.000711
     43          1           0      -12.804741    0.836628   -0.000861
     44          1           0      -11.723442   -1.412403   -0.000144
     45          1           0       -8.908592    2.698469   -0.002115
     46          1           0       -9.243191   -1.604766   -0.000376
     47          1           0      -11.389104    2.891434   -0.001855
     48          6           0       -0.610402    0.043622   -0.000326
     49          6           0        0.610403   -0.043605    0.002577
     50          6           0        6.264244   -0.331955    0.000805
     51          6           0        2.032845   -0.139478    0.002144
     52          6           0        2.677942   -1.406457    0.002223
     53          6           0        4.071471   -1.419257    0.001848
     54          6           0        4.841101   -0.235324    0.001341
     55          6           0        4.196418    1.031626    0.001283
     56          6           0        2.802979    1.044524    0.001688
     57          1           0        4.607360   -2.368283    0.001915
     58          1           0        2.267342    1.993701    0.001596
     59          6           0        1.845542   -2.674027    0.002544
     60          1           0        1.169974   -2.642423   -0.872274
     61          1           0        1.169227   -2.641533    0.876747
     62          6           0        2.605379   -4.003003    0.003557
     63          1           0        3.267365   -4.058443   -0.880261
     64          1           0        3.266455   -4.057506    0.888122
     65          6           0        1.668243   -5.217068    0.003667
     66          1           0        1.003123   -5.162808    0.885533
     67          1           0        1.004361   -5.163952   -0.879203
     68          6           0        2.413849   -6.553965    0.005028
     69          1           0        3.059118   -6.651618    0.895176
     70          1           0        3.061034   -6.652364   -0.883645
     71          6           0        5.028753    2.299411    0.000818
     72          1           0        5.704192    2.268336    0.875744
     73          1           0        5.705079    2.267059   -0.873372
     74          6           0        4.267984    3.627872   -0.000558
     75          1           0        3.606915    3.681441   -0.885184
     76          1           0        3.605907    3.682831    0.883220
     77          6           0        5.203272    4.843317   -0.000923
     78          1           0        5.867041    4.791643    0.882113
     79          1           0        5.868466    4.789982   -0.882786
     80          6           0        4.455288    6.178925   -0.002760
     81          1           0        3.807791    6.276432    0.885801
     82          1           0        3.809965    6.275212   -0.893035
     83          6           0        7.483493   -0.423658   -0.001007
     84          1           0        1.715409   -7.406528    0.004624
     85          1           0        5.152196    7.032742   -0.002486
     86          6           0        8.906948   -0.533903   -0.001812
     87          6           0        9.530271   -1.801233   -0.000076
     88          6           0       10.920957   -1.904160   -0.000847
     89          6           0       11.715507   -0.751981   -0.003365
     90          6           0       11.108390    0.509147   -0.005119
     91          6           0        9.718553    0.621981   -0.004378
     92          1           0       12.804740   -0.836617   -0.003969
     93          1           0       11.723364    1.412376   -0.007098
     94          1           0        8.908658   -2.698585    0.001891
     95          1           0        9.243110    1.604658   -0.005771
     96          1           0       11.389171   -2.891468    0.000521
 ---------------------------------------------------------------------
 Rotational constants (GHZ):      0.0915072      0.0210237      0.0171250
 Leave Link  202 at Tue May 14 10:23:26 2024, MaxMem=    33554432 cpu:         0.0
 (Enter /hits/basement/its/doserbd/software/gaussian/g09d1/g09/l301.exe)
 Standard basis: 6-31+G (6D, 7F)
 Ernie: Thresh=  0.10000D-02 Tol=  0.10000D-05 Strict=F.
 There are   698 symmetry adapted cartesian basis functions of A   symmetry.
 There are   698 symmetry adapted basis functions of A   symmetry.
   698 basis functions,  1396 primitive gaussians,   698 cartesian basis functions
   163 alpha electrons      163 beta electrons
       nuclear repulsion energy      4666.9069258402 Hartrees.
 IExCor= 3226 DFT=T Ex+Corr=BMK ExCW=0 ScaHFX=  0.420000
 ScaDFX=  1.000000  1.000000  1.000000  1.000000 ScalE2=  1.000000  1.000000
 IRadAn=      0 IRanWt=     -1 IRanGd=            0 ICorTp=0 IEmpDi=  4
 NAtoms=   96 NActive=   96 NUniq=   96 SFac= 1.00D+00 NAtFMM=   60 NAOKFM=T Big=T
 Integral buffers will be    131072 words long.
 Raffenetti 2 integral format.
 Two-electron integral symmetry is turned on.
 Leave Link  301 at Tue May 14 10:23:27 2024, MaxMem=    33554432 cpu:         0.3
 (Enter /hits/basement/its/doserbd/software/gaussian/g09d1/g09/l302.exe)
 NPDir=0 NMtPBC=     1 NCelOv=     1 NCel=       1 NClECP=     1 NCelD=      1
         NCelK=      1 NCelE2=     1 NClLst=     1 CellRange=     0.0.
 One-electron integrals computed using PRISM.
 PrsmSu:  requested number of processors reduced to:   7 ShMem   1 Linda.
 NBasis=   698 RedAO= T EigKep=  1.42D-06  NBF=   698
 NBsUse=   673 1.00D-06 EigRej=  7.99D-07 NBFU=   673
 Precomputing XC quadrature grid using
 IXCGrd= 4 IRadAn=           0 IRanWt=          -1 IRanGd=           0 AccXCQ= 0.00D+00.
 Generated NRdTot=       0 NPtTot=           0 NUsed=           0 NTot=          32
 NSgBfM=   637   638   638   642   642 MxSgAt=    96 MxSgA2=    96.
 Leave Link  302 at Tue May 14 10:23:29 2024, MaxMem=    33554432 cpu:        11.3
 (Enter /hits/basement/its/doserbd/software/gaussian/g09d1/g09/l303.exe)
 DipDrv:  MaxL=1.
 Leave Link  303 at Tue May 14 10:23:30 2024, MaxMem=    33554432 cpu:         1.5
 (Enter /hits/basement/its/doserbd/software/gaussian/g09d1/g09/l401.exe)
 ExpMin= 4.38D-02 ExpMax= 3.05D+03 ExpMxC= 4.57D+02 IAcc=2 IRadAn=         4 AccDes= 0.00D+00
 Harris functional with IExCor= 1009 and IRadAn=       4 diagonalized for initial guess.
 HarFok:  IExCor= 1009 AccDes= 0.00D+00 IRadAn=         4 IDoV= 1 UseB2=F ITyADJ=14
 ICtDFT=  3500011 ScaDFX=  1.000000  1.000000  1.000000  1.000000
 FoFCou: FMM=F IPFlag=           0 FMFlag=      100000 FMFlg1=        2001
         NFxFlg=           0 DoJE=T BraDBF=F KetDBF=T FulRan=T
         wScrn=  0.000000 ICntrl=     500 IOpCl=  0 I1Cent=   200000004 NGrid=           0
         NMat0=    1 NMatS0=      1 NMatT0=    0 NMatD0=    1 NMtDS0=    0 NMtDT0=    0
 Petite list used in FoFCou.
 Harris En= -1780.95975485355    
 JPrj=0 DoOrth=F DoCkMO=F.
 Leave Link  401 at Tue May 14 10:23:35 2024, MaxMem=    33554432 cpu:        37.0
 (Enter /hits/basement/its/doserbd/software/gaussian/g09d1/g09/l502.exe)
 Closed shell SCF:
 Using DIIS extrapolation, IDIIS=  1040.
 Integral symmetry usage will be decided dynamically.
 IVT=     1491108 IEndB=     1491108 NGot=    33554432 MDV=    32567867
 LenX=    32567867 LenY=    32079965
 Requested convergence on RMS density matrix=1.00D-08 within 128 cycles.
 Requested convergence on MAX density matrix=1.00D-06.
 Requested convergence on             energy=1.00D-06.
 No special actions if energy rises.
 Fock matrices will be formed incrementally for  20 cycles.

 Cycle   1  Pass 1  IDiag  1:
 FoFJK:  IHMeth= 1 ICntrl=       0 DoSepK=F KAlg= 0 I1Cent=   0 FoldK=F
 IRaf= 710000000 NMat=   1 IRICut=       1 DoRegI=T DoRafI=F ISym2E= 0.
 FoFCou: FMM=T IPFlag=           0 FMFlag=      100000 FMFlg1=        2001
         NFxFlg=           0 DoJE=F BraDBF=F KetDBF=F FulRan=T
         wScrn=  0.000000 ICntrl=       0 IOpCl=  0 I1Cent=           0 NGrid=           0
         NMat0=    1 NMatS0=      1 NMatT0=    0 NMatD0=    1 NMtDS0=    0 NMtDT0=    0
 Symmetry not used in FoFCou.
 FMM levels:  10  Number of levels for PrismC:   9
 E= -1780.34873201169    
 DIIS: error= 4.01D-02 at cycle   1 NSaved=   1.
 NSaved= 1 IEnMin= 1 EnMin= -1780.34873201169     IErMin= 1 ErrMin= 4.01D-02
 ErrMax= 4.01D-02  0.00D+00 EMaxC= 1.00D-01 BMatC= 7.93D-01 BMatP= 7.93D-01
 IDIUse=3 WtCom= 5.99D-01 WtEn= 4.01D-01
 Coeff-Com:  0.100D+01
 Coeff-En:   0.100D+01
 Coeff:      0.100D+01
 Gap=     0.168 Goal=   None    Shift=    0.000
 GapD=    0.168 DampG=1.000 DampE=0.500 DampFc=0.5000 IDamp=-1.
 Damping current iteration by 5.00D-01
 RMSDP=5.70D-02 MaxDP=5.97D+00              OVMax= 1.39D-01

 Cycle   2  Pass 1  IDiag  1:
 RMSU=  2.10D-02    CP:  1.26D+00
 E= -1780.84591386240     Delta-E=       -0.497181850707 Rises=F Damp=T
 DIIS: error= 8.39D-03 at cycle   2 NSaved=   2.
 NSaved= 2 IEnMin= 2 EnMin= -1780.84591386240     IErMin= 2 ErrMin= 8.39D-03
 ErrMax= 8.39D-03  0.00D+00 EMaxC= 1.00D-01 BMatC= 3.04D-02 BMatP= 7.93D-01
 IDIUse=3 WtCom= 9.16D-01 WtEn= 8.39D-02
 Coeff-Com: -0.936D-01 0.109D+01
 Coeff-En:   0.000D+00 0.100D+01
 Coeff:     -0.858D-01 0.109D+01
 Gap=     0.166 Goal=   None    Shift=    0.000
 RMSDP=1.57D-02 MaxDP=1.98D+00 DE=-4.97D-01 OVMax= 5.94D-02

 Cycle   3  Pass 1  IDiag  1:
 RMSU=  1.54D-02    CP:  1.30D+00  9.48D-01
 E= -1781.29057972999     Delta-E=       -0.444665867585 Rises=F Damp=F
 DIIS: error= 3.17D-03 at cycle   3 NSaved=   3.
 NSaved= 3 IEnMin= 3 EnMin= -1781.29057972999     IErMin= 3 ErrMin= 3.17D-03
 ErrMax= 3.17D-03  0.00D+00 EMaxC= 1.00D-01 BMatC= 5.13D-03 BMatP= 3.04D-02
 IDIUse=3 WtCom= 9.68D-01 WtEn= 3.17D-02
 Coeff-Com: -0.378D-01 0.295D+00 0.743D+00
 Coeff-En:   0.000D+00 0.000D+00 0.100D+01
 Coeff:     -0.366D-01 0.286D+00 0.751D+00
 Gap=     0.168 Goal=   None    Shift=    0.000
 RMSDP=2.09D-03 MaxDP=1.36D-01 DE=-4.45D-01 OVMax= 2.61D-02

 Cycle   4  Pass 1  IDiag  1:
 RMSU=  1.62D-03    CP:  1.32D+00  9.81D-01  9.81D-01
 E= -1781.29536163898     Delta-E=       -0.004781908996 Rises=F Damp=F
 DIIS: error= 2.72D-03 at cycle   4 NSaved=   4.
 NSaved= 4 IEnMin= 4 EnMin= -1781.29536163898     IErMin= 4 ErrMin= 2.72D-03
 ErrMax= 2.72D-03  0.00D+00 EMaxC= 1.00D-01 BMatC= 1.28D-03 BMatP= 5.13D-03
 IDIUse=3 WtCom= 9.73D-01 WtEn= 2.72D-02
 Coeff-Com: -0.261D-02 0.211D-01 0.333D+00 0.649D+00
 Coeff-En:   0.000D+00 0.000D+00 0.160D+00 0.840D+00
 Coeff:     -0.254D-02 0.205D-01 0.328D+00 0.654D+00
 Gap=     0.167 Goal=   None    Shift=    0.000
 RMSDP=1.34D-03 MaxDP=1.50D-01 DE=-4.78D-03 OVMax= 1.15D-02

 Cycle   5  Pass 1  IDiag  1:
 RMSU=  5.80D-04    CP:  1.30D+00  9.61D-01  9.80D-01  7.11D-01
 E= -1781.29685045164     Delta-E=       -0.001488812655 Rises=F Damp=F
 DIIS: error= 1.20D-03 at cycle   5 NSaved=   5.
 NSaved= 5 IEnMin= 5 EnMin= -1781.29685045164     IErMin= 5 ErrMin= 1.20D-03
 ErrMax= 1.20D-03  0.00D+00 EMaxC= 1.00D-01 BMatC= 1.49D-04 BMatP= 1.28D-03
 IDIUse=3 WtCom= 9.88D-01 WtEn= 1.20D-02
 Coeff-Com:  0.129D-02-0.545D-02 0.138D+00 0.358D+00 0.509D+00
 Coeff-En:   0.000D+00 0.000D+00 0.000D+00 0.000D+00 0.100D+01
 Coeff:      0.128D-02-0.538D-02 0.136D+00 0.354D+00 0.515D+00
 Gap=     0.167 Goal=   None    Shift=    0.000
 RMSDP=2.23D-04 MaxDP=1.58D-02 DE=-1.49D-03 OVMax= 3.42D-03

 Cycle   6  Pass 1  IDiag  1:
 RMSU=  1.20D-04    CP:  1.30D+00  9.57D-01  9.85D-01  7.53D-01  8.13D-01
 E= -1781.29702295347     Delta-E=       -0.000172501831 Rises=F Damp=F
 DIIS: error= 1.87D-04 at cycle   6 NSaved=   6.
 NSaved= 6 IEnMin= 6 EnMin= -1781.29702295347     IErMin= 6 ErrMin= 1.87D-04
 ErrMax= 1.87D-04  0.00D+00 EMaxC= 1.00D-01 BMatC= 6.17D-06 BMatP= 1.49D-04
 IDIUse=3 WtCom= 9.98D-01 WtEn= 1.87D-03
 Coeff-Com:  0.107D-02-0.446D-02 0.261D-01 0.907D-01 0.210D+00 0.676D+00
 Coeff-En:   0.000D+00 0.000D+00 0.000D+00 0.000D+00 0.000D+00 0.100D+01
 Coeff:      0.107D-02-0.445D-02 0.260D-01 0.905D-01 0.210D+00 0.677D+00
 Gap=     0.168 Goal=   None    Shift=    0.000
 RMSDP=6.65D-05 MaxDP=5.09D-03 DE=-1.73D-04 OVMax= 1.19D-03

 Cycle   7  Pass 1  IDiag  1:
 RMSU=  3.57D-05    CP:  1.30D+00  9.56D-01  9.86D-01  7.61D-01  8.36D-01
                    CP:  9.46D-01
 E= -1781.29702821080     Delta-E=       -0.000005257338 Rises=F Damp=F
 DIIS: error= 7.72D-05 at cycle   7 NSaved=   7.
 NSaved= 7 IEnMin= 7 EnMin= -1781.29702821080     IErMin= 7 ErrMin= 7.72D-05
 ErrMax= 7.72D-05  0.00D+00 EMaxC= 1.00D-01 BMatC= 2.35D-06 BMatP= 6.17D-06
 IDIUse=1 WtCom= 1.00D+00 WtEn= 0.00D+00
 Coeff-Com:  0.550D-03-0.212D-02-0.515D-02 0.280D-02 0.547D-01 0.427D+00
 Coeff-Com:  0.522D+00
 Coeff:      0.550D-03-0.212D-02-0.515D-02 0.280D-02 0.547D-01 0.427D+00
 Coeff:      0.522D+00
 Gap=     0.168 Goal=   None    Shift=    0.000
 RMSDP=3.24D-05 MaxDP=4.18D-03 DE=-5.26D-06 OVMax= 4.75D-04

 Cycle   8  Pass 1  IDiag  1:
 RMSU=  1.36D-05    CP:  1.30D+00  9.55D-01  9.86D-01  7.65D-01  8.45D-01
                    CP:  9.81D-01  9.78D-01
 E= -1781.29703069930     Delta-E=       -0.000002488492 Rises=F Damp=F
 DIIS: error= 2.15D-05 at cycle   8 NSaved=   8.
 NSaved= 8 IEnMin= 8 EnMin= -1781.29703069930     IErMin= 8 ErrMin= 2.15D-05
 ErrMax= 2.15D-05  0.00D+00 EMaxC= 1.00D-01 BMatC= 1.49D-07 BMatP= 2.35D-06
 IDIUse=1 WtCom= 1.00D+00 WtEn= 0.00D+00
 Coeff-Com:  0.206D-03-0.762D-03-0.509D-02-0.664D-02 0.104D-01 0.166D+00
 Coeff-Com:  0.273D+00 0.564D+00
 Coeff:      0.206D-03-0.762D-03-0.509D-02-0.664D-02 0.104D-01 0.166D+00
 Coeff:      0.273D+00 0.564D+00
 Gap=     0.168 Goal=   None    Shift=    0.000
 RMSDP=7.20D-06 MaxDP=5.23D-04 DE=-2.49D-06 OVMax= 1.39D-04

 Cycle   9  Pass 1  IDiag  1:
 RMSU=  4.28D-06    CP:  1.30D+00  9.55D-01  9.86D-01  7.66D-01  8.48D-01
                    CP:  9.95D-01  1.02D+00  1.04D+00
 E= -1781.29703085107     Delta-E=       -0.000000151777 Rises=F Damp=F
 DIIS: error= 9.89D-06 at cycle   9 NSaved=   9.
 NSaved= 9 IEnMin= 9 EnMin= -1781.29703085107     IErMin= 9 ErrMin= 9.89D-06
 ErrMax= 9.89D-06  0.00D+00 EMaxC= 1.00D-01 BMatC= 2.30D-08 BMatP= 1.49D-07
 IDIUse=1 WtCom= 1.00D+00 WtEn= 0.00D+00
 Coeff-Com: -0.887D-05 0.411D-04-0.157D-02-0.421D-02-0.656D-02-0.648D-02
 Coeff-Com:  0.279D-01 0.301D+00 0.690D+00
 Coeff:     -0.887D-05 0.411D-04-0.157D-02-0.421D-02-0.656D-02-0.648D-02
 Coeff:      0.279D-01 0.301D+00 0.690D+00
 Gap=     0.168 Goal=   None    Shift=    0.000
 RMSDP=3.86D-06 MaxDP=3.06D-04 DE=-1.52D-07 OVMax= 7.65D-05

 Cycle  10  Pass 1  IDiag  1:
 RMSU=  2.46D-06    CP:  1.30D+00  9.55D-01  9.86D-01  7.66D-01  8.51D-01
                    CP:  1.00D+00  1.04D+00  1.10D+00  9.24D-01
 E= -1781.29703087977     Delta-E=       -0.000000028697 Rises=F Damp=F
 DIIS: error= 3.41D-06 at cycle  10 NSaved=  10.
 NSaved=10 IEnMin=10 EnMin= -1781.29703087977     IErMin=10 ErrMin= 3.41D-06
 ErrMax= 3.41D-06  0.00D+00 EMaxC= 1.00D-01 BMatC= 2.63D-09 BMatP= 2.30D-08
 IDIUse=1 WtCom= 1.00D+00 WtEn= 0.00D+00
 Coeff-Com: -0.208D-04 0.799D-04-0.391D-03-0.161D-02-0.427D-02-0.166D-01
 Coeff-Com: -0.751D-02 0.112D+00 0.367D+00 0.551D+00
 Coeff:     -0.208D-04 0.799D-04-0.391D-03-0.161D-02-0.427D-02-0.166D-01
 Coeff:     -0.751D-02 0.112D+00 0.367D+00 0.551D+00
 Gap=     0.168 Goal=   None    Shift=    0.000
 RMSDP=8.71D-07 MaxDP=5.95D-05 DE=-2.87D-08 OVMax= 2.28D-05

 Cycle  11  Pass 1  IDiag  1:
 RMSU=  5.27D-07    CP:  1.30D+00  9.55D-01  9.86D-01  7.66D-01  8.52D-01
                    CP:  1.00D+00  1.05D+00  1.12D+00  1.01D+00  9.67D-01
 E= -1781.29703088319     Delta-E=       -0.000000003419 Rises=F Damp=F
 DIIS: error= 7.39D-07 at cycle  11 NSaved=  11.
 NSaved=11 IEnMin=11 EnMin= -1781.29703088319     IErMin=11 ErrMin= 7.39D-07
 ErrMax= 7.39D-07  0.00D+00 EMaxC= 1.00D-01 BMatC= 7.56D-11 BMatP= 2.63D-09
 IDIUse=1 WtCom= 1.00D+00 WtEn= 0.00D+00
 Coeff-Com: -0.335D-05 0.120D-04 0.118D-03 0.198D-03-0.132D-03-0.230D-02
 Coeff-Com: -0.500D-02-0.145D-01-0.901D-02 0.123D+00 0.908D+00
 Coeff:     -0.335D-05 0.120D-04 0.118D-03 0.198D-03-0.132D-03-0.230D-02
 Coeff:     -0.500D-02-0.145D-01-0.901D-02 0.123D+00 0.908D+00
 Gap=     0.168 Goal=   None    Shift=    0.000
 RMSDP=1.46D-06 MaxDP=2.06D-04 DE=-3.42D-09 OVMax= 7.09D-06

 Cycle  12  Pass 1  IDiag  1:
 RMSU=  1.13D-06    CP:  1.30D+00  9.55D-01  9.86D-01  7.66D-01  8.52D-01
                    CP:  1.00D+00  1.05D+00  1.13D+00  1.03D+00  1.03D+00
                    CP:  1.07D+00
 E= -1781.29703088314     Delta-E=        0.000000000047 Rises=F Damp=F
 DIIS: error= 1.59D-07 at cycle  12 NSaved=  12.
 NSaved=12 IEnMin=11 EnMin= -1781.29703088319     IErMin=12 ErrMin= 1.59D-07
 ErrMax= 1.59D-07  0.00D+00 EMaxC= 1.00D-01 BMatC= 1.21D-11 BMatP= 7.56D-11
 IDIUse=1 WtCom= 1.00D+00 WtEn= 0.00D+00
 Coeff-Com: -0.714D-06 0.229D-05 0.716D-04 0.162D-03 0.135D-03-0.253D-03
 Coeff-Com: -0.195D-02-0.122D-01-0.227D-01 0.268D-01 0.409D+00 0.601D+00
 Coeff:     -0.714D-06 0.229D-05 0.716D-04 0.162D-03 0.135D-03-0.253D-03
 Coeff:     -0.195D-02-0.122D-01-0.227D-01 0.268D-01 0.409D+00 0.601D+00
 Gap=     0.168 Goal=   None    Shift=    0.000
 RMSDP=3.10D-07 MaxDP=4.31D-05 DE= 4.73D-11 OVMax= 1.27D-06

 Cycle  13  Pass 1  IDiag  1:
 RMSU=  1.46D-07    CP:  1.30D+00  9.55D-01  9.86D-01  7.66D-01  8.52D-01
                    CP:  1.00D+00  1.05D+00  1.13D+00  1.04D+00  1.06D+00
                    CP:  1.14D+00  1.19D+00
 E= -1781.29703088339     Delta-E=       -0.000000000247 Rises=F Damp=F
 DIIS: error= 5.05D-08 at cycle  13 NSaved=  13.
 NSaved=13 IEnMin=13 EnMin= -1781.29703088339     IErMin=13 ErrMin= 5.05D-08
 ErrMax= 5.05D-08  0.00D+00 EMaxC= 1.00D-01 BMatC= 8.16D-13 BMatP= 1.21D-11
 IDIUse=1 WtCom= 1.00D+00 WtEn= 0.00D+00
 Coeff-Com:  0.166D-06-0.764D-06 0.878D-05 0.279D-04 0.709D-04 0.261D-03
 Coeff-Com:  0.312D-04-0.221D-02-0.658D-02-0.797D-02 0.159D-01 0.202D+00
 Coeff-Com:  0.798D+00
 Coeff:      0.166D-06-0.764D-06 0.878D-05 0.279D-04 0.709D-04 0.261D-03
 Coeff:      0.312D-04-0.221D-02-0.658D-02-0.797D-02 0.159D-01 0.202D+00
 Coeff:      0.798D+00
 Gap=     0.168 Goal=   None    Shift=    0.000
 RMSDP=4.66D-07 MaxDP=5.09D-05 DE=-2.47D-10 OVMax= 4.98D-07

 Cycle  14  Pass 1  IDiag  1:
 RMSU=  2.19D-07    CP:  1.30D+00  9.55D-01  9.86D-01  7.66D-01  8.52D-01
                    CP:  1.00D+00  1.05D+00  1.13D+00  1.04D+00  1.09D+00
                    CP:  1.27D+00  1.45D+00  1.82D+00
 E= -1781.29703088322     Delta-E=        0.000000000175 Rises=F Damp=F
 DIIS: error= 3.08D-08 at cycle  14 NSaved=  14.
 NSaved=14 IEnMin=13 EnMin= -1781.29703088339     IErMin=14 ErrMin= 3.08D-08
 ErrMax= 3.08D-08  0.00D+00 EMaxC= 1.00D-01 BMatC= 1.90D-13 BMatP= 8.16D-13
 IDIUse=1 WtCom= 1.00D+00 WtEn= 0.00D+00
 Coeff-Com:  0.124D-06-0.548D-06-0.102D-06 0.367D-05 0.296D-04 0.160D-03
 Coeff-Com:  0.142D-03-0.368D-03-0.201D-02-0.640D-02-0.205D-01 0.715D-01
 Coeff-Com:  0.427D+00 0.530D+00
 Coeff:      0.124D-06-0.548D-06-0.102D-06 0.367D-05 0.296D-04 0.160D-03
 Coeff:      0.142D-03-0.368D-03-0.201D-02-0.640D-02-0.205D-01 0.715D-01
 Coeff:      0.427D+00 0.530D+00
 Gap=     0.168 Goal=   None    Shift=    0.000
 RMSDP=4.85D-07 MaxDP=5.60D-05 DE= 1.75D-10 OVMax= 1.59D-07

 Cycle  15  Pass 1  IDiag  1:
 RMSU=  1.34D-07    CP:  1.30D+00  9.55D-01  9.86D-01  7.66D-01  8.53D-01
                    CP:  1.00D+00  1.05D+00  1.13D+00  1.05D+00  1.14D+00
                    CP:  1.36D+00  1.67D+00  2.90D+00  1.89D+00
 E= -1781.29703088296     Delta-E=        0.000000000258 Rises=F Damp=F
 DIIS: error= 1.51D-08 at cycle  15 NSaved=  15.
 NSaved=15 IEnMin=13 EnMin= -1781.29703088339     IErMin=15 ErrMin= 1.51D-08
 ErrMax= 1.51D-08  0.00D+00 EMaxC= 1.00D-01 BMatC= 5.92D-14 BMatP= 1.90D-13
 IDIUse=1 WtCom= 1.00D+00 WtEn= 0.00D+00
 Coeff-Com:  0.734D-07-0.337D-06-0.341D-06 0.149D-05 0.180D-04 0.101D-03
 Coeff-Com:  0.915D-04-0.189D-03-0.116D-02-0.415D-02-0.145D-01 0.442D-01
 Coeff-Com:  0.266D+00 0.365D+00 0.345D+00
 Coeff:      0.734D-07-0.337D-06-0.341D-06 0.149D-05 0.180D-04 0.101D-03
 Coeff:      0.915D-04-0.189D-03-0.116D-02-0.415D-02-0.145D-01 0.442D-01
 Coeff:      0.266D+00 0.365D+00 0.345D+00
 Gap=     0.168 Goal=   None    Shift=    0.000
 RMSDP=3.87D-07 MaxDP=5.82D-05 DE= 2.58D-10 OVMax= 2.35D-08

 Cycle  16  Pass 1  IDiag  1:
 RMSU=  1.39D-07    CP:  1.30D+00  9.55D-01  9.86D-01  7.66D-01  8.53D-01
                    CP:  9.99D-01  1.05D+00  1.14D+00  1.05D+00  1.16D+00
                    CP:  1.46D+00  1.77D+00  3.00D+00  2.64D+00  1.58D+00
 E= -1781.29703088327     Delta-E=       -0.000000000311 Rises=F Damp=F
 DIIS: error= 1.95D-08 at cycle  16 NSaved=  16.
 NSaved=16 IEnMin=13 EnMin= -1781.29703088339     IErMin=15 ErrMin= 1.51D-08
 ErrMax= 1.95D-08  0.00D+00 EMaxC= 1.00D-01 BMatC= 7.64D-14 BMatP= 5.92D-14
 IDIUse=1 WtCom= 1.00D+00 WtEn= 0.00D+00
 Large coefficients: NSaved= 16 BigCof=    0.00 CofMax=   10.00 Det=-8.43D-15
 Inversion failed.  Reducing to 15 matrices.
 Coeff-Com: -0.599D-07-0.375D-06-0.381D-06 0.100D-04 0.596D-04 0.527D-04
 Coeff-Com: -0.921D-04-0.712D-03-0.334D-02-0.136D-01 0.376D-01 0.232D+00
 Coeff-Com:  0.374D+00 0.797D+00-0.422D+00
 Coeff:     -0.599D-07-0.375D-06-0.381D-06 0.100D-04 0.596D-04 0.527D-04
 Coeff:     -0.921D-04-0.712D-03-0.334D-02-0.136D-01 0.376D-01 0.232D+00
 Coeff:      0.374D+00 0.797D+00-0.422D+00
 Gap=     0.168 Goal=   None    Shift=    0.000
 RMSDP=2.39D-07 MaxDP=4.29D-05 DE=-3.11D-10 OVMax= 1.37D-08

 Cycle  17  Pass 1  IDiag  1:
 RMSU=  1.23D-07    CP:  1.30D+00  9.55D-01  9.86D-01  7.66D-01  8.53D-01
                    CP:  1.00D+00  1.05D+00  1.14D+00  1.05D+00  1.15D+00
                    CP:  1.43D+00  1.70D+00  3.00D+00  2.62D+00  8.25D-01
                    CP:  3.10D-01
 E= -1781.29703088307     Delta-E=        0.000000000198 Rises=F Damp=F
 DIIS: error= 1.97D-08 at cycle  17 NSaved=  16.
 NSaved=16 IEnMin=12 EnMin= -1781.29703088339     IErMin=14 ErrMin= 1.51D-08
 ErrMax= 1.97D-08  0.00D+00 EMaxC= 1.00D-01 BMatC= 6.63D-14 BMatP= 5.92D-14
 IDIUse=1 WtCom= 1.00D+00 WtEn= 0.00D+00
 Large coefficients: NSaved= 16 BigCof=    0.00 CofMax=   10.00 Det=-6.83D-15
 Inversion failed.  Reducing to 15 matrices.
 Coeff-Com: -0.348D-06-0.413D-06 0.967D-05 0.588D-04 0.529D-04-0.837D-04
 Coeff-Com: -0.678D-03-0.320D-02-0.130D-01 0.358D-01 0.219D+00 0.353D+00
 Coeff-Com:  0.752D+00-0.612D+00 0.270D+00
 Coeff:     -0.348D-06-0.413D-06 0.967D-05 0.588D-04 0.529D-04-0.837D-04
 Coeff:     -0.678D-03-0.320D-02-0.130D-01 0.358D-01 0.219D+00 0.353D+00
 Coeff:      0.752D+00-0.612D+00 0.270D+00
 Gap=     0.168 Goal=   None    Shift=    0.000
 RMSDP=8.79D-08 MaxDP=6.72D-06 DE= 1.98D-10 OVMax= 5.36D-09

 Cycle  18  Pass 1  IDiag  1:
 RMSU=  5.91D-08    CP:  1.30D+00  9.55D-01  9.86D-01  7.66D-01  8.53D-01
                    CP:  1.00D+00  1.05D+00  1.14D+00  1.05D+00  1.15D+00
                    CP:  1.42D+00  1.72D+00  3.00D+00  2.71D+00  1.03D+00
                    CP:  2.03D-02  1.14D+00
 E= -1781.29703088301     Delta-E=        0.000000000061 Rises=F Damp=F
 DIIS: error= 1.52D-08 at cycle  18 NSaved=  16.
 NSaved=16 IEnMin=11 EnMin= -1781.29703088339     IErMin=13 ErrMin= 1.51D-08
 ErrMax= 1.52D-08  0.00D+00 EMaxC= 1.00D-01 BMatC= 6.92D-14 BMatP= 5.92D-14
 IDIUse=1 WtCom= 1.00D+00 WtEn= 0.00D+00
 Large coefficients: NSaved= 16 BigCof=    0.00 CofMax=   10.00 Det=-5.90D-15
 Inversion failed.  Reducing to 15 matrices.
 Coeff-Com:  0.420D-06 0.106D-04 0.588D-04 0.472D-04-0.124D-03-0.761D-03
 Coeff-Com: -0.318D-02-0.122D-01 0.368D-01 0.220D+00 0.352D+00 0.752D+00
 Coeff-Com: -0.612D+00 0.284D+00-0.151D-01
 Coeff:      0.420D-06 0.106D-04 0.588D-04 0.472D-04-0.124D-03-0.761D-03
 Coeff:     -0.318D-02-0.122D-01 0.368D-01 0.220D+00 0.352D+00 0.752D+00
 Coeff:     -0.612D+00 0.284D+00-0.151D-01
 Gap=     0.168 Goal=   None    Shift=    0.000
 RMSDP=7.96D-09 MaxDP=1.05D-06 DE= 6.09D-11 OVMax= 5.66D-10

 Cycle  19  Pass 1  IDiag  1:
 RMSU=  4.18D-09    CP:  1.30D+00  9.55D-01  9.86D-01  7.66D-01  8.53D-01
                    CP:  1.00D+00  1.05D+00  1.14D+00  1.05D+00  1.15D+00
                    CP:  1.42D+00  1.72D+00  3.00D+00  2.70D+00  1.04D+00
                    CP:  1.19D-02  1.11D+00  1.00D+00
 E= -1781.29703088314     Delta-E=       -0.000000000126 Rises=F Damp=F
 DIIS: error= 1.56D-08 at cycle  19 NSaved=  16.
 NSaved=16 IEnMin=10 EnMin= -1781.29703088339     IErMin=12 ErrMin= 1.51D-08
 ErrMax= 1.56D-08  0.00D+00 EMaxC= 1.00D-01 BMatC= 7.27D-14 BMatP= 5.92D-14
 IDIUse=1 WtCom= 1.00D+00 WtEn= 0.00D+00
 Large coefficients: NSaved= 16 BigCof=    0.00 CofMax=   10.00 Det=-4.18D-15
 Inversion failed.  Reducing to 15 matrices.
 Coeff-Com:  0.929D-05 0.527D-04 0.438D-04-0.924D-04-0.658D-03-0.307D-02
 Coeff-Com: -0.124D-01 0.356D-01 0.216D+00 0.350D+00 0.763D+00-0.623D+00
 Coeff-Com:  0.285D+00-0.750D-01 0.641D-01
 Coeff:      0.929D-05 0.527D-04 0.438D-04-0.924D-04-0.658D-03-0.307D-02
 Coeff:     -0.124D-01 0.356D-01 0.216D+00 0.350D+00 0.763D+00-0.623D+00
 Coeff:      0.285D+00-0.750D-01 0.641D-01
 Gap=     0.168 Goal=   None    Shift=    0.000
 RMSDP=2.04D-08 MaxDP=2.63D-06 DE=-1.26D-10 OVMax= 1.78D-09

 Cycle  20  Pass 1  IDiag  1:
 RMSU=  1.46D-08    CP:  1.30D+00  9.55D-01  9.86D-01  7.66D-01  8.53D-01
                    CP:  1.00D+00  1.05D+00  1.14D+00  1.05D+00  1.15D+00
                    CP:  1.42D+00  1.71D+00  3.00D+00  2.71D+00  1.04D+00
                    CP: -2.71D-02  1.16D+00  1.06D+00  1.15D+00
 E= -1781.29703088327     Delta-E=       -0.000000000133 Rises=F Damp=F
 DIIS: error= 1.74D-08 at cycle  20 NSaved=  16.
 NSaved=16 IEnMin= 9 EnMin= -1781.29703088339     IErMin=11 ErrMin= 1.51D-08
 ErrMax= 1.74D-08  0.00D+00 EMaxC= 1.00D-01 BMatC= 8.79D-14 BMatP= 5.92D-14
 IDIUse=1 WtCom= 1.00D+00 WtEn= 0.00D+00
 Large coefficients: NSaved= 16 BigCof=    0.00 CofMax=   10.00 Det=-3.28D-15
 Inversion failed.  Reducing to 15 matrices.
 Coeff-Com:  0.486D-05-0.255D-05-0.732D-05-0.150D-03-0.152D-02-0.716D-02
 Coeff-Com:  0.245D-01 0.142D+00 0.297D+00 0.886D+00-0.656D+00 0.330D+00
 Coeff-Com: -0.116D+00 0.267D+00-0.166D+00
 Coeff:      0.486D-05-0.255D-05-0.732D-05-0.150D-03-0.152D-02-0.716D-02
 Coeff:      0.245D-01 0.142D+00 0.297D+00 0.886D+00-0.656D+00 0.330D+00
 Coeff:     -0.116D+00 0.267D+00-0.166D+00
 Gap=     0.168 Goal=   None    Shift=    0.000
 RMSDP=1.43D-07 MaxDP=1.92D-05 DE=-1.33D-10 OVMax= 1.64D-08

 Cycle  21  Pass 1  IDiag  1:
 Restarting incremental Fock formation.
 E= -1781.29703088680     Delta-E=       -0.000000003528 Rises=F Damp=F
 DIIS: error= 3.27D-07 at cycle  21 NSaved=  16.
 NSaved=16 IEnMin=16 EnMin= -1781.29703088680     IErMin=10 ErrMin= 1.51D-08
 ErrMax= 3.27D-07  0.00D+00 EMaxC= 1.00D-01 BMatC= 2.44D-11 BMatP= 5.92D-14
 IDIUse=1 WtCom= 1.00D+00 WtEn= 0.00D+00
 Large coefficients: NSaved= 16 BigCof=    0.00 CofMax=   10.00 Det=-3.26D-15
 Inversion failed.  Reducing to 15 matrices.
 Coeff-Com: -0.753D-05 0.337D-06-0.111D-03-0.150D-02-0.744D-02 0.238D-01
 Coeff-Com:  0.140D+00 0.297D+00 0.888D+00-0.657D+00 0.332D+00-0.113D+00
 Coeff-Com:  0.261D+00-0.163D+00 0.767D-03
 Coeff:     -0.753D-05 0.337D-06-0.111D-03-0.150D-02-0.744D-02 0.238D-01
 Coeff:      0.140D+00 0.297D+00 0.888D+00-0.657D+00 0.332D+00-0.113D+00
 Coeff:      0.261D+00-0.163D+00 0.767D-03
 Gap=     0.168 Goal=   None    Shift=    0.000
 RMSDP=1.66D-08 MaxDP=1.76D-06 DE=-3.53D-09 OVMax= 2.81D-09

 Cycle  22  Pass 1  IDiag  1:
 RMSU=  1.58D-08    CP:  1.00D+00
 E= -1781.29703088685     Delta-E=       -0.000000000056 Rises=F Damp=F
 DIIS: error= 3.27D-07 at cycle  22 NSaved=  16.
 NSaved=16 IEnMin=16 EnMin= -1781.29703088685     IErMin= 9 ErrMin= 1.51D-08
 ErrMax= 3.27D-07  0.00D+00 EMaxC= 1.00D-01 BMatC= 2.45D-11 BMatP= 5.92D-14
 IDIUse=1 WtCom= 1.00D+00 WtEn= 0.00D+00
 Large coefficients: NSaved= 16 BigCof=    0.00 CofMax=   10.00 Det=-3.24D-15
 Inversion failed.  Reducing to 15 matrices.
 Coeff-Com:  0.385D-04-0.470D-04-0.159D-02-0.861D-02 0.226D-01 0.141D+00
 Coeff-Com:  0.299D+00 0.892D+00-0.662D+00 0.330D+00-0.118D+00 0.227D+00
 Coeff-Com: -0.124D+00 0.323D+00-0.322D+00
 Coeff:      0.385D-04-0.470D-04-0.159D-02-0.861D-02 0.226D-01 0.141D+00
 Coeff:      0.299D+00 0.892D+00-0.662D+00 0.330D+00-0.118D+00 0.227D+00
 Coeff:     -0.124D+00 0.323D+00-0.322D+00
 Gap=     0.168 Goal=   None    Shift=    0.000
 RMSDP=9.58D-08 MaxDP=9.46D-06 DE=-5.64D-11 OVMax= 5.85D-09

 Cycle  23  Pass 1  IDiag  1:
 RMSU=  9.18D-08    CP:  1.00D+00 -5.02D-01
 E= -1781.29703088673     Delta-E=        0.000000000122 Rises=F Damp=F
 DIIS: error= 3.26D-07 at cycle  23 NSaved=  16.
 NSaved=16 IEnMin=15 EnMin= -1781.29703088685     IErMin= 8 ErrMin= 1.51D-08
 ErrMax= 3.26D-07  0.00D+00 EMaxC= 1.00D-01 BMatC= 2.43D-11 BMatP= 5.92D-14
 IDIUse=1 WtCom= 1.00D+00 WtEn= 0.00D+00
 Large coefficients: NSaved= 16 BigCof=    0.00 CofMax=   10.00 Det=-2.51D-15
 Inversion failed.  Reducing to 15 matrices.
 Coeff-Com: -0.129D-03-0.154D-02-0.758D-02 0.235D-01 0.140D+00 0.293D+00
 Coeff-Com:  0.867D+00-0.629D+00 0.324D+00-0.826D-01 0.177D+00-0.105D+00
 Coeff-Com: -0.104D+00-0.226D+00 0.333D+00
 Coeff:     -0.129D-03-0.154D-02-0.758D-02 0.235D-01 0.140D+00 0.293D+00
 Coeff:      0.867D+00-0.629D+00 0.324D+00-0.826D-01 0.177D+00-0.105D+00
 Coeff:     -0.104D+00-0.226D+00 0.333D+00
 Gap=     0.168 Goal=   None    Shift=    0.000
 RMSDP=9.27D-08 MaxDP=7.83D-06 DE= 1.22D-10 OVMax= 5.45D-09

 Cycle  24  Pass 1  IDiag  1:
 RMSU=  8.33D-08    CP:  1.00D+00  6.83D-01  1.39D+00
 E= -1781.29703088707     Delta-E=       -0.000000000336 Rises=F Damp=F
 DIIS: error= 3.27D-07 at cycle  24 NSaved=  16.
 NSaved=16 IEnMin=16 EnMin= -1781.29703088707     IErMin= 7 ErrMin= 1.51D-08
 ErrMax= 3.27D-07  0.00D+00 EMaxC= 1.00D-01 BMatC= 2.44D-11 BMatP= 5.92D-14
 IDIUse=1 WtCom= 1.00D+00 WtEn= 0.00D+00
 Large coefficients: NSaved= 16 BigCof=    0.00 CofMax=   10.00 Det=-3.19D-15
 Inversion failed.  Reducing to 15 matrices.
 Coeff-Com: -0.129D-02-0.721D-02 0.214D-01 0.130D+00 0.286D+00 0.865D+00
 Coeff-Com: -0.596D+00 0.330D+00-0.402D-01 0.139D+00-0.127D+00 0.227D+00
 Coeff-Com: -0.539D+00-0.323D-01 0.347D+00
 Coeff:     -0.129D-02-0.721D-02 0.214D-01 0.130D+00 0.286D+00 0.865D+00
 Coeff:     -0.596D+00 0.330D+00-0.402D-01 0.139D+00-0.127D+00 0.227D+00
 Coeff:     -0.539D+00-0.323D-01 0.347D+00
 Gap=     0.168 Goal=   None    Shift=    0.000
 RMSDP=1.65D-07 MaxDP=1.83D-05 DE=-3.36D-10 OVMax= 9.84D-09

 Cycle  25  Pass 1  IDiag  1:
 RMSU=  1.03D-07    CP:  1.00D+00 -1.81D+00  2.60D+00  1.46D+00
 E= -1781.29703088694     Delta-E=        0.000000000126 Rises=F Damp=F
 DIIS: error= 3.25D-07 at cycle  25 NSaved=  16.
 NSaved=16 IEnMin=15 EnMin= -1781.29703088707     IErMin= 6 ErrMin= 1.51D-08
 ErrMax= 3.25D-07  0.00D+00 EMaxC= 1.00D-01 BMatC= 2.41D-11 BMatP= 5.92D-14
 IDIUse=1 WtCom= 1.00D+00 WtEn= 0.00D+00
 Large coefficients: NSaved= 16 BigCof=    0.00 CofMax=   10.00 Det=-1.44D-15
 Inversion failed.  Reducing to 15 matrices.
 Coeff-Com: -0.137D-02 0.191D-01 0.953D-01 0.253D+00 0.893D+00-0.625D+00
 Coeff-Com:  0.390D+00-0.329D-01 0.124D+00-0.116D+00 0.415D+00-0.101D+01
 Coeff-Com:  0.283D+00 0.534D+00-0.221D+00
 Coeff:     -0.137D-02 0.191D-01 0.953D-01 0.253D+00 0.893D+00-0.625D+00
 Coeff:      0.390D+00-0.329D-01 0.124D+00-0.116D+00 0.415D+00-0.101D+01
 Coeff:      0.283D+00 0.534D+00-0.221D+00
 Gap=     0.168 Goal=   None    Shift=    0.000
 RMSDP=7.91D-08 MaxDP=9.46D-06 DE= 1.26D-10 OVMax= 2.30D-08

 Cycle  26  Pass 1  IDiag  1:
 RMSU=  5.40D-08    CP:  1.00D+00  6.31D-02  2.32D+00  1.71D+00  6.50D-01
 E= -1781.29703088724     Delta-E=       -0.000000000297 Rises=F Damp=F
 DIIS: error= 3.26D-07 at cycle  26 NSaved=  16.
 NSaved=16 IEnMin=16 EnMin= -1781.29703088724     IErMin= 5 ErrMin= 1.51D-08
 ErrMax= 3.26D-07  0.00D+00 EMaxC= 1.00D-01 BMatC= 2.43D-11 BMatP= 5.92D-14
 IDIUse=1 WtCom= 1.00D+00 WtEn= 0.00D+00
 Large coefficients: NSaved= 16 BigCof=    0.00 CofMax=   10.00 Det=-1.03D-15
 Inversion failed.  Reducing to 15 matrices.
 Coeff-Com: -0.125D-02 0.290D-01 0.150D+00 0.252D+00 0.125D-01 0.312D+00
 Coeff-Com:  0.251D+00 0.870D-01-0.950D-01 0.541D+00-0.123D+01 0.342D+00
 Coeff-Com:  0.600D+00-0.326D+00 0.780D-01
 Coeff:     -0.125D-02 0.290D-01 0.150D+00 0.252D+00 0.125D-01 0.312D+00
 Coeff:      0.251D+00 0.870D-01-0.950D-01 0.541D+00-0.123D+01 0.342D+00
 Coeff:      0.600D+00-0.326D+00 0.780D-01
 Gap=     0.168 Goal=   None    Shift=    0.000
 RMSDP=3.45D-07 MaxDP=6.50D-05 DE=-2.97D-10 OVMax= 1.79D-08

 Cycle  27  Pass 1  IDiag  1:
 RMSU=  2.48D-07    CP:  1.00D+00  3.00D+00  1.13D+00  2.37D+00  6.85D-01
                    CP: -3.81D-01
 E= -1781.29703088681     Delta-E=        0.000000000428 Rises=F Damp=F
 DIIS: error= 3.28D-07 at cycle  27 NSaved=  16.
 NSaved=16 IEnMin=15 EnMin= -1781.29703088724     IErMin= 7 ErrMin= 1.52D-08
 ErrMax= 3.28D-07  0.00D+00 EMaxC= 1.00D-01 BMatC= 2.47D-11 BMatP= 6.63D-14
 IDIUse=1 WtCom= 1.00D+00 WtEn= 0.00D+00
 Large coefficients: NSaved= 16 BigCof=    0.00 CofMax=   10.00 Det=-7.55D-16
 Inversion failed.  Reducing to 15 matrices.
 Coeff-Com: -0.426D-02 0.190D-01 0.116D+00 0.248D+00-0.142D+00 0.556D+00
 Coeff-Com:  0.332D+00-0.127D+00 0.215D+01-0.380D+01 0.207D+01-0.231D+00
 Coeff-Com: -0.115D+01 0.242D+00 0.723D+00
 Coeff:     -0.426D-02 0.190D-01 0.116D+00 0.248D+00-0.142D+00 0.556D+00
 Coeff:      0.332D+00-0.127D+00 0.215D+01-0.380D+01 0.207D+01-0.231D+00
 Coeff:     -0.115D+01 0.242D+00 0.723D+00
 Gap=     0.168 Goal=   None    Shift=    0.000
 RMSDP=3.04D-07 MaxDP=3.37D-05 DE= 4.28D-10 OVMax= 2.18D-08

 Cycle  28  Pass 1  IDiag  1:
 RMSU=  2.09D-07    CP:  1.00D+00  3.00D+00  2.23D+00  2.89D+00  7.26D-01
                    CP: -1.89D+00  1.38D+00
 E= -1781.29703088673     Delta-E=        0.000000000081 Rises=F Damp=F
 DIIS: error= 3.28D-07 at cycle  28 NSaved=  16.
 NSaved=16 IEnMin=14 EnMin= -1781.29703088724     IErMin= 7 ErrMin= 1.56D-08
 ErrMax= 3.28D-07  0.00D+00 EMaxC= 1.00D-01 BMatC= 2.49D-11 BMatP= 6.63D-14
 IDIUse=1 WtCom= 1.00D+00 WtEn= 0.00D+00
 Large coefficients: NSaved= 16 BigCof=    0.00 CofMax=   10.00 Det=-3.96D-16
 Inversion failed.  Reducing to 15 matrices.
 Coeff-Com: -0.516D-02 0.195D-01 0.126D+00 0.257D+00 0.124D+00 0.716D+00
 Coeff-Com: -0.236D+00 0.302D+01-0.437D+01 0.210D+01-0.626D+00-0.153D+01
 Coeff-Com:  0.651D+00 0.433D+00 0.328D+00
 Coeff:     -0.516D-02 0.195D-01 0.126D+00 0.257D+00 0.124D+00 0.716D+00
 Coeff:     -0.236D+00 0.302D+01-0.437D+01 0.210D+01-0.626D+00-0.153D+01
 Coeff:      0.651D+00 0.433D+00 0.328D+00
 Gap=     0.168 Goal=   None    Shift=    0.000
 RMSDP=2.11D-07 MaxDP=2.15D-05 DE= 8.09D-11 OVMax= 1.37D-08

 Cycle  29  Pass 1  IDiag  1:
 RMSU=  1.35D-07    CP:  1.00D+00  3.00D+00  1.89D+00  2.23D+00  2.17D-01
                    CP: -1.28D+00  1.82D+00  1.08D+00
 E= -1781.29703088712     Delta-E=       -0.000000000389 Rises=F Damp=F
 DIIS: error= 3.28D-07 at cycle  29 NSaved=  16.
 NSaved=16 IEnMin=13 EnMin= -1781.29703088724     IErMin= 6 ErrMin= 1.56D-08
 ErrMax= 3.28D-07  0.00D+00 EMaxC= 1.00D-01 BMatC= 2.50D-11 BMatP= 7.27D-14
 IDIUse=1 WtCom= 1.00D+00 WtEn= 0.00D+00
 Large coefficients: NSaved= 16 BigCof=    0.00 CofMax=   10.00 Det=-4.02D-16
 Inversion failed.  Reducing to 15 matrices.
 Coeff-Com: -0.448D-02 0.233D-01 0.143D+00 0.283D+00 0.308D+00 0.246D+00
 Coeff-Com:  0.238D+01-0.382D+01 0.192D+01-0.338D+00-0.122D+01 0.423D+00
 Coeff-Com:  0.518D+00 0.144D+00-0.295D-02
 Coeff:     -0.448D-02 0.233D-01 0.143D+00 0.283D+00 0.308D+00 0.246D+00
 Coeff:      0.238D+01-0.382D+01 0.192D+01-0.338D+00-0.122D+01 0.423D+00
 Coeff:      0.518D+00 0.144D+00-0.295D-02
 Gap=     0.168 Goal=   None    Shift=    0.000
 RMSDP=1.95D-07 MaxDP=1.60D-05 DE=-3.89D-10 OVMax= 1.44D-08

 Cycle  30  Pass 1  IDiag  1:
 RMSU=  1.48D-07    CP:  1.00D+00  2.18D+00  2.69D+00  3.00D+00  5.15D-01
                    CP: -1.21D+00  1.78D+00  8.75D-01  8.20D-01
 E= -1781.29703088740     Delta-E=       -0.000000000286 Rises=F Damp=F
 DIIS: error= 3.28D-07 at cycle  30 NSaved=  16.
 NSaved=16 IEnMin=16 EnMin= -1781.29703088740     IErMin= 6 ErrMin= 1.74D-08
 ErrMax= 3.28D-07  0.00D+00 EMaxC= 1.00D-01 BMatC= 2.48D-11 BMatP= 7.64D-14
 IDIUse=1 WtCom= 1.00D+00 WtEn= 0.00D+00
 Large coefficients: NSaved= 16 BigCof=    0.00 CofMax=   10.00 Det=-3.51D-16
 Inversion failed.  Reducing to 15 matrices.
 Coeff-Com: -0.671D-02 0.810D-01 0.261D+00 0.396D+00 0.269D+00 0.310D+01
 Coeff-Com: -0.483D+01 0.219D+01-0.391D+00-0.146D+01 0.605D+00 0.618D+00
 Coeff-Com:  0.259D+00 0.235D+00-0.340D+00
 Coeff:     -0.671D-02 0.810D-01 0.261D+00 0.396D+00 0.269D+00 0.310D+01
 Coeff:     -0.483D+01 0.219D+01-0.391D+00-0.146D+01 0.605D+00 0.618D+00
 Coeff:      0.259D+00 0.235D+00-0.340D+00
 Gap=     0.168 Goal=   None    Shift=    0.000
 RMSDP=2.13D-07 MaxDP=3.30D-05 DE=-2.86D-10 OVMax= 3.12D-08

 Cycle  31  Pass 1  IDiag  1:
 RMSU=  1.07D-07    CP:  1.00D+00  3.00D+00  2.14D+00  3.00D+00  1.68D-02
                    CP: -7.40D-01  2.11D+00  9.71D-01  9.41D-01  1.07D+00
 E= -1781.29703088754     Delta-E=       -0.000000000132 Rises=F Damp=F
 DIIS: error= 3.29D-07 at cycle  31 NSaved=  16.
 NSaved=16 IEnMin=16 EnMin= -1781.29703088754     IErMin= 5 ErrMin= 1.74D-08
 ErrMax= 3.29D-07  0.00D+00 EMaxC= 1.00D-01 BMatC= 2.50D-11 BMatP= 7.64D-14
 IDIUse=1 WtCom= 1.00D+00 WtEn= 0.00D+00
 Large coefficients: NSaved= 16 BigCof=    0.00 CofMax=   10.00 Det=-4.41D-16
 Inversion failed.  Reducing to 15 matrices.
 Coeff-Com:  0.783D-01 0.254D+00 0.409D+00 0.258D+00 0.213D+01-0.393D+01
 Coeff-Com:  0.194D+01-0.282D+00-0.704D+00 0.214D+00 0.617D+00 0.240D+00
 Coeff-Com:  0.440D+00-0.128D+01 0.625D+00
 Coeff:      0.783D-01 0.254D+00 0.409D+00 0.258D+00 0.213D+01-0.393D+01
 Coeff:      0.194D+01-0.282D+00-0.704D+00 0.214D+00 0.617D+00 0.240D+00
 Coeff:      0.440D+00-0.128D+01 0.625D+00
 Gap=     0.168 Goal=   None    Shift=    0.000
 RMSDP=2.17D-07 MaxDP=1.54D-05 DE=-1.32D-10 OVMax= 1.81D-08

 Cycle  32  Pass 1  IDiag  1:
 RMSU=  1.62D-07    CP:  1.00D+00  3.00D+00  3.00D+00  3.00D+00  6.83D-01
                    CP: -7.60D-01  2.26D+00  9.73D-01  7.95D-01  8.90D-01
                    CP:  1.35D+00
 E= -1781.29703088742     Delta-E=        0.000000000116 Rises=F Damp=F
 DIIS: error= 3.27D-07 at cycle  32 NSaved=  16.
 NSaved=16 IEnMin=15 EnMin= -1781.29703088754     IErMin= 4 ErrMin= 1.74D-08
 ErrMax= 3.27D-07  0.00D+00 EMaxC= 1.00D-01 BMatC= 2.50D-11 BMatP= 7.64D-14
 IDIUse=1 WtCom= 1.00D+00 WtEn= 0.00D+00
 Large coefficients: NSaved= 16 BigCof=    0.00 CofMax=   10.00 Det=-3.91D-16
 Inversion failed.  Reducing to 15 matrices.
 Coeff-Com:  0.391D-01 0.610D+00 0.350D+00 0.278D+01-0.453D+01 0.195D+01
 Coeff-Com: -0.262D+00-0.103D+01 0.444D+00 0.482D+00 0.344D+00 0.470D+00
 Coeff-Com: -0.121D+01 0.433D+00 0.117D+00
 Coeff:      0.391D-01 0.610D+00 0.350D+00 0.278D+01-0.453D+01 0.195D+01
 Coeff:     -0.262D+00-0.103D+01 0.444D+00 0.482D+00 0.344D+00 0.470D+00
 Coeff:     -0.121D+01 0.433D+00 0.117D+00
 Gap=     0.168 Goal=   None    Shift=    0.000
 RMSDP=4.08D-07 MaxDP=6.56D-05 DE= 1.16D-10 OVMax= 3.87D-08

 Cycle  33  Pass 1  IDiag  1:
 RMSU=  1.09D-07    CP:  1.00D+00  3.00D+00  2.03D+00  3.00D+00 -1.38D-01
                    CP: -5.70D-01  3.00D+00  1.18D+00  1.28D+00  9.91D-01
                    CP:  2.77D+00  7.68D-01
 E= -1781.29703088786     Delta-E=       -0.000000000437 Rises=F Damp=F
 DIIS: error= 3.28D-07 at cycle  33 NSaved=  16.
 NSaved=16 IEnMin=16 EnMin= -1781.29703088786     IErMin= 3 ErrMin= 1.74D-08
 ErrMax= 3.28D-07  0.00D+00 EMaxC= 1.00D-01 BMatC= 2.51D-11 BMatP= 7.64D-14
 IDIUse=1 WtCom= 1.00D+00 WtEn= 0.00D+00
 Large coefficients: NSaved= 16 BigCof=    0.00 CofMax=   10.00 Det=-4.17D-16
 Inversion failed.  Reducing to 15 matrices.
 Coeff-Com:  0.442D-01 0.955D+00 0.223D+01-0.400D+01 0.175D+01-0.276D-01
 Coeff-Com: -0.809D+00 0.302D+00 0.534D+00 0.321D+00 0.407D+00-0.120D+01
 Coeff-Com:  0.348D+00 0.101D+00 0.527D-01
 Coeff:      0.442D-01 0.955D+00 0.223D+01-0.400D+01 0.175D+01-0.276D-01
 Coeff:     -0.809D+00 0.302D+00 0.534D+00 0.321D+00 0.407D+00-0.120D+01
 Coeff:      0.348D+00 0.101D+00 0.527D-01
 Gap=     0.168 Goal=   None    Shift=    0.000
 RMSDP=2.87D-07 MaxDP=3.49D-05 DE=-4.37D-10 OVMax= 1.59D-08

 Cycle  34  Pass 1  IDiag  1:
 RMSU=  2.09D-07    CP:  1.00D+00  3.00D+00  6.31D-01  3.00D+00 -8.69D-01
                    CP: -2.06D+00  3.00D+00  9.31D-01  1.13D+00  1.40D+00
                    CP:  2.65D+00  7.98D-01  7.41D-01
 E= -1781.29703088800     Delta-E=       -0.000000000145 Rises=F Damp=F
 DIIS: error= 3.30D-07 at cycle  34 NSaved=  16.
 NSaved=16 IEnMin=16 EnMin= -1781.29703088800     IErMin= 2 ErrMin= 1.95D-08
 ErrMax= 3.30D-07  0.00D+00 EMaxC= 1.00D-01 BMatC= 2.52D-11 BMatP= 7.64D-14
 IDIUse=1 WtCom= 1.00D+00 WtEn= 0.00D+00
 Large coefficients: NSaved= 16 BigCof=    0.00 CofMax=   10.00 Det=-3.94D-16
 Inversion failed.  Reducing to 15 matrices.
 Coeff-Com:  0.968D+00-0.370D+01 0.266D+01 0.115D+00-0.376D+00 0.179D+01
 Coeff-Com:  0.287D+00-0.451D+00 0.450D+00 0.754D+00-0.324D+01 0.127D+01
 Coeff-Com: -0.242D+00 0.366D-02 0.714D+00
 Coeff:      0.968D+00-0.370D+01 0.266D+01 0.115D+00-0.376D+00 0.179D+01
 Coeff:      0.287D+00-0.451D+00 0.450D+00 0.754D+00-0.324D+01 0.127D+01
 Coeff:     -0.242D+00 0.366D-02 0.714D+00
 Gap=     0.168 Goal=   None    Shift=    0.000
 RMSDP=2.05D-06 MaxDP=3.31D-04 DE=-1.45D-10 OVMax= 2.55D-07

 Cycle  35  Pass 1  IDiag  1:
 RMSU=  8.04D-07    CP:  1.00D+00  3.00D+00  3.00D+00  2.17D+00  3.00D+00
                    CP:  1.75D+00 -3.33D-01 -4.18D-01 -8.38D-02 -6.96D-01
                    CP: -2.03D-01  3.00D+00 -2.01D+00  8.56D-01
 E= -1781.29703088637     Delta-E=        0.000000001628 Rises=F Damp=F
 DIIS: error= 3.14D-07 at cycle  35 NSaved=  16.
 NSaved=16 IEnMin=15 EnMin= -1781.29703088800     IErMin= 1 ErrMin= 5.05D-08
 ErrMax= 3.14D-07  0.00D+00 EMaxC= 1.00D-01 BMatC= 2.44D-11 BMatP= 8.16D-13
 IDIUse=1 WtCom= 1.00D+00 WtEn= 0.00D+00
 Large coefficients: NSaved= 16 BigCof=    0.00 CofMax=   10.00 Det=-3.98D-16
 Inversion failed.  Reducing to 15 matrices.
 Large coefficients: NSaved= 15 BigCof=   65.73 CofMax=   10.00 Det=-4.33D-16
 Inversion failed.  Reducing to 14 matrices.
 Large coefficients: NSaved= 14 BigCof=   53.21 CofMax=   10.00 Det=-5.21D-16
 Inversion failed.  Reducing to 13 matrices.
 Large coefficients: NSaved= 13 BigCof=   53.07 CofMax=   10.00 Det=-5.22D-16
 Inversion failed.  Reducing to 12 matrices.
 Coeff-Com: -0.211D+01 0.210D+01 0.396D+01-0.362D+01 0.489D+01-0.551D+01
 Coeff-Com:  0.257D+01 0.907D+00-0.305D+01 0.781D+00-0.597D+00 0.684D+00
 Coeff:     -0.211D+01 0.210D+01 0.396D+01-0.362D+01 0.489D+01-0.551D+01
 Coeff:      0.257D+01 0.907D+00-0.305D+01 0.781D+00-0.597D+00 0.684D+00
 Gap=     0.168 Goal=   None    Shift=    0.000
 RMSDP=1.89D-05 MaxDP=1.87D-03 DE= 1.63D-09 OVMax= 1.19D-06

 Cycle  36  Pass 1  IDiag  1:
 RMSU=  1.71D-05    CP:  1.00D+00  3.00D+00  3.00D+00 -3.00D+00  3.00D+00
                    CP: -1.46D-01 -3.00D+00 -3.00D+00  3.00D+00 -3.00D+00
                    CP:  3.00D+00 -3.00D+00  3.00D+00  3.00D+00  3.00D+00
 E= -1781.29703088761     Delta-E=       -0.000000001236 Rises=F Damp=F
 DIIS: error= 1.03D-07 at cycle  36 NSaved=  13.
 NSaved=13 IEnMin=11 EnMin= -1781.29703088800     IErMin=13 ErrMin= 1.03D-07
 ErrMax= 1.03D-07  0.00D+00 EMaxC= 1.00D-01 BMatC= 3.25D-12 BMatP= 2.41D-11
 IDIUse=1 WtCom= 1.00D+00 WtEn= 0.00D+00
 Coeff-Com: -0.584D+01 0.692D+01 0.301D+01-0.391D+01 0.404D+01-0.627D+01
 Coeff-Com:  0.317D+01 0.508D+00-0.244D+01 0.275D+00-0.212D+00 0.824D+00
 Coeff-Com:  0.937D+00
 Coeff:     -0.584D+01 0.692D+01 0.301D+01-0.391D+01 0.404D+01-0.627D+01
 Coeff:      0.317D+01 0.508D+00-0.244D+01 0.275D+00-0.212D+00 0.824D+00
 Coeff:      0.937D+00
 Gap=     0.168 Goal=   None    Shift=    0.000
 RMSDP=2.74D-06 MaxDP=2.06D-04 DE=-1.24D-09 OVMax= 2.54D-07

 Cycle  37  Pass 1  IDiag  1:
 RMSU=  2.47D-06    CP:  1.00D+00  3.00D+00  3.00D+00  1.40D+00  3.00D+00
                    CP: -3.00D+00 -3.00D+00 -3.00D+00  3.00D+00 -3.00D+00
                    CP:  3.00D+00 -3.00D+00  3.00D+00  3.00D+00  3.00D+00
                    CP:  1.02D+00
 E= -1781.29703088918     Delta-E=       -0.000000001573 Rises=F Damp=F
 DIIS: error= 9.22D-08 at cycle  37 NSaved=  14.
 NSaved=14 IEnMin=14 EnMin= -1781.29703088918     IErMin=14 ErrMin= 9.22D-08
 ErrMax= 9.22D-08  0.00D+00 EMaxC= 1.00D-01 BMatC= 2.53D-12 BMatP= 3.25D-12
 IDIUse=1 WtCom= 1.00D+00 WtEn= 0.00D+00
 Coeff-Com: -0.515D+01 0.458D+01 0.257D+01-0.776D+00 0.262D+01-0.386D+01
 Coeff-Com: -0.266D-01 0.625D+00 0.360D+00-0.986D+00-0.266D+00 0.349D+00
 Coeff-Com:  0.328D+00 0.635D+00
 Coeff:     -0.515D+01 0.458D+01 0.257D+01-0.776D+00 0.262D+01-0.386D+01
 Coeff:     -0.266D-01 0.625D+00 0.360D+00-0.986D+00-0.266D+00 0.349D+00
 Coeff:      0.328D+00 0.635D+00
 Gap=     0.168 Goal=   None    Shift=    0.000
 RMSDP=1.29D-06 MaxDP=1.54D-04 DE=-1.57D-09 OVMax= 7.25D-08

 Cycle  38  Pass 1  IDiag  1:
 RMSU=  9.85D-07    CP:  1.00D+00  3.00D+00  3.00D+00  3.00D+00  3.00D+00
                    CP: -3.00D+00 -3.00D+00 -3.00D+00  3.00D+00 -3.00D+00
                    CP:  3.00D+00 -3.00D+00  3.00D+00  3.00D+00  3.00D+00
                    CP:  1.03D+00  1.27D+00
 E= -1781.29703088972     Delta-E=       -0.000000000538 Rises=F Damp=F
 DIIS: error= 9.53D-08 at cycle  38 NSaved=  15.
 NSaved=15 IEnMin=15 EnMin= -1781.29703088972     IErMin=14 ErrMin= 9.22D-08
 ErrMax= 9.53D-08  0.00D+00 EMaxC= 1.00D-01 BMatC= 2.80D-12 BMatP= 2.53D-12
 IDIUse=1 WtCom= 1.00D+00 WtEn= 0.00D+00
 Coeff-Com: -0.535D+01 0.447D+01 0.255D+01-0.146D+00 0.214D+01-0.311D+01
 Coeff-Com: -0.948D+00 0.797D+00 0.931D+00-0.128D+01-0.332D+00 0.308D+00
 Coeff-Com:  0.249D+00 0.185D+00 0.531D+00
 Coeff:     -0.535D+01 0.447D+01 0.255D+01-0.146D+00 0.214D+01-0.311D+01
 Coeff:     -0.948D+00 0.797D+00 0.931D+00-0.128D+01-0.332D+00 0.308D+00
 Coeff:      0.249D+00 0.185D+00 0.531D+00
 Gap=     0.168 Goal=   None    Shift=    0.000
 RMSDP=1.04D-06 MaxDP=1.44D-04 DE=-5.38D-10 OVMax= 6.10D-08

 Cycle  39  Pass 1  IDiag  1:
 RMSU=  2.73D-07    CP:  1.00D+00  3.00D+00  3.00D+00  3.00D+00  3.00D+00
                    CP: -3.00D+00 -3.00D+00 -3.00D+00  3.00D+00 -3.00D+00
                    CP:  3.00D+00 -3.00D+00  3.00D+00  3.00D+00  3.00D+00
                    CP:  1.05D+00  1.48D+00  1.79D+00
 E= -1781.29703088993     Delta-E=       -0.000000000207 Rises=F Damp=F
 DIIS: error= 9.79D-08 at cycle  39 NSaved=  16.
 NSaved=16 IEnMin=16 EnMin= -1781.29703088993     IErMin=14 ErrMin= 9.22D-08
 ErrMax= 9.79D-08  0.00D+00 EMaxC= 1.00D-01 BMatC= 3.17D-12 BMatP= 2.53D-12
 IDIUse=1 WtCom= 1.00D+00 WtEn= 0.00D+00
 Large coefficients: NSaved= 16 BigCof=    0.00 CofMax=   10.00 Det=-1.90D-15
 Inversion failed.  Reducing to 15 matrices.
 Coeff-Com: -0.616D+01 0.426D+01 0.257D+01 0.161D+01 0.126D+01-0.124D+01
 Coeff-Com: -0.351D+01 0.743D+00 0.274D+01-0.198D+01-0.265D+00 0.509D-01
 Coeff-Com: -0.146D+00 0.385D+00 0.683D+00
 Coeff:     -0.616D+01 0.426D+01 0.257D+01 0.161D+01 0.126D+01-0.124D+01
 Coeff:     -0.351D+01 0.743D+00 0.274D+01-0.198D+01-0.265D+00 0.509D-01
 Coeff:     -0.146D+00 0.385D+00 0.683D+00
 Gap=     0.168 Goal=   None    Shift=    0.000
 RMSDP=2.23D-06 MaxDP=2.75D-04 DE=-2.07D-10 OVMax= 1.22D-07

 Cycle  40  Pass 1  IDiag  1:
 RMSU=  5.86D-07    CP:  1.00D+00  3.00D+00  3.00D+00  3.00D+00  3.00D+00
                    CP: -3.00D+00 -3.00D+00 -3.00D+00  3.00D+00 -3.00D+00
                    CP:  3.00D+00 -3.00D+00  3.00D+00  3.00D+00  3.00D+00
                    CP:  1.07D+00  1.96D+00  3.00D+00  2.41D+00
 E= -1781.29703089032     Delta-E=       -0.000000000393 Rises=F Damp=F
 DIIS: error= 1.07D-07 at cycle  40 NSaved=  16.
 NSaved=16 IEnMin=16 EnMin= -1781.29703089032     IErMin=13 ErrMin= 9.22D-08
 ErrMax= 1.07D-07  0.00D+00 EMaxC= 1.00D-01 BMatC= 4.10D-12 BMatP= 2.53D-12
 IDIUse=1 WtCom= 1.00D+00 WtEn= 0.00D+00
 Large coefficients: NSaved= 16 BigCof=    0.00 CofMax=   10.00 Det=-1.95D-15
 Inversion failed.  Reducing to 15 matrices.
 Coeff-Com: -0.749D+01 0.583D+01 0.210D+01 0.249D+01-0.779D+00-0.336D+01
 Coeff-Com:  0.304D+00 0.309D+01-0.252D+01 0.359D+00 0.140D+00 0.139D+00
 Coeff-Com:  0.215D-01-0.212D+00 0.884D+00
 Coeff:     -0.749D+01 0.583D+01 0.210D+01 0.249D+01-0.779D+00-0.336D+01
 Coeff:      0.304D+00 0.309D+01-0.252D+01 0.359D+00 0.140D+00 0.139D+00
 Coeff:      0.215D-01-0.212D+00 0.884D+00
 Gap=     0.168 Goal=   None    Shift=    0.000
 RMSDP=1.38D-06 MaxDP=1.04D-04 DE=-3.93D-10 OVMax= 7.68D-08

 Cycle  41  Pass 1  IDiag  1:
 Restarting incremental Fock formation.
 E= -1781.29703088714     Delta-E=        0.000000003179 Rises=F Damp=F
 DIIS: error= 2.02D-07 at cycle  41 NSaved=  16.
 NSaved=16 IEnMin=15 EnMin= -1781.29703089032     IErMin=12 ErrMin= 9.22D-08
 ErrMax= 2.02D-07  0.00D+00 EMaxC= 1.00D-01 BMatC= 7.31D-12 BMatP= 2.53D-12
 IDIUse=1 WtCom= 1.00D+00 WtEn= 0.00D+00
 Large coefficients: NSaved= 16 BigCof=    0.00 CofMax=   10.00 Det=-1.47D-15
 Inversion failed.  Reducing to 15 matrices.
 Coeff-Com: -0.864D+00 0.349D+00 0.302D+01-0.356D+01 0.103D+01-0.683D+00
 Coeff-Com:  0.308D+01-0.220D+01-0.153D+00-0.465D-01 0.521D+00 0.948D+00
 Coeff-Com: -0.316D+00 0.149D+00-0.286D+00
 Coeff:     -0.864D+00 0.349D+00 0.302D+01-0.356D+01 0.103D+01-0.683D+00
 Coeff:      0.308D+01-0.220D+01-0.153D+00-0.465D-01 0.521D+00 0.948D+00
 Coeff:     -0.316D+00 0.149D+00-0.286D+00
 Gap=     0.168 Goal=   None    Shift=    0.000
 RMSDP=5.24D-06 MaxDP=6.05D-04 DE= 3.18D-09 OVMax= 3.06D-07

 Cycle  42  Pass 1  IDiag  1:
 RMSU=  5.07D-06    CP:  1.00D+00
 E= -1781.29703088643     Delta-E=        0.000000000708 Rises=F Damp=F
 DIIS: error= 1.51D-07 at cycle  42 NSaved=  16.
 NSaved=16 IEnMin=14 EnMin= -1781.29703089032     IErMin=11 ErrMin= 9.22D-08
 ErrMax= 1.51D-07  0.00D+00 EMaxC= 1.00D-01 BMatC= 4.36D-12 BMatP= 2.53D-12
 IDIUse=1 WtCom= 1.00D+00 WtEn= 0.00D+00
 Large coefficients: NSaved= 16 BigCof=    0.00 CofMax=   10.00 Det=-2.59D-15
 Inversion failed.  Reducing to 15 matrices.
 Coeff-Com: -0.742D+00 0.321D+01-0.366D+01 0.140D+01-0.920D+00 0.299D+01
 Coeff-Com: -0.225D+01 0.291D-02-0.533D-02 0.489D+00 0.887D+00-0.410D+00
 Coeff-Com:  0.265D+00-0.389D+00 0.134D+00
 Coeff:     -0.742D+00 0.321D+01-0.366D+01 0.140D+01-0.920D+00 0.299D+01
 Coeff:     -0.225D+01 0.291D-02-0.533D-02 0.489D+00 0.887D+00-0.410D+00
 Coeff:      0.265D+00-0.389D+00 0.134D+00
 Gap=     0.168 Goal=   None    Shift=    0.000
 RMSDP=3.97D-07 MaxDP=4.01D-05 DE= 7.08D-10 OVMax= 2.41D-08

 Cycle  43  Pass 1  IDiag  1:
 RMSU=  2.39D-07    CP:  1.00D+00  1.06D+00
 E= -1781.29703088663     Delta-E=       -0.000000000196 Rises=F Damp=F
 DIIS: error= 1.49D-07 at cycle  43 NSaved=  16.
 NSaved=16 IEnMin=13 EnMin= -1781.29703089032     IErMin=10 ErrMin= 9.22D-08
 ErrMax= 1.49D-07  0.00D+00 EMaxC= 1.00D-01 BMatC= 4.21D-12 BMatP= 2.53D-12
 IDIUse=1 WtCom= 1.00D+00 WtEn= 0.00D+00
 Large coefficients: NSaved= 16 BigCof=    0.00 CofMax=   10.00 Det=-4.46D-15
 Inversion failed.  Reducing to 15 matrices.
 Coeff-Com:  0.254D+01-0.386D+01 0.150D+01-0.111D+01 0.320D+01-0.202D+01
 Coeff-Com: -0.226D+00-0.437D-02 0.483D+00 0.897D+00-0.415D+00 0.266D+00
 Coeff-Com: -0.386D+00-0.438D+00 0.568D+00
 Coeff:      0.254D+01-0.386D+01 0.150D+01-0.111D+01 0.320D+01-0.202D+01
 Coeff:     -0.226D+00-0.437D-02 0.483D+00 0.897D+00-0.415D+00 0.266D+00
 Coeff:     -0.386D+00-0.438D+00 0.568D+00
 Gap=     0.168 Goal=   None    Shift=    0.000
 RMSDP=2.73D-07 MaxDP=2.81D-05 DE=-1.96D-10 OVMax= 2.06D-08

 Cycle  44  Pass 1  IDiag  1:
 RMSU=  1.70D-07    CP:  1.00D+00  1.10D+00  1.53D+00
 E= -1781.29703088667     Delta-E=       -0.000000000037 Rises=F Damp=F
 DIIS: error= 1.46D-07 at cycle  44 NSaved=  16.
 NSaved=16 IEnMin=12 EnMin= -1781.29703089032     IErMin= 9 ErrMin= 9.22D-08
 ErrMax= 1.46D-07  0.00D+00 EMaxC= 1.00D-01 BMatC= 4.11D-12 BMatP= 2.53D-12
 IDIUse=1 WtCom= 1.00D+00 WtEn= 0.00D+00
 Large coefficients: NSaved= 16 BigCof=    0.00 CofMax=   10.00 Det=-4.83D-15
 Inversion failed.  Reducing to 15 matrices.
 Coeff-Com:  0.257D+01-0.396D+01 0.162D+01-0.105D+01 0.310D+01-0.201D+01
 Coeff-Com: -0.232D+00 0.152D-02 0.516D+00 0.894D+00-0.460D+00 0.278D+00
 Coeff-Com: -0.396D+00 0.319D+00-0.182D+00
 Coeff:      0.257D+01-0.396D+01 0.162D+01-0.105D+01 0.310D+01-0.201D+01
 Coeff:     -0.232D+00 0.152D-02 0.516D+00 0.894D+00-0.460D+00 0.278D+00
 Coeff:     -0.396D+00 0.319D+00-0.182D+00
 Gap=     0.168 Goal=   None    Shift=    0.000
 RMSDP=1.57D-07 MaxDP=1.37D-05 DE=-3.73D-11 OVMax= 1.03D-08

 Cycle  45  Pass 1  IDiag  1:
 RMSU=  8.19D-08    CP:  1.00D+00  1.08D+00  1.19D+00  5.31D-01
 E= -1781.29703088649     Delta-E=        0.000000000173 Rises=F Damp=F
 DIIS: error= 1.47D-07 at cycle  45 NSaved=  16.
 NSaved=16 IEnMin=12 EnMin= -1781.29703089032     IErMin= 9 ErrMin= 9.22D-08
 ErrMax= 1.47D-07  0.00D+00 EMaxC= 1.00D-01 BMatC= 4.10D-12 BMatP= 2.53D-12
 IDIUse=1 WtCom= 1.00D+00 WtEn= 0.00D+00
 Large coefficients: NSaved= 16 BigCof=    0.00 CofMax=   10.00 Det=-4.99D-15
 Inversion failed.  Reducing to 15 matrices.
 Coeff-Com:  0.256D+01-0.394D+01 0.161D+01-0.109D+01 0.314D+01-0.202D+01
 Coeff-Com: -0.233D+00-0.464D-02 0.523D+00 0.900D+00-0.449D+00 0.265D+00
 Coeff-Com: -0.377D+00 0.214D+00-0.101D+00
 Coeff:      0.256D+01-0.394D+01 0.161D+01-0.109D+01 0.314D+01-0.202D+01
 Coeff:     -0.233D+00-0.464D-02 0.523D+00 0.900D+00-0.449D+00 0.265D+00
 Coeff:     -0.377D+00 0.214D+00-0.101D+00
 Gap=     0.168 Goal=   None    Shift=    0.000
 RMSDP=1.35D-07 MaxDP=2.51D-05 DE= 1.73D-10 OVMax= 9.73D-09

 Cycle  46  Pass 1  IDiag  1:
 RMSU=  8.33D-08    CP:  1.00D+00  1.08D+00  1.34D+00  6.43D-01  1.34D-01
 E= -1781.29703088651     Delta-E=       -0.000000000015 Rises=F Damp=F
 DIIS: error= 1.45D-07 at cycle  46 NSaved=  16.
 NSaved=16 IEnMin=12 EnMin= -1781.29703089032     IErMin= 9 ErrMin= 9.22D-08
 ErrMax= 1.45D-07  0.00D+00 EMaxC= 1.00D-01 BMatC= 4.07D-12 BMatP= 2.53D-12
 IDIUse=1 WtCom= 1.00D+00 WtEn= 0.00D+00
 Large coefficients: NSaved= 16 BigCof=    0.00 CofMax=   10.00 Det=-4.93D-15
 Inversion failed.  Reducing to 15 matrices.
 Coeff-Com:  0.253D+01-0.395D+01 0.171D+01-0.116D+01 0.309D+01-0.197D+01
 Coeff-Com: -0.225D+00 0.280D-02 0.524D+00 0.881D+00-0.453D+00 0.270D+00
 Coeff-Com: -0.376D+00-0.603D+00 0.724D+00
 Coeff:      0.253D+01-0.395D+01 0.171D+01-0.116D+01 0.309D+01-0.197D+01
 Coeff:     -0.225D+00 0.280D-02 0.524D+00 0.881D+00-0.453D+00 0.270D+00
 Coeff:     -0.376D+00-0.603D+00 0.724D+00
 Gap=     0.168 Goal=   None    Shift=    0.000
 RMSDP=1.69D-07 MaxDP=1.80D-05 DE=-1.46D-11 OVMax= 1.31D-08

 Cycle  47  Pass 1  IDiag  1:
 RMSU=  1.32D-07    CP:  1.00D+00  1.06D+00  1.11D+00  7.97D-01  2.70D-01
                    CP:  1.05D+00
 E= -1781.29703088661     Delta-E=       -0.000000000100 Rises=F Damp=F
 DIIS: error= 1.44D-07 at cycle  47 NSaved=  16.
 NSaved=16 IEnMin=12 EnMin= -1781.29703089032     IErMin= 9 ErrMin= 9.22D-08
 ErrMax= 1.44D-07  0.00D+00 EMaxC= 1.00D-01 BMatC= 4.02D-12 BMatP= 2.53D-12
 IDIUse=1 WtCom= 1.00D+00 WtEn= 0.00D+00
 Large coefficients: NSaved= 16 BigCof=    0.00 CofMax=   10.00 Det=-4.81D-15
 Inversion failed.  Reducing to 15 matrices.
 Coeff-Com:  0.251D+01-0.390D+01 0.167D+01-0.108D+01 0.307D+01-0.198D+01
 Coeff-Com: -0.252D+00 0.479D-02 0.499D+00 0.877D+00-0.447D+00 0.290D+00
 Coeff-Com: -0.396D+00-0.215D+00 0.359D+00
 Coeff:      0.251D+01-0.390D+01 0.167D+01-0.108D+01 0.307D+01-0.198D+01
 Coeff:     -0.252D+00 0.479D-02 0.499D+00 0.877D+00-0.447D+00 0.290D+00
 Coeff:     -0.396D+00-0.215D+00 0.359D+00
 Gap=     0.168 Goal=   None    Shift=    0.000
 RMSDP=2.08D-07 MaxDP=2.33D-05 DE=-1.00D-10 OVMax= 1.45D-08

 Cycle  48  Pass 1  IDiag  1:
 RMSU=  1.24D-07    CP:  1.00D+00  1.07D+00  1.19D+00  4.73D-01 -3.01D-01
                    CP:  1.39D+00  2.36D-02
 E= -1781.29703088649     Delta-E=        0.000000000118 Rises=F Damp=F
 DIIS: error= 1.41D-07 at cycle  48 NSaved=  16.
 NSaved=16 IEnMin=12 EnMin= -1781.29703089032     IErMin= 9 ErrMin= 9.22D-08
 ErrMax= 1.41D-07  0.00D+00 EMaxC= 1.00D-01 BMatC= 4.05D-12 BMatP= 2.53D-12
 IDIUse=1 WtCom= 1.00D+00 WtEn= 0.00D+00
 Large coefficients: NSaved= 16 BigCof=    0.00 CofMax=   10.00 Det=-4.42D-15
 Inversion failed.  Reducing to 15 matrices.
 Coeff-Com:  0.252D+01-0.387D+01 0.153D+01-0.108D+01 0.314D+01-0.203D+01
 Coeff-Com: -0.182D+00 0.154D-01 0.479D+00 0.864D+00-0.458D+00 0.311D+00
 Coeff-Com: -0.427D+00-0.188D+00 0.372D+00
 Coeff:      0.252D+01-0.387D+01 0.153D+01-0.108D+01 0.314D+01-0.203D+01
[...]
 -0.00000020,0.00000020,0.00000005,0.00000010,0.00000008,0.00000002,-0.
 00000006,0.00000086,0.00000090,0.,-0.00000056,-0.00000074,0.,-0.000000
 45,-0.00000073,0.00000005,0.00000330,-0.00000053,-0.00000103,-0.000000
 95,-0.00000043,-0.00000001,0.00000078,0.00000147,-0.00000005,-0.000005
 53,-0.00000135,0.00000207,0.00000332,0.00000105,-0.00000049,-0.0000010
 2,0.00000095,0.00000013,0.00000261,0.00000042,0.00000025,0.00000052,-0
 .00000171,-0.00000014,0.00000176,-0.00000034,-0.00000071,0.00000040,-0
 .00000010,-0.00000004,0.00000071,0.00000054,-0.00000007,-0.00000009,0.
 00000123,-0.00000010,-0.00000097,-0.00000019,-0.00000012,0.00000006,-0
 .00000034,-0.00000008,0.00000709,-0.00000130,0.00000291,-0.00000290,0.
 00000572,-0.00000431,-0.00073897,0.00006318,-0.00000199,-0.00001554,0.
 00001166,0.00000099,0.00000841,0.00001209,0.00000065,0.00006060,-0.000
 05183,-0.00000007,-0.00005069,0.00003023,0.00000117,0.00000414,-0.0000
 3530,0.00000051,0.00001139,0.00000088,-0.00000021,-0.00000494,-0.00000
 668,0.00000013,0.00000400,-0.00000210,0.00000016,0.00000973,-0.0000067
 7,-0.00000067,0.00000110,0.00000765,-0.00000108,0.00000105,0.00000743,
 0.00000120,0.00001189,0.00000423,-0.00000025,0.00000066,-0.00000252,-0
 .00000208,0.00000047,-0.00000257,0.00000234,-0.00000490,-0.00000021,-0
 .00000035,-0.00000053,0.00000009,-0.00000113,-0.00000077,0.00000011,0.
 00000144,0.00000551,0.00000240,-0.00000006,-0.00000069,-0.00000056,0.0
 0000404,-0.00000065,-0.00000060,-0.00000397,-0.00006828,-0.00003997,0.
 00000060,-0.00003054,0.00005531,-0.00006728,-0.00003043,0.00005649,0.0
 0006672,-0.00000318,0.00004767,-0.00000035,0.00001148,-0.00001898,-0.0
 0000650,0.00001152,-0.00001893,0.00000675,0.00001987,-0.00000833,0.000
 00015,0.00001887,0.00000194,0.00000800,0.00001929,0.00000166,-0.000008
 07,-0.00000628,-0.00000202,-0.00000017,0.00000085,0.00000247,-0.000000
 25,0.00000087,0.00000243,0.00000028,0.00106038,0.00112014,-0.00001289,
 -0.00000066,0.00000359,-0.00000002,-0.00000036,-0.00001435,0.00000008,
 0.01675886,-0.01969097,0.00007752,-0.00399998,-0.00254034,0.00002416,-
 0.00081571,0.00041395,-0.00000362,-0.00078996,0.00152600,0.00001657,-0
 .00438354,0.00407706,0.00000038,0.12117468,-0.27797625,0.00071499,-0.0
 0017383,0.00008212,-0.00000013,0.00046409,0.00081236,-0.00001448,0.000
 74339,-0.00101444,0.00000399,-0.12938710,0.29311505,0.00000017,-0.0000
 0042,-0.00000018,0.00000005,0.00000016,-0.00000111,0.00000016,0.,-0.00
 000077,-0.00000015,0.00000012,-0.00000100,0.00000032,-0.00000009,0.000
 00087,-0.00000016,0.00000010,-0.00000050,0.00000018,0.00000017,-0.0000
 0028,-0.00000004,0.,0.00000079,-0.00000001,-0.00000002,0.00000122,-0.0
 0000008,-0.00000001,0.00000259,-0.00000060,0.00000007,-0.00000062,0.00
 000065,-0.00000007,-0.00000057,0.00000008,-0.00000011,0.00000019,0.000
 00111,-0.00000007,-0.00000055,-0.00000114,-0.00000002,-0.00000057,-0.0
 0000005,0.00000004,0.00000387,0.00000093,-0.00000027,-0.00000130,-0.00
 000094,0.00000027,-0.00000128,0.00000004,-0.00000010,-0.00000033,-0.00
 000114,-0.00000014,-0.00000062,0.00000111,0.00000014,-0.00000061,-0.00
 000040,-0.00000010,0.00000039,-0.00000042,-0.00000004,0.,0.00000050,0.
 ,-0.00000016,0.00000022,0.00000005,0.00000143,-0.00000044,0.00000007,-
 0.00000051,0.00000035,-0.00000008,-0.00000043,-0.00000008,0.00000002,0
 .00000019,-0.00000043,0.00000008,-0.00000024,0.00000047,-0.00000004,-0
 .00000025,0.00000005,-0.00000008,0.00000076,0.00000037,0.00000005,-0.0
 0000038,-0.00000035,-0.00000004,-0.00000037,0.00000002,0.00000052,-0.0
 0000020,0.00000005,0.00000003,0.00000113,0.00000003,0.00000002,0.00000
 017,-0.00000002,0.00000075,-0.00000043,-0.00000040,-0.00000091,0.00000
 010,0.00000026,0.00000012,-0.00000053,0.00000016,-0.00000002,-0.000000
 19,-0.00000031,-0.00000005,-0.00000040,0.00000007,-0.00000034,-0.00000
 010,0.,0.00000007,0.00000025,-0.00000007,0.00000006,0.00000025,-0.0000
 0007,0.00000003,0.00000048,0.00000001,0.00000002,0.00000035,0.00000008
 ,0.00000009,0.00000030,-0.00000017,0.00000004,-0.00000292,-0.00000012,
 -0.00000013,0.00000206,0.00000082,0.00000010,0.00025523,0.00000007,0.0
 0000003,0.00000129,-0.00000042,0.00000014,0.00002011,0.,0.00000005,-0.
 00003133,-0.00000037,0.00000038,0.00015002,0.00000008,-0.00000037,-0.0
 0000816,0.00000039,-0.00000019,-0.00005390,-0.00000002,0.00000001,-0.0
 0000257,-0.00000013,0.00000003,0.00000267,-0.00000005,0.00000031,0.000
 00479,0.00000195,-0.00000027,-0.00000050,-0.00000191,0.00000028,-0.000
 00060,0.00000045,-0.00000003,0.00000538,-0.00000173,0.00000069,-0.0000
 0218,0.00000170,-0.00000072,-0.00000223,-0.00000027,0.00000007,0.00000
 023,-0.00000180,-0.00000022,-0.00000094,0.00000184,0.00000025,-0.00000
 097,-0.00000003,-0.00000022,0.00000256,0.00000103,-0.00000023,-0.00000
 115,-0.00000104,0.00000023,-0.00000109,0.00000106,0.00000119,0.0002635
 3,-0.00000202,0.00001580,-0.00006778,0.00000072,-0.00001677,-0.0000663
 2,-0.00000021,-0.00000024,-0.00006842,0.00002708,-0.00001004,-0.000004
 38,-0.00002686,0.00001013,-0.00000438,-0.00000013,0.00000057,0.0001103
 6,0.00000486,0.00001282,-0.00003258,-0.00000516,-0.00001305,-0.0000316
 7,0.00000016,0.,-0.00003015,-0.00001243,0.00000465,-0.00000317,0.00001
 257,-0.00000482,-0.00000334,0.00000103,-0.00001475,-0.00422795,0.00000
 007,0.00000001,0.00000018,-0.00000013,0.00000012,0.00000913,-0.0000455
 7,0.00006171,0.00470682,0.00000827,0.00002513,0.00662597,0.00000169,-0
 .00000321,-0.00075695,-0.00000219,0.00001670,0.00766256,0.00000685,0.0
 0001327,0.00470004,-0.00038281,0.00071809,-0.04275494,0.00000009,0.000
 00047,0.00006813,0.00000060,-0.00001540,-0.00441350,-0.00000195,0.0000
 0294,0.00022036,0.00041380,-0.00080209,0.02898110,0.00000210,-0.000000
 14,-0.00000021,0.00001958,-0.00000056,-0.00000058,-0.00000864,0.000000
 05,0.00000019,0.00000142,-0.00000232,-0.00000008,-0.00000442,-0.000002
 60,0.00000018,0.00000307,0.00000639,-0.00000017,-0.00000941,0.00000117
 ,0.00000004,-0.00000126,0.00000083,0.00000004,0.00000239,0.00000265,0.
 00000007,-0.00000040,-0.00000232,-0.00000015,0.00000174,-0.00000147,-0
 .00000217,0.00000185,-0.00000134,0.00000221,0.00000115,-0.00000095,-0.
 00000021,-0.00000113,0.00000022,0.00000073,-0.00000107,0.00000024,-0.0
 0000065,-0.00000010,0.00000009,-0.00000005,-0.00000002,-0.00000028,0.0
 0000162,0.00000004,-0.00000031,-0.00000153,0.00000063,0.00000013,-0.00
 000006,-0.00000074,-0.00000012,-0.00000062,-0.00000079,-0.00000010,0.0
 0000066,-0.00000123,0.00000041,-0.00000028,-0.00000042,-0.00000108,-0.
 00000001,-0.00000048,-0.00000109,0.00000020,-0.00000157,-0.00000111,-0
 .00000002,0.00000012,0.00000081,-0.00000075,-0.00000002,0.00000085,0.0
 0000087,0.00000147,0.00000101,-0.00000003,-0.00000019,-0.00000021,0.00
 000012,-0.00000032,-0.00000021,0.00000003,-0.00000143,-0.00000140,-0.0
 0000008,0.00000049,0.00000077,-0.00000061,0.00000052,0.00000075,0.0000
 0065,-0.00000555,-0.00000011,0.00000078,0.00000068,0.00000069,-0.00000
 002,-0.00000066,-0.00000143,0.,0.00000799,0.00000027,-0.00000107,-0.00
 000272,-0.00000077,0.00000046,-0.00000009,-0.00000077,0.00000005,-0.00
 000270,0.00000002,-0.00000009,-0.00000028,0.00000098,-0.00000007,-0.00
 000281,0.00000006,0.00000041,-0.00000063,0.00000006,-0.00000004,-0.000
 00063,-0.00000054,-0.00000004,0.00000058,-0.00000042,-0.00000005,0.000
 00067,0.00000052,-0.00000006,-0.00000034,0.00000056,-0.00000005,-0.000
 01970,0.00000093,0.00000114,0.00000977,0.00000015,-0.00000087,-0.00038
 549,-0.00005608,0.00000109,-0.00001433,-0.00001116,0.00000016,0.000008
 63,-0.00000106,0.00000029,-0.00010687,0.00003223,-0.00000057,0.0001480
 7,-0.00009120,0.00000029,-0.00004210,-0.00000762,-0.00000005,0.0000056
 1,0.00001044,-0.00000024,0.00001113,0.00001777,-0.00000004,-0.00001071
 ,0.00000239,0.00000008,-0.00000811,0.00000953,-0.00000019,-0.00000201,
 -0.00000702,-0.00000011,-0.00000214,-0.00000708,0.00000021,-0.00001532
 ,-0.00000619,0.00000005,0.00000024,0.00000399,0.00000259,0.00000020,0.
 00000396,-0.00000251,0.00000561,0.00000176,-0.00000003,0.00000094,-0.0
 0000108,0.00000248,0.00000089,-0.00000104,-0.00000241,-0.00000787,-0.0
 0000382,-0.00000005,0.,0.00000065,-0.00000716,0.00000005,0.00000072,0.
 00000719,-0.00000644,0.00000278,-0.00000002,0.00000457,-0.00001098,0.0
 0001524,0.00000457,-0.00001120,-0.00001509,0.00000378,-0.00000809,-0.0
 0000021,-0.00000493,0.00000353,0.00000170,-0.00000487,0.00000361,-0.00
 000164,-0.00000992,0.00000002,0.00000016,0.00000075,-0.00000175,0.0000
 0055,0.00000080,-0.00000174,-0.00000053,0.00000486,0.00000318,-0.00000
 010,-0.00000159,-0.00000091,-0.00000050,-0.00000160,-0.00000089,0.0000
 0053,-0.00042450,0.00135468,-0.00000591,0.00000218,-0.00000350,0.,0.00
 000082,0.00000500,-0.00000003,-0.00477516,-0.00146974,-0.00000009,-0.0
 1163172,0.03102832,-0.00009431,-0.12714409,0.11905837,-0.00038151,0.01
 179619,-0.01786414,0.00005417,-0.00141353,-0.00329329,0.00000597,-0.00
 068673,-0.00087789,0.00000268,0.00081274,0.00055126,0.00000021,0.00042
 928,-0.00081379,0.00000249,0.00086903,-0.00049004,0.00000358,0.0000942
 6,0.00009838,0.00000021,0.13250837,-0.00000346,0.00000008,0.00000026,-
 0.00001771,0.00000214,0.00000040,0.00000870,-0.00000026,0.00000029,0.0
 0000113,0.00000043,-0.00000013,0.00000293,0.00000587,-0.00000036,0.000
 00114,-0.00000805,0.00000029,0.00000910,-0.00000110,-0.00000025,0.0000
 0140,-0.00000095,0.00000002,-0.00000316,-0.00000186,0.00000026,0.00000
 053,0.00000172,-0.00000044,-0.00000185,0.00000129,0.00000236,-0.000001
 67,0.00000151,-0.00000230,-0.00000144,0.00000131,-0.00000011,0.0000014
 4,-0.00000033,-0.00000107,0.00000159,-0.00000028,0.00000131,-0.0000004
 2,0.,-0.00000032,0.,0.00000016,-0.00000176,0.00000026,0.00000010,0.000
 00205,-0.00000076,-0.00000028,-0.00000014,0.00000086,0.00000013,0.0000
 0087,0.00000075,0.00000014,-0.00000074,-0.00000008,-0.00000139,-0.0000
 0003,0.00000069,0.00000087,0.00000075,0.00000067,0.00000080,-0.0000004
 7,0.00000096,0.00000206,-0.00000029,-0.00000027,-0.00000067,0.00000113
 ,-0.00000041,-0.00000081,-0.00000098,-0.00000072,0.00000005,-0.0000001
 7,0.00000030,-0.00000006,0.00000019,0.00000013,-0.00000007,-0.00000007
 ,0.00000071,0.00000061,-0.00000006,-0.00000067,-0.00000075,-0.00000042
 ,-0.00000056,-0.00000075,0.00000049,0.00000364,-0.00000065,-0.00000054
 ,-0.00000074,-0.00000046,-0.00000002,0.00000102,0.00000170,-0.00000004
 ,-0.00000596,-0.00000102,0.00000118,0.00000407,-0.00000015,-0.00000013
 ,-0.00000132,0.00000157,0.00000011,0.00000348,0.00000037,0.00000021,0.
 00000046,-0.00000238,-0.00000018,0.00000227,-0.00000004,-0.00000033,0.
 00000041,-0.00000009,-0.00000006,0.00000075,0.00000062,-0.00000008,0.0
 0000011,0.00000175,-0.00000015,-0.00000132,0.00000007,-0.00000014,0.00
 000006,-0.00000014,-0.00000010,0.00001211,-0.00000249,-0.00000021,-0.0
 0000437,-0.00000207,-0.00000052,-0.00000375,-0.00002513,0.00000142,0.0
 0001176,0.00000894,0.00000012,-0.00000411,-0.00002239,0.00000076,0.000
 02419,-0.00000495,-0.00000051,-0.00005046,-0.00000402,0.00000081,0.000
 03059,0.00000092,0.00000006,-0.00000195,0.00000492,-0.00000033,-0.0000
 0806,-0.00000831,0.00000018,0.00000418,-0.00000224,0.00000017,0.000002
 46,-0.00000127,-0.00000068,0.00000149,0.00000338,-0.00000093,0.0000013
 7,0.00000314,0.00000111,0.00000618,0.00000459,-0.00000023,-0.00000034,
 -0.00000205,0.00000294,-0.00000050,-0.00000216,-0.00000268,-0.00000396
 ,-0.00000099,-0.00000038,0.00000106,0.00000027,0.00000020,0.00000082,0
 .00000031,0.00000012,0.00000348,0.00000216,-0.00000005,-0.00000172,-0.
 00000147,0.00000041,-0.00000169,-0.00000147,-0.00000034,0.00000297,0.0
 0000640,-0.00000047,-0.00000737,0.00000429,-0.00000749,-0.00000719,0.0
 0000435,0.00000782,-0.00000404,0.00000303,0.00000003,0.00000347,-0.000
 00113,-0.00000165,0.00000365,-0.00000110,0.00000180,0.00000259,-0.0000
 0087,-0.00000008,-0.00000118,0.00000122,-0.00000446,-0.00000105,0.0000
 0125,0.00000458,-0.00000189,-0.00000055,-0.00000012,0.00000255,0.00000
 020,0.00000183,0.00000245,0.00000018,-0.00000176,0.00000687,0.00002811
 ,-0.00000384,0.00000174,0.00000401,-0.00000002,-0.00000176,-0.00000291
 ,0.,-0.00112882,0.00172898,0.00001928,-0.00382383,0.00342262,0.0000017
 0,0.11923161,-0.27670648,0.00072203,0.01691703,-0.01887226,0.00007296,
 -0.00405546,-0.00259161,0.00002629,-0.00088335,0.00041500,-0.00000372,
 -0.00041936,0.00087397,-0.00001427,0.00077497,-0.00101449,0.00000354,0
 .00040550,0.00081021,-0.00001482,0.00010439,-0.00003032,-0.00000353,-0
 .12715020,0.29196738,0.00000007,-0.00000015,-0.00000040,0.00000008,-0.
 00000002,0.00000224,0.,-0.00000001,-0.00000034,0.,0.,-0.00000064,0.000
 00008,-0.00000003,0.00000037,-0.00000006,0.00000011,-0.00000054,0.0000
 0002,0.00000004,-0.00000093,-0.00000001,0.,0.00000047,0.,0.,0.00000095
 ,-0.00000003,-0.00000004,0.00000130,-0.00000036,-0.00000004,-0.0000002
 7,0.00000038,0.00000004,-0.00000024,0.00000004,-0.00000002,0.00000026,
 0.00000046,-0.00000008,-0.00000027,-0.00000049,0.00000005,-0.00000028,
 -0.00000004,0.00000004,0.00000130,0.00000041,-0.00000006,-0.00000045,-
 0.00000041,0.00000006,-0.00000045,0.00000004,-0.00000002,0.,-0.0000004
 3,-0.00000005,-0.00000027,0.00000042,0.00000004,-0.00000026,-0.0000001
 2,-0.00000003,0.00000052,-0.00000037,0.00000003,-0.00000007,0.00000041
 ,-0.00000004,-0.00000012,0.00000002,0.,0.00000139,-0.00000037,0.000000
 02,-0.00000043,0.00000035,-0.00000001,-0.00000043,-0.00000001,-0.00000
 001,0.00000009,-0.00000047,0.00000012,-0.00000026,0.00000047,-0.000000
 11,-0.00000026,0.00000003,0.,0.00000092,0.00000038,0.00000011,-0.00000
 042,-0.00000038,-0.00000012,-0.00000042,0.,0.00000017,-0.00000012,0.,0
 .,0.00000037,0.,0.,0.00000022,0.,0.00000028,0.00000004,-0.00000013,-0.
 00000030,-0.00000025,0.00000009,-0.00000002,-0.00000026,0.00000004,0.0
 0000002,-0.00000008,-0.00000002,-0.00000001,-0.00000046,-0.00000002,-0
 .00000011,-0.00000005,0.,0.00000003,0.00000020,-0.00000003,0.00000002,
 0.00000022,-0.00000001,0.,0.00000029,0.00000002,0.00000001,0.00000030,
 0.00000002,0.00000003,0.00000020,-0.00000013,0.00000008,-0.00000826,-0
 .00000008,-0.00000004,0.00000814,0.00000002,-0.00000065,-0.00016149,-0
 .00000007,-0.00000002,-0.00000781,0.00000003,0.00000008,-0.00000077,-0
 .00000013,0.00000003,0.00000863,0.00000033,-0.00000003,-0.00000129,-0.
 00000013,0.00000002,-0.00000630,0.00000009,-0.00000003,-0.00000305,0.0
 0000002,0.00000006,0.00000668,-0.00000003,0.00000003,0.00000216,0.0000
 0001,0.00000007,-0.00000065,0.00000244,-0.00000016,-0.00000041,-0.0000
 0244,0.00000014,-0.00000045,0.00000004,0.00000004,0.00001149,-0.000001
 41,0.00000023,-0.00000318,0.00000140,-0.00000027,-0.00000317,-0.000000
 01,0.00000003,-0.00000179,-0.00000262,0.00000026,-0.00000112,0.0000026
 1,-0.00000026,-0.00000111,0.,-0.00000004,0.00000682,0.00000137,-0.0000
 0002,-0.00000246,-0.00000137,0.00000001,-0.00000245,0.00000011,-0.0000
 0008,0.00000567,0.00000127,0.00000226,-0.00000087,-0.00000125,-0.00000
 228,-0.00000086,-0.00000011,0.00000006,-0.00000123,0.00000173,-0.00000
 061,-0.00000092,-0.00000174,0.00000063,-0.00000092,-0.00000008,0.00000
 007,0.00000492,0.00000127,0.00000001,-0.00000137,-0.00000122,-0.000000
 05,-0.00000136,0.00000003,0.,-0.00000027,-0.00000117,0.00000003,-0.000
 00065,0.00000117,-0.00000006,-0.00000071,-0.00000022,0.00000168,0.0003
 4858,0.00000001,0.,-0.00000004,-0.00000002,0.00000003,0.00000089,-0.00
 000112,0.00001566,0.00751966,0.00000593,0.00001551,0.00441372,-0.00038
 212,0.00072131,-0.04318543,-0.00004469,0.00006057,0.00441635,0.0000077
 2,0.00002646,0.00728293,0.00000112,-0.00000285,-0.00068981,0.00000298,
 -0.00001421,-0.00410321,-0.00000211,0.00000270,0.00010370,0.00000078,-
 0.00001551,-0.00440503,0.00000023,-0.00000340,-0.00121929,0.00041150,-
 0.00080740,0.02967465\\-0.01134800,0.00001508,0.00015008,-0.00245943,0
 .00010151,0.00007573,0.00033872,-0.00060973,0.00000680,-0.00575724,0.0
 0613381,-0.00003406,0.00228774,-0.00012793,-0.00002983,-0.00033396,0.0
 0059577,-0.00000816,0.00579606,-0.00607790,0.00003176,0.00142221,-0.00
 155462,0.00000798,-0.00144095,0.00160563,-0.00000711,0.01087927,-0.001
 15820,0.00000657,-0.00147989,0.00049123,-0.00047019,-0.00147543,0.0004
 9549,0.00046392,-0.01193523,-0.00091875,0.00001407,0.00142283,0.000111
 96,-0.00098263,0.00143846,0.00013264,0.00097368,0.01186220,-0.00088344
 ,-0.00000865,-0.00173176,-0.00006524,0.00124136,-0.00173527,-0.0000722
 9,-0.00123644,-0.00633826,0.00842547,-0.00003104,0.00170763,-0.0007081
 9,0.00165534,0.00170093,-0.00072591,-0.00165681,-0.01086367,0.00115557
 ,-0.00000453,0.00147289,-0.00049143,0.00046325,0.00146783,-0.00049448,
 -0.00045658,0.01196001,0.00092171,-0.00001591,-0.00145116,-0.00014003,
 -0.00098904,-0.00143578,-0.00011999,0.00099825,-0.01185903,0.00089493,
 0.00000966,0.00171753,0.00007899,0.00120935,0.00171431,0.00007302,-0.0
 0121413,0.00633855,-0.00844703,0.00002909,-0.00171388,0.00072926,0.001
 66618,-0.00172081,0.00071123,-0.00166330,0.01112799,-0.00034052,-0.000
 14296,-0.00099784,-0.00207210,0.00001405,0.00099078,0.00208140,-0.0000
 1371,-0.00237444,-0.00014940,0.00004038,0.00622919,0.00716210,-0.00003
 019,-0.00487404,0.00824905,-0.00003511,-0.00950459,0.00026131,-0.00000
 022,-0.00523420,-0.00853653,0.00003586,0.00609986,-0.00684541,0.000027
 73,0.00310362,-0.00009803,0.00000061,0.00158735,0.00267430,-0.00001155
 ,-0.00128018,-0.00229373,0.00001051,-0.00129014,0.00237163,-0.00000860
 ,0.00157755,-0.00269519,0.00001094,0.01201540,-0.00010449,-0.00033745,
 -0.01201614,0.00010451,0.00034925,0.01134857,-0.00002447,0.00013660,0.
 00246012,-0.00010105,-0.00008565,-0.00033892,0.00060934,-0.00000872,0.
 00575725,-0.00613393,0.00002384,-0.00228830,0.00013054,-0.00003786,0.0
 0033437,-0.00059551,0.00000430,-0.00579607,0.00607732,-0.00003109,-0.0
 0142218,0.00155469,-0.00000611,0.00144092,-0.00160562,0.00000363,-0.01
 087927,0.00115829,-0.00000915,0.00147501,-0.00049479,-0.00046390,0.001
 48041,-0.00049202,0.00047017,0.01193527,0.00091882,-0.00000908,-0.0014
 3532,-0.00012734,-0.00097529,-0.00142604,-0.00011753,0.00098104,-0.011
 86222,0.00088352,0.00000939,0.00173480,0.00007037,0.00123682,0.0017320
 9,0.00006713,-0.00124104,0.00633829,-0.00842555,0.00002267,-0.00170032
 ,0.00072384,0.00165719,-0.00170822,0.00071021,-0.00165496,0.01086372,-
 0.00115552,0.00000227,-0.00146618,0.00049260,0.00045798,-0.00147456,0.
 00049327,-0.00046195,-0.01196018,-0.00092192,0.00001405,0.00143879,0.0
 0012550,-0.00099689,0.00144831,0.00013482,0.00099037,0.01185913,-0.000
 89490,-0.00000713,-0.00171398,-0.00007509,0.00121360,-0.00171783,-0.00
 007693,-0.00120987,-0.00633862,0.00844702,-0.00002163,0.00172116,-0.00
 071311,0.00166268,0.00171356,-0.00072735,-0.00166678,-0.01112819,0.000
 34996,-0.00014830,0.00099785,0.00207218,-0.00001214,-0.00099073,-0.002
 08145,0.00001151,0.00237513,0.00014718,0.00004355,-0.00622927,-0.00716
 119,0.00002239,0.00487424,-0.00824879,0.00002069,0.00950432,-0.0002608
 1,0.00000726,0.00523345,0.00853610,-0.00002127,-0.00609993,0.00684404,
 -0.00002353,-0.00310356,0.00009790,-0.00000316,-0.00158697,-0.00267452
 ,0.00000852,0.00127978,0.00229411,-0.00000754,0.00129003,-0.00237158,0
 .00000531,-0.00157734,0.00269515,-0.00000697\\\@


 10 WHATSOEVER THY HAND FINDETH TO DO, DO IT WITH THY  
 MIGHT. FOR THERE IS NO WORK, NOR DEVICE, NOR KNOWLEDGE, NOR  
 WISDOM, IN THE GRAVE, WHITHER THOU GOEST.                    
 11 I RETURNED AND SAW UNDER THE SUN, THAT THE RACE IS NOT TO 
 THE SWIFT, NOR THE BATTLE TO THE STRONG, NEITHER YET BREAD TO
 THE WISE, NOR YET RICHES TO MEN OF UNDERSTANDING, NOR YET    
 FAVOR TO MEN OF SKILL. BUT TIME AND CHANCE HAPPEN TO THEM ALL.
 12 FOR MAN ALSO KNOWETH NOT HIS TIME. AS THE FISHES   
 THAT ARE TAKEN IN AN EVIL NET, AND AS THE BIRDS THAT ARE     
 CAUGHT IN THE SNARE. SO ARE THE SONS OF MEN SNARED IN AN EVIL
 TIME, WHEN IT FALLETH SUDDENLY UPON THEM.
                                         ECCLESIASTES 9
 Job cpu time:       2 days 10 hours 13 minutes  9.0 seconds.
 File lengths (MBytes):  RWF=  14504 Int=      0 D2E=      0 Chk=     30 Scr=      1
 Normal termination of Gaussian 09 at Tue May 14 17:52:39 2024.
