 Entering Gaussian System, Link 0=g09
 Input=g09BDE.com
 Output=g09BDE.log
 Initial command:
 /hits/basement/its/doserbd/software/gaussian/g09d1/g09/l1.exe "/hits/basement/mbm/sucerquia/gaussian_scratch/Gau-3920.inp" -scrdir="/hits/basement/mbm/sucerquia/gaussian_scratch/"
 Entering Link 1 = /hits/basement/its/doserbd/software/gaussian/g09d1/g09/l1.exe PID=      3921.
  
 Copyright (c) 1988,1990,1992,1993,1995,1998,2003,2009,2013,
            Gaussian, Inc.  All Rights Reserved.
  
 This is part of the Gaussian(R) 09 program.  It is based on
 the Gaussian(R) 03 system (copyright 2003, Gaussian, Inc.),
 the Gaussian(R) 98 system (copyright 1998, Gaussian, Inc.),
 the Gaussian(R) 94 system (copyright 1995, Gaussian, Inc.),
 the Gaussian 92(TM) system (copyright 1992, Gaussian, Inc.),
 the Gaussian 90(TM) system (copyright 1990, Gaussian, Inc.),
 the Gaussian 88(TM) system (copyright 1988, Gaussian, Inc.),
 the Gaussian 86(TM) system (copyright 1986, Carnegie Mellon
 University), and the Gaussian 82(TM) system (copyright 1983,
 Carnegie Mellon University). Gaussian is a federally registered
 trademark of Gaussian, Inc.
  
 This software contains proprietary and confidential information,
 including trade secrets, belonging to Gaussian, Inc.
  
 This software is provided under written license and may be
 used, copied, transmitted, or stored only in accord with that
 written license.
  
 The following legend is applicable only to US Government
 contracts under FAR:
  
                    RESTRICTED RIGHTS LEGEND
  
 Use, reproduction and disclosure by the US Government is
 subject to restrictions as set forth in subparagraphs (a)
 and (c) of the Commercial Computer Software - Restricted
 Rights clause in FAR 52.227-19.
  
 Gaussian, Inc.
 340 Quinnipiac St., Bldg. 40, Wallingford CT 06492
  
  
 ---------------------------------------------------------------
 Warning -- This program may not be used in any manner that
 competes with the business of Gaussian, Inc. or will provide
 assistance to any competitor of Gaussian, Inc.  The licensee
 of this program is prohibited from giving any competitor of
 Gaussian, Inc. access to this program.  By using this program,
 the user acknowledges that Gaussian, Inc. is engaged in the
 business of creating and licensing software in the field of
 computational chemistry and represents and warrants to the
 licensee that it is not a competitor of Gaussian, Inc. and that
 it will not use this program in any manner prohibited above.
 ---------------------------------------------------------------
  

 Cite this work as:
 Gaussian 09, Revision D.01,
 M. J. Frisch, G. W. Trucks, H. B. Schlegel, G. E. Scuseria, 
 M. A. Robb, J. R. Cheeseman, G. Scalmani, V. Barone, B. Mennucci, 
 G. A. Petersson, H. Nakatsuji, M. Caricato, X. Li, H. P. Hratchian, 
 A. F. Izmaylov, J. Bloino, G. Zheng, J. L. Sonnenberg, M. Hada, 
 M. Ehara, K. Toyota, R. Fukuda, J. Hasegawa, M. Ishida, T. Nakajima, 
 Y. Honda, O. Kitao, H. Nakai, T. Vreven, J. A. Montgomery, Jr., 
 J. E. Peralta, F. Ogliaro, M. Bearpark, J. J. Heyd, E. Brothers, 
 K. N. Kudin, V. N. Staroverov, T. Keith, R. Kobayashi, J. Normand, 
 K. Raghavachari, A. Rendell, J. C. Burant, S. S. Iyengar, J. Tomasi, 
 M. Cossi, N. Rega, J. M. Millam, M. Klene, J. E. Knox, J. B. Cross, 
 V. Bakken, C. Adamo, J. Jaramillo, R. Gomperts, R. E. Stratmann, 
 O. Yazyev, A. J. Austin, R. Cammi, C. Pomelli, J. W. Ochterski, 
 R. L. Martin, K. Morokuma, V. G. Zakrzewski, G. A. Voth, 
 P. Salvador, J. J. Dannenberg, S. Dapprich, A. D. Daniels, 
 O. Farkas, J. B. Foresman, J. V. Ortiz, J. Cioslowski, 
 and D. J. Fox, Gaussian, Inc., Wallingford CT, 2013.
 
 ******************************************
 Gaussian 09:  ES64L-G09RevD.01 24-Apr-2013
                16-May-2024 
 ******************************************
 %chk=g09BDE
 %NProcShared=8
 Will use up to    8 processors via shared memory.
 ------------------
 #P bmk/6-31+g freq
 ------------------
 1/10=4,30=1,38=1/1,3;
 2/12=2,17=6,18=5,40=1/2;
 3/5=1,6=6,7=10,11=2,16=1,25=1,30=1,71=2,74=-34,140=1/1,2,3;
 4//1;
 5/5=2,38=5,98=1/2;
 8/6=4,10=90,11=11/1;
 11/6=1,8=1,9=11,15=111,16=1/1,2,10;
 10/6=1/2;
 6/7=2,8=2,9=2,10=2,18=1,28=1/1;
 7/8=1,10=1,25=1/1,2,3,16;
 1/10=4,30=1/3;
 99//99;
 Leave Link    1 at Thu May 16 16:50:58 2024, MaxMem=           0 cpu:         1.7
 (Enter /hits/basement/its/doserbd/software/gaussian/g09d1/g09/l101.exe)
 ------------------------------
 Gaussian input prepared by ASE
 ------------------------------
 Symbolic Z-matrix:
 Charge =  0 Multiplicity = 1
 C                    -6.28678   0.33988  -0.00038 
 C                    -2.0405    0.13384   0.00806 
 C                    -2.68239   1.40618   0.01186 
 C                    -4.08226   1.43064   0.00929 
 C                    -4.85505   0.24451   0.00284 
 C                    -4.21359  -1.02785  -0.00074 
 C                    -2.81382  -1.05241   0.0021 
 H                    -4.60901   2.38089   0.01191 
 H                    -2.28749  -2.00287  -0.00059 
 C                    -1.83895   2.67659   0.01827 
 H                    -1.17134   2.65585  -0.8591 
 H                    -1.17406   2.64877   0.89748 
 C                    -2.61959   4.00688   0.02245 
 H                    -3.27154   4.06346  -0.86423 
 H                    -3.27342   4.05673   0.90816 
 C                    -1.67298   5.22886   0.02812 
 H                    -1.01843   5.17506   0.91272 
 H                    -1.0166    5.1819   -0.85553 
 C                    -2.44153   6.56823   0.03252 
 H                    -3.08457   6.64507   0.92115 
 H                    -3.08255   6.65208  -0.85692 
 C                    -5.05784  -2.29778  -0.00749 
 H                    -5.72616  -2.27631   0.86934 
 H                    -5.722    -2.26981  -0.88729 
 C                    -4.27868  -3.62894  -0.01054 
 H                    -3.62469  -3.6802   -0.89603 
 H                    -3.62699  -3.6856    0.87631 
 C                    -5.22727  -4.84944  -0.0156 
 H                    -5.88371  -4.80067   0.86795 
 H                    -5.88145  -4.79508  -0.90049 
 C                    -4.4615   -6.19043  -0.01887 
 H                    -3.82095  -6.27509   0.87081 
 H                    -3.81843  -6.2693   -0.90727 
 C                    -7.50383   0.4228   -0.0037 
 H                    -1.75271   7.42378   0.03668 
 H                    -5.15219  -7.04448  -0.02263 
 C                    -8.93575   0.53089  -0.00933 
 C                    -9.55808   1.80349   0.0044 
 C                    -10.95588   1.9055   -0.00187 
 C                    -11.75246   0.74663  -0.02193 
 C                    -11.14183  -0.52047  -0.03549 
 C                    -9.7447   -0.6316   -0.02919 
 H                    -12.83724   0.82941  -0.02677 
 H                    -11.75352  -1.42012  -0.05111 
 H                    -8.93782   2.69671   0.01995 
 H                    -9.26804  -1.60916  -0.03955 
 H                    -11.4233   2.88804   0.00861 
 C                    -0.60912   0.03946   0.00934 
 C                     0.60919  -0.03784   0.00918 
 C                     6.2868   -0.33986  -0.00042 
 C                     2.04055  -0.1325    0.00797 
 C                     2.68212  -1.40507   0.01186 
 C                     4.08195  -1.42993   0.00938 
 C                     4.8551   -0.24401   0.00294 
 C                     4.21399   1.02852  -0.0007 
 C                     2.81421   1.05347   0.00207 
 H                     4.60843  -2.38033   0.01197 
 H                     2.28819   2.00412  -0.00066 
 C                     1.83843  -2.67526   0.01819 
 H                     1.171    -2.65443  -0.85931 
 H                     1.17332  -2.64733   0.89724 
 C                     2.61888  -4.00566   0.02258 
 H                     3.27113  -4.06227  -0.86388 
 H                     3.27237  -4.0557    0.90853 
 C                     1.67206  -5.22748   0.02787 
 H                     1.01729  -5.17365   0.91231 
 H                     1.01593  -5.18033  -0.85595 
 C                     2.4404   -6.56697   0.03237 
 H                     3.08316  -6.64399   0.92118 
 H                     3.08167  -6.65084  -0.85689 
 C                     5.05848   2.29829  -0.00748 
 H                     5.72696   2.2766    0.86922 
 H                     5.72251   2.27032  -0.88738 
 C                     4.27953   3.62958  -0.01026 
 H                     3.62553   3.68117  -0.89571 
 H                     3.62794   3.68622   0.87667 
 C                     5.22832   4.84994  -0.01516 
 H                     5.88478   4.80094   0.86836 
 H                     5.88246   4.79563  -0.90009 
 C                     4.46271   6.19102  -0.0182 
 H                     3.8221    6.27556   0.87145 
 H                     3.81969   6.27013  -0.90662 
 C                     7.50378  -0.42381  -0.00402 
 H                     1.75146  -7.42243   0.03624 
 H                     5.15348   7.045    -0.02174 
 C                     8.93565  -0.53254  -0.00939 
 C                     9.55735  -1.80545   0.00624 
 C                     10.95509  -1.90817  -0.00003 
 C                     11.75226  -0.74973  -0.022 
 C                     11.14229   0.51763  -0.03747 
 C                     9.74518   0.62949  -0.03116 
 H                     12.837   -0.83311  -0.02685 
 H                     11.7544   1.41697  -0.0546 
 H                     8.93661  -2.69831   0.02326 
 H                     9.26905   1.60729  -0.04301 
 H                     11.42202  -2.89093   0.01189 
 
 NAtoms=     96 NQM=       96 NQMF=       0 NMMI=      0 NMMIF=      0
                NMic=       0 NMicF=      0.
                    Isotopes and Nuclear Properties:
 (Nuclear quadrupole moments (NQMom) in fm**2, nuclear magnetic moments (NMagM)
  in nuclear magnetons)

  Atom         1           2           3           4           5           6           7           8           9          10
 IAtWgt=          12          12          12          12          12          12          12           1           1          12
 AtmWgt=  12.0000000  12.0000000  12.0000000  12.0000000  12.0000000  12.0000000  12.0000000   1.0078250   1.0078250  12.0000000
 NucSpn=           0           0           0           0           0           0           0           1           1           0
 AtZEff=   0.0000000   0.0000000   0.0000000   0.0000000   0.0000000   0.0000000   0.0000000   0.0000000   0.0000000   0.0000000
 NQMom=    0.0000000   0.0000000   0.0000000   0.0000000   0.0000000   0.0000000   0.0000000   0.0000000   0.0000000   0.0000000
 NMagM=    0.0000000   0.0000000   0.0000000   0.0000000   0.0000000   0.0000000   0.0000000   2.7928460   2.7928460   0.0000000
 AtZNuc=   6.0000000   6.0000000   6.0000000   6.0000000   6.0000000   6.0000000   6.0000000   1.0000000   1.0000000   6.0000000

  Atom        11          12          13          14          15          16          17          18          19          20
 IAtWgt=           1           1          12           1           1          12           1           1          12           1
 AtmWgt=   1.0078250   1.0078250  12.0000000   1.0078250   1.0078250  12.0000000   1.0078250   1.0078250  12.0000000   1.0078250
 NucSpn=           1           1           0           1           1           0           1           1           0           1
 AtZEff=   0.0000000   0.0000000   0.0000000   0.0000000   0.0000000   0.0000000   0.0000000   0.0000000   0.0000000   0.0000000
 NQMom=    0.0000000   0.0000000   0.0000000   0.0000000   0.0000000   0.0000000   0.0000000   0.0000000   0.0000000   0.0000000
 NMagM=    2.7928460   2.7928460   0.0000000   2.7928460   2.7928460   0.0000000   2.7928460   2.7928460   0.0000000   2.7928460
 AtZNuc=   1.0000000   1.0000000   6.0000000   1.0000000   1.0000000   6.0000000   1.0000000   1.0000000   6.0000000   1.0000000

  Atom        21          22          23          24          25          26          27          28          29          30
 IAtWgt=           1          12           1           1          12           1           1          12           1           1
 AtmWgt=   1.0078250  12.0000000   1.0078250   1.0078250  12.0000000   1.0078250   1.0078250  12.0000000   1.0078250   1.0078250
 NucSpn=           1           0           1           1           0           1           1           0           1           1
 AtZEff=   0.0000000   0.0000000   0.0000000   0.0000000   0.0000000   0.0000000   0.0000000   0.0000000   0.0000000   0.0000000
 NQMom=    0.0000000   0.0000000   0.0000000   0.0000000   0.0000000   0.0000000   0.0000000   0.0000000   0.0000000   0.0000000
 NMagM=    2.7928460   0.0000000   2.7928460   2.7928460   0.0000000   2.7928460   2.7928460   0.0000000   2.7928460   2.7928460
 AtZNuc=   1.0000000   6.0000000   1.0000000   1.0000000   6.0000000   1.0000000   1.0000000   6.0000000   1.0000000   1.0000000

  Atom        31          32          33          34          35          36          37          38          39          40
 IAtWgt=          12           1           1          12           1           1          12          12          12          12
 AtmWgt=  12.0000000   1.0078250   1.0078250  12.0000000   1.0078250   1.0078250  12.0000000  12.0000000  12.0000000  12.0000000
 NucSpn=           0           1           1           0           1           1           0           0           0           0
 AtZEff=   0.0000000   0.0000000   0.0000000   0.0000000   0.0000000   0.0000000   0.0000000   0.0000000   0.0000000   0.0000000
 NQMom=    0.0000000   0.0000000   0.0000000   0.0000000   0.0000000   0.0000000   0.0000000   0.0000000   0.0000000   0.0000000
 NMagM=    0.0000000   2.7928460   2.7928460   0.0000000   2.7928460   2.7928460   0.0000000   0.0000000   0.0000000   0.0000000
 AtZNuc=   6.0000000   1.0000000   1.0000000   6.0000000   1.0000000   1.0000000   6.0000000   6.0000000   6.0000000   6.0000000

  Atom        41          42          43          44          45          46          47          48          49          50
 IAtWgt=          12          12           1           1           1           1           1          12          12          12
 AtmWgt=  12.0000000  12.0000000   1.0078250   1.0078250   1.0078250   1.0078250   1.0078250  12.0000000  12.0000000  12.0000000
 NucSpn=           0           0           1           1           1           1           1           0           0           0
 AtZEff=   0.0000000   0.0000000   0.0000000   0.0000000   0.0000000   0.0000000   0.0000000   0.0000000   0.0000000   0.0000000
 NQMom=    0.0000000   0.0000000   0.0000000   0.0000000   0.0000000   0.0000000   0.0000000   0.0000000   0.0000000   0.0000000
 NMagM=    0.0000000   0.0000000   2.7928460   2.7928460   2.7928460   2.7928460   2.7928460   0.0000000   0.0000000   0.0000000
 AtZNuc=   6.0000000   6.0000000   1.0000000   1.0000000   1.0000000   1.0000000   1.0000000   6.0000000   6.0000000   6.0000000

  Atom        51          52          53          54          55          56          57          58          59          60
 IAtWgt=          12          12          12          12          12          12           1           1          12           1
 AtmWgt=  12.0000000  12.0000000  12.0000000  12.0000000  12.0000000  12.0000000   1.0078250   1.0078250  12.0000000   1.0078250
 NucSpn=           0           0           0           0           0           0           1           1           0           1
 AtZEff=   0.0000000   0.0000000   0.0000000   0.0000000   0.0000000   0.0000000   0.0000000   0.0000000   0.0000000   0.0000000
 NQMom=    0.0000000   0.0000000   0.0000000   0.0000000   0.0000000   0.0000000   0.0000000   0.0000000   0.0000000   0.0000000
 NMagM=    0.0000000   0.0000000   0.0000000   0.0000000   0.0000000   0.0000000   2.7928460   2.7928460   0.0000000   2.7928460
 AtZNuc=   6.0000000   6.0000000   6.0000000   6.0000000   6.0000000   6.0000000   1.0000000   1.0000000   6.0000000   1.0000000

  Atom        61          62          63          64          65          66          67          68          69          70
 IAtWgt=           1          12           1           1          12           1           1          12           1           1
 AtmWgt=   1.0078250  12.0000000   1.0078250   1.0078250  12.0000000   1.0078250   1.0078250  12.0000000   1.0078250   1.0078250
 NucSpn=           1           0           1           1           0           1           1           0           1           1
 AtZEff=   0.0000000   0.0000000   0.0000000   0.0000000   0.0000000   0.0000000   0.0000000   0.0000000   0.0000000   0.0000000
 NQMom=    0.0000000   0.0000000   0.0000000   0.0000000   0.0000000   0.0000000   0.0000000   0.0000000   0.0000000   0.0000000
 NMagM=    2.7928460   0.0000000   2.7928460   2.7928460   0.0000000   2.7928460   2.7928460   0.0000000   2.7928460   2.7928460
 AtZNuc=   1.0000000   6.0000000   1.0000000   1.0000000   6.0000000   1.0000000   1.0000000   6.0000000   1.0000000   1.0000000

  Atom        71          72          73          74          75          76          77          78          79          80
 IAtWgt=          12           1           1          12           1           1          12           1           1          12
 AtmWgt=  12.0000000   1.0078250   1.0078250  12.0000000   1.0078250   1.0078250  12.0000000   1.0078250   1.0078250  12.0000000
 NucSpn=           0           1           1           0           1           1           0           1           1           0
 AtZEff=   0.0000000   0.0000000   0.0000000   0.0000000   0.0000000   0.0000000   0.0000000   0.0000000   0.0000000   0.0000000
 NQMom=    0.0000000   0.0000000   0.0000000   0.0000000   0.0000000   0.0000000   0.0000000   0.0000000   0.0000000   0.0000000
 NMagM=    0.0000000   2.7928460   2.7928460   0.0000000   2.7928460   2.7928460   0.0000000   2.7928460   2.7928460   0.0000000
 AtZNuc=   6.0000000   1.0000000   1.0000000   6.0000000   1.0000000   1.0000000   6.0000000   1.0000000   1.0000000   6.0000000

  Atom        81          82          83          84          85          86          87          88          89          90
 IAtWgt=           1           1          12           1           1          12          12          12          12          12
 AtmWgt=   1.0078250   1.0078250  12.0000000   1.0078250   1.0078250  12.0000000  12.0000000  12.0000000  12.0000000  12.0000000
 NucSpn=           1           1           0           1           1           0           0           0           0           0
 AtZEff=   0.0000000   0.0000000   0.0000000   0.0000000   0.0000000   0.0000000   0.0000000   0.0000000   0.0000000   0.0000000
 NQMom=    0.0000000   0.0000000   0.0000000   0.0000000   0.0000000   0.0000000   0.0000000   0.0000000   0.0000000   0.0000000
 NMagM=    2.7928460   2.7928460   0.0000000   2.7928460   2.7928460   0.0000000   0.0000000   0.0000000   0.0000000   0.0000000
 AtZNuc=   1.0000000   1.0000000   6.0000000   1.0000000   1.0000000   6.0000000   6.0000000   6.0000000   6.0000000   6.0000000

  Atom        91          92          93          94          95          96
 IAtWgt=          12           1           1           1           1           1
 AtmWgt=  12.0000000   1.0078250   1.0078250   1.0078250   1.0078250   1.0078250
 NucSpn=           0           1           1           1           1           1
 AtZEff=   0.0000000   0.0000000   0.0000000   0.0000000   0.0000000   0.0000000
 NQMom=    0.0000000   0.0000000   0.0000000   0.0000000   0.0000000   0.0000000
 NMagM=    0.0000000   2.7928460   2.7928460   2.7928460   2.7928460   2.7928460
 AtZNuc=   6.0000000   1.0000000   1.0000000   1.0000000   1.0000000   1.0000000
 Leave Link  101 at Thu May 16 16:50:58 2024, MaxMem=    33554432 cpu:         1.9
 (Enter /hits/basement/its/doserbd/software/gaussian/g09d1/g09/l103.exe)

 GradGradGradGradGradGradGradGradGradGradGradGradGradGradGradGradGradGrad
 Berny optimization.
 Initialization pass.
 Trust Radius=3.00D-01 FncErr=1.00D-07 GrdErr=1.00D-07
 Number of steps in this run=      2 maximum allowed number of steps=      2.
 GradGradGradGradGradGradGradGradGradGradGradGradGradGradGradGradGradGrad

 Leave Link  103 at Thu May 16 16:50:58 2024, MaxMem=    33554432 cpu:         0.2
 (Enter /hits/basement/its/doserbd/software/gaussian/g09d1/g09/l202.exe)
 Stoichiometry    C46H50
 Framework group  C1[X(C46H50)]
 Deg. of freedom   282
 Full point group                 C1      NOp   1
 Largest Abelian subgroup         C1      NOp   1
 Largest concise Abelian subgroup C1      NOp   1
                         Standard orientation:                         
 ---------------------------------------------------------------------
 Center     Atomic      Atomic             Coordinates (Angstroms)
 Number     Number       Type             X           Y           Z
 ---------------------------------------------------------------------
      1          6           0       -6.286783    0.339878   -0.000383
      2          6           0       -2.040497    0.133839    0.008064
      3          6           0       -2.682389    1.406183    0.011857
      4          6           0       -4.082259    1.430636    0.009290
      5          6           0       -4.855048    0.244510    0.002837
      6          6           0       -4.213586   -1.027848   -0.000739
      7          6           0       -2.813823   -1.052413    0.002104
      8          1           0       -4.609009    2.380886    0.011906
      9          1           0       -2.287489   -2.002874   -0.000591
     10          6           0       -1.838947    2.676592    0.018267
     11          1           0       -1.171341    2.655849   -0.859095
     12          1           0       -1.174060    2.648767    0.897484
     13          6           0       -2.619593    4.006885    0.022447
     14          1           0       -3.271538    4.063463   -0.864232
     15          1           0       -3.273423    4.056728    0.908162
     16          6           0       -1.672979    5.228858    0.028115
     17          1           0       -1.018431    5.175058    0.912718
     18          1           0       -1.016604    5.181902   -0.855525
     19          6           0       -2.441533    6.568228    0.032524
     20          1           0       -3.084565    6.645065    0.921153
     21          1           0       -3.082550    6.652082   -0.856918
     22          6           0       -5.057844   -2.297777   -0.007488
     23          1           0       -5.726162   -2.276312    0.869337
     24          1           0       -5.722003   -2.269812   -0.887286
     25          6           0       -4.278676   -3.628940   -0.010539
     26          1           0       -3.624686   -3.680204   -0.896030
     27          1           0       -3.626994   -3.685599    0.876314
     28          6           0       -5.227268   -4.849443   -0.015596
     29          1           0       -5.883711   -4.800669    0.867952
     30          1           0       -5.881451   -4.795080   -0.900494
     31          6           0       -4.461503   -6.190431   -0.018869
     32          1           0       -3.820945   -6.275093    0.870805
     33          1           0       -3.818432   -6.269301   -0.907274
     34          6           0       -7.503830    0.422799   -0.003700
     35          1           0       -1.752714    7.423781    0.036679
     36          1           0       -5.152190   -7.044479   -0.022627
     37          6           0       -8.935745    0.530886   -0.009330
     38          6           0       -9.558080    1.803488    0.004402
     39          6           0      -10.955883    1.905496   -0.001869
     40          6           0      -11.752459    0.746627   -0.021928
     41          6           0      -11.141834   -0.520465   -0.035490
     42          6           0       -9.744697   -0.631598   -0.029187
     43          1           0      -12.837243    0.829405   -0.026773
     44          1           0      -11.753517   -1.420120   -0.051106
     45          1           0       -8.937822    2.696709    0.019950
     46          1           0       -9.268039   -1.609156   -0.039554
     47          1           0      -11.423298    2.888039    0.008608
     48          6           0       -0.609115    0.039457    0.009339
     49          6           0        0.609193   -0.037835    0.009177
     50          6           0        6.286803   -0.339859   -0.000417
     51          6           0        2.040553   -0.132503    0.007969
     52          6           0        2.682119   -1.405070    0.011856
     53          6           0        4.081946   -1.429925    0.009376
     54          6           0        4.855100   -0.244009    0.002941
     55          6           0        4.213994    1.028517   -0.000701
     56          6           0        2.814210    1.053472    0.002065
     57          1           0        4.608434   -2.380332    0.011967
     58          1           0        2.288194    2.004116   -0.000661
     59          6           0        1.838427   -2.675263    0.018185
     60          1           0        1.171001   -2.654433   -0.859311
     61          1           0        1.173316   -2.647330    0.897238
     62          6           0        2.618879   -4.005659    0.022580
     63          1           0        3.271127   -4.062274   -0.863880
     64          1           0        3.272371   -4.055705    0.908526
     65          6           0        1.672055   -5.227484    0.027870
     66          1           0        1.017289   -5.173648    0.912308
     67          1           0        1.015933   -5.180334   -0.855946
     68          6           0        2.440404   -6.566969    0.032367
     69          1           0        3.083164   -6.643989    0.921178
     70          1           0        3.081672   -6.650838   -0.856892
     71          6           0        5.058479    2.298294   -0.007478
     72          1           0        5.726955    2.276597    0.869215
     73          1           0        5.722509    2.270319   -0.887376
     74          6           0        4.279533    3.629582   -0.010255
     75          1           0        3.625526    3.681174   -0.895710
     76          1           0        3.627940    3.686215    0.876669
     77          6           0        5.228318    4.849937   -0.015160
     78          1           0        5.884778    4.800938    0.868361
     79          1           0        5.882464    4.795627   -0.900089
     80          6           0        4.462710    6.191018   -0.018200
     81          1           0        3.822102    6.275561    0.871453
     82          1           0        3.819691    6.270135   -0.906621
     83          6           0        7.503781   -0.423807   -0.004019
     84          1           0        1.751462   -7.422425    0.036241
     85          1           0        5.153481    7.044998   -0.021742
     86          6           0        8.935653   -0.532538   -0.009393
     87          6           0        9.557346   -1.805453    0.006242
     88          6           0       10.955087   -1.908172   -0.000031
     89          6           0       11.752262   -0.749725   -0.022000
     90          6           0       11.142291    0.517629   -0.037465
     91          6           0        9.745182    0.629491   -0.031163
     92          1           0       12.837001   -0.833105   -0.026847
     93          1           0       11.754402    1.416966   -0.054597
     94          1           0        8.936608   -2.698311    0.023258
     95          1           0        9.269047    1.607285   -0.043007
     96          1           0       11.422021   -2.890927    0.011886
 ---------------------------------------------------------------------
 Rotational constants (GHZ):      0.0912229      0.0208914      0.0170276
 Leave Link  202 at Thu May 16 16:50:58 2024, MaxMem=    33554432 cpu:         0.0
 (Enter /hits/basement/its/doserbd/software/gaussian/g09d1/g09/l301.exe)
 Standard basis: 6-31+G (6D, 7F)
 Ernie: Thresh=  0.10000D-02 Tol=  0.10000D-05 Strict=F.
 There are   698 symmetry adapted cartesian basis functions of A   symmetry.
 There are   698 symmetry adapted basis functions of A   symmetry.
   698 basis functions,  1396 primitive gaussians,   698 cartesian basis functions
   163 alpha electrons      163 beta electrons
       nuclear repulsion energy      4654.3230262377 Hartrees.
 IExCor= 3226 DFT=T Ex+Corr=BMK ExCW=0 ScaHFX=  0.420000
 ScaDFX=  1.000000  1.000000  1.000000  1.000000 ScalE2=  1.000000  1.000000
 IRadAn=      0 IRanWt=     -1 IRanGd=            0 ICorTp=0 IEmpDi=  4
 NAtoms=   96 NActive=   96 NUniq=   96 SFac= 1.00D+00 NAtFMM=   60 NAOKFM=T Big=T
 Integral buffers will be    131072 words long.
 Raffenetti 2 integral format.
 Two-electron integral symmetry is turned on.
 Leave Link  301 at Thu May 16 16:50:58 2024, MaxMem=    33554432 cpu:         0.6
 (Enter /hits/basement/its/doserbd/software/gaussian/g09d1/g09/l302.exe)
 NPDir=0 NMtPBC=     1 NCelOv=     1 NCel=       1 NClECP=     1 NCelD=      1
         NCelK=      1 NCelE2=     1 NClLst=     1 CellRange=     0.0.
 One-electron integrals computed using PRISM.
 PrsmSu:  requested number of processors reduced to:   7 ShMem   1 Linda.
 NBasis=   698 RedAO= T EigKep=  1.50D-06  NBF=   698
 NBsUse=   673 1.00D-06 EigRej=  8.62D-07 NBFU=   673
 Precomputing XC quadrature grid using
 IXCGrd= 4 IRadAn=           0 IRanWt=          -1 IRanGd=           0 AccXCQ= 0.00D+00.
 Generated NRdTot=       0 NPtTot=           0 NUsed=           0 NTot=          32
 NSgBfM=   636   638   638   638   638 MxSgAt=    96 MxSgA2=    96.
 Leave Link  302 at Thu May 16 16:51:00 2024, MaxMem=    33554432 cpu:        15.9
 (Enter /hits/basement/its/doserbd/software/gaussian/g09d1/g09/l303.exe)
 DipDrv:  MaxL=1.
 Leave Link  303 at Thu May 16 16:51:01 2024, MaxMem=    33554432 cpu:         1.6
 (Enter /hits/basement/its/doserbd/software/gaussian/g09d1/g09/l401.exe)
 ExpMin= 4.38D-02 ExpMax= 3.05D+03 ExpMxC= 4.57D+02 IAcc=2 IRadAn=         4 AccDes= 0.00D+00
 Harris functional with IExCor= 1009 and IRadAn=       4 diagonalized for initial guess.
 HarFok:  IExCor= 1009 AccDes= 0.00D+00 IRadAn=         4 IDoV= 1 UseB2=F ITyADJ=14
 ICtDFT=  3500011 ScaDFX=  1.000000  1.000000  1.000000  1.000000
 FoFCou: FMM=F IPFlag=           0 FMFlag=      100000 FMFlg1=        2001
         NFxFlg=           0 DoJE=T BraDBF=F KetDBF=T FulRan=T
         wScrn=  0.000000 ICntrl=     500 IOpCl=  0 I1Cent=   200000004 NGrid=           0
         NMat0=    1 NMatS0=      1 NMatT0=    0 NMatD0=    1 NMtDS0=    0 NMtDT0=    0
 Petite list used in FoFCou.
 Harris En= -1780.95157862633    
 JPrj=0 DoOrth=F DoCkMO=F.
 Leave Link  401 at Thu May 16 16:51:07 2024, MaxMem=    33554432 cpu:        51.0
 (Enter /hits/basement/its/doserbd/software/gaussian/g09d1/g09/l502.exe)
 Closed shell SCF:
 Using DIIS extrapolation, IDIIS=  1040.
 Integral symmetry usage will be decided dynamically.
 IVT=     1491108 IEndB=     1491108 NGot=    33554432 MDV=    32567867
 LenX=    32567867 LenY=    32079965
 Requested convergence on RMS density matrix=1.00D-08 within 128 cycles.
 Requested convergence on MAX density matrix=1.00D-06.
 Requested convergence on             energy=1.00D-06.
 No special actions if energy rises.
 Fock matrices will be formed incrementally for  20 cycles.

 Cycle   1  Pass 1  IDiag  1:
 FoFJK:  IHMeth= 1 ICntrl=       0 DoSepK=F KAlg= 0 I1Cent=   0 FoldK=F
 IRaf= 710000000 NMat=   1 IRICut=       1 DoRegI=T DoRafI=F ISym2E= 0.
 FoFCou: FMM=T IPFlag=           0 FMFlag=      100000 FMFlg1=        2001
         NFxFlg=           0 DoJE=F BraDBF=F KetDBF=F FulRan=T
         wScrn=  0.000000 ICntrl=       0 IOpCl=  0 I1Cent=           0 NGrid=           0
         NMat0=    1 NMatS0=      1 NMatT0=    0 NMatD0=    1 NMtDS0=    0 NMtDT0=    0
 Symmetry not used in FoFCou.
 FMM levels:  10  Number of levels for PrismC:   9
 E= -1780.37011137063    
 DIIS: error= 3.97D-02 at cycle   1 NSaved=   1.
 NSaved= 1 IEnMin= 1 EnMin= -1780.37011137063     IErMin= 1 ErrMin= 3.97D-02
 ErrMax= 3.97D-02  0.00D+00 EMaxC= 1.00D-01 BMatC= 7.77D-01 BMatP= 7.77D-01
 IDIUse=3 WtCom= 6.03D-01 WtEn= 3.97D-01
 Coeff-Com:  0.100D+01
 Coeff-En:   0.100D+01
 Coeff:      0.100D+01
 Gap=     0.171 Goal=   None    Shift=    0.000
 GapD=    0.171 DampG=1.000 DampE=0.500 DampFc=0.5000 IDamp=-1.
 Damping current iteration by 5.00D-01
 RMSDP=5.24D-02 MaxDP=5.50D+00              OVMax= 1.37D-01

 Cycle   2  Pass 1  IDiag  1:
 RMSU=  1.97D-02    CP:  1.25D+00
 E= -1780.85870813942     Delta-E=       -0.488596768795 Rises=F Damp=T
 DIIS: error= 8.43D-03 at cycle   2 NSaved=   2.
 NSaved= 2 IEnMin= 2 EnMin= -1780.85870813942     IErMin= 2 ErrMin= 8.43D-03
 ErrMax= 8.43D-03  0.00D+00 EMaxC= 1.00D-01 BMatC= 3.04D-02 BMatP= 7.77D-01
 IDIUse=3 WtCom= 9.16D-01 WtEn= 8.43D-02
 Coeff-Com: -0.983D-01 0.110D+01
 Coeff-En:   0.000D+00 0.100D+01
 Coeff:     -0.900D-01 0.109D+01
 Gap=     0.168 Goal=   None    Shift=    0.000
 RMSDP=1.45D-02 MaxDP=1.74D+00 DE=-4.89D-01 OVMax= 5.98D-02

 Cycle   3  Pass 1  IDiag  1:
 RMSU=  1.42D-02    CP:  1.30D+00  9.98D-01
 E= -1781.29370910767     Delta-E=       -0.435000968252 Rises=F Damp=F
 DIIS: error= 3.06D-03 at cycle   3 NSaved=   3.
 NSaved= 3 IEnMin= 3 EnMin= -1781.29370910767     IErMin= 3 ErrMin= 3.06D-03
 ErrMax= 3.06D-03  0.00D+00 EMaxC= 1.00D-01 BMatC= 4.95D-03 BMatP= 3.04D-02
 IDIUse=3 WtCom= 9.69D-01 WtEn= 3.06D-02
 Coeff-Com: -0.383D-01 0.292D+00 0.746D+00
 Coeff-En:   0.000D+00 0.000D+00 0.100D+01
 Coeff:     -0.371D-01 0.283D+00 0.754D+00
 Gap=     0.171 Goal=   None    Shift=    0.000
 RMSDP=1.98D-03 MaxDP=1.27D-01 DE=-4.35D-01 OVMax= 2.60D-02

 Cycle   4  Pass 1  IDiag  1:
 RMSU=  1.52D-03    CP:  1.32D+00  1.03D+00  9.79D-01
 E= -1781.29825289658     Delta-E=       -0.004543788906 Rises=F Damp=F
 DIIS: error= 2.62D-03 at cycle   4 NSaved=   4.
 NSaved= 4 IEnMin= 4 EnMin= -1781.29825289658     IErMin= 4 ErrMin= 2.62D-03
 ErrMax= 2.62D-03  0.00D+00 EMaxC= 1.00D-01 BMatC= 1.29D-03 BMatP= 4.95D-03
 IDIUse=3 WtCom= 9.74D-01 WtEn= 2.62D-02
 Coeff-Com: -0.253D-02 0.210D-01 0.337D+00 0.644D+00
 Coeff-En:   0.000D+00 0.000D+00 0.170D+00 0.830D+00
 Coeff:     -0.247D-02 0.204D-01 0.333D+00 0.649D+00
 Gap=     0.170 Goal=   None    Shift=    0.000
 RMSDP=1.22D-03 MaxDP=1.34D-01 DE=-4.54D-03 OVMax= 1.15D-02

 Cycle   5  Pass 1  IDiag  1:
 RMSU=  5.42D-04    CP:  1.30D+00  1.01D+00  9.78D-01  7.08D-01
 E= -1781.29975252548     Delta-E=       -0.001499628900 Rises=F Damp=F
 DIIS: error= 1.14D-03 at cycle   5 NSaved=   5.
 NSaved= 5 IEnMin= 5 EnMin= -1781.29975252548     IErMin= 5 ErrMin= 1.14D-03
 ErrMax= 1.14D-03  0.00D+00 EMaxC= 1.00D-01 BMatC= 1.47D-04 BMatP= 1.29D-03
 IDIUse=3 WtCom= 9.89D-01 WtEn= 1.14D-02
 Coeff-Com:  0.142D-02-0.567D-02 0.139D+00 0.355D+00 0.510D+00
 Coeff-En:   0.000D+00 0.000D+00 0.000D+00 0.000D+00 0.100D+01
 Coeff:      0.140D-02-0.561D-02 0.138D+00 0.351D+00 0.515D+00
 Gap=     0.170 Goal=   None    Shift=    0.000
 RMSDP=2.05D-04 MaxDP=1.33D-02 DE=-1.50D-03 OVMax= 3.43D-03

 Cycle   6  Pass 1  IDiag  1:
 RMSU=  1.13D-04    CP:  1.30D+00  1.01D+00  9.83D-01  7.50D-01  8.14D-01
 E= -1781.29992402219     Delta-E=       -0.000171496706 Rises=F Damp=F
 DIIS: error= 1.73D-04 at cycle   6 NSaved=   6.
 NSaved= 6 IEnMin= 6 EnMin= -1781.29992402219     IErMin= 6 ErrMin= 1.73D-04
 ErrMax= 1.73D-04  0.00D+00 EMaxC= 1.00D-01 BMatC= 5.90D-06 BMatP= 1.47D-04
 IDIUse=3 WtCom= 9.98D-01 WtEn= 1.73D-03
 Coeff-Com:  0.112D-02-0.451D-02 0.264D-01 0.897D-01 0.208D+00 0.679D+00
 Coeff-En:   0.000D+00 0.000D+00 0.000D+00 0.000D+00 0.000D+00 0.100D+01
 Coeff:      0.112D-02-0.450D-02 0.263D-01 0.895D-01 0.208D+00 0.679D+00
 Gap=     0.170 Goal=   None    Shift=    0.000
 RMSDP=6.07D-05 MaxDP=4.22D-03 DE=-1.71D-04 OVMax= 1.14D-03

 Cycle   7  Pass 1  IDiag  1:
 RMSU=  3.41D-05    CP:  1.30D+00  1.01D+00  9.84D-01  7.57D-01  8.39D-01
                    CP:  9.51D-01
 E= -1781.29992913485     Delta-E=       -0.000005112662 Rises=F Damp=F
 DIIS: error= 7.53D-05 at cycle   7 NSaved=   7.
 NSaved= 7 IEnMin= 7 EnMin= -1781.29992913485     IErMin= 7 ErrMin= 7.53D-05
 ErrMax= 7.53D-05  0.00D+00 EMaxC= 1.00D-01 BMatC= 2.19D-06 BMatP= 5.90D-06
 IDIUse=1 WtCom= 1.00D+00 WtEn= 0.00D+00
 Coeff-Com:  0.559D-03-0.210D-02-0.512D-02 0.263D-02 0.532D-01 0.424D+00
 Coeff-Com:  0.527D+00
 Coeff:      0.559D-03-0.210D-02-0.512D-02 0.263D-02 0.532D-01 0.424D+00
 Coeff:      0.527D+00
 Gap=     0.170 Goal=   None    Shift=    0.000
 RMSDP=2.95D-05 MaxDP=3.65D-03 DE=-5.11D-06 OVMax= 4.54D-04

 Cycle   8  Pass 1  IDiag  1:
 RMSU=  1.26D-05    CP:  1.30D+00  1.01D+00  9.84D-01  7.62D-01  8.47D-01
                    CP:  9.89D-01  9.90D-01
 E= -1781.29993144596     Delta-E=       -0.000002311111 Rises=F Damp=F
 DIIS: error= 2.05D-05 at cycle   8 NSaved=   8.
 NSaved= 8 IEnMin= 8 EnMin= -1781.29993144596     IErMin= 8 ErrMin= 2.05D-05
 ErrMax= 2.05D-05  0.00D+00 EMaxC= 1.00D-01 BMatC= 1.44D-07 BMatP= 2.19D-06
 IDIUse=1 WtCom= 1.00D+00 WtEn= 0.00D+00
 Coeff-Com:  0.212D-03-0.770D-03-0.507D-02-0.649D-02 0.103D-01 0.167D+00
 Coeff-Com:  0.277D+00 0.558D+00
 Coeff:      0.212D-03-0.770D-03-0.507D-02-0.649D-02 0.103D-01 0.167D+00
 Coeff:      0.277D+00 0.558D+00
 Gap=     0.170 Goal=   None    Shift=    0.000
 RMSDP=6.56D-06 MaxDP=4.67D-04 DE=-2.31D-06 OVMax= 1.29D-04

 Cycle   9  Pass 1  IDiag  1:
 RMSU=  3.89D-06    CP:  1.30D+00  1.01D+00  9.84D-01  7.63D-01  8.51D-01
                    CP:  1.00D+00  1.03D+00  1.03D+00
 E= -1781.29993159037     Delta-E=       -0.000000144410 Rises=F Damp=F
 DIIS: error= 9.37D-06 at cycle   9 NSaved=   9.
 NSaved= 9 IEnMin= 9 EnMin= -1781.29993159037     IErMin= 9 ErrMin= 9.37D-06
 ErrMax= 9.37D-06  0.00D+00 EMaxC= 1.00D-01 BMatC= 2.22D-08 BMatP= 1.44D-07
 IDIUse=1 WtCom= 1.00D+00 WtEn= 0.00D+00
 Coeff-Com: -0.712D-05 0.346D-04-0.158D-02-0.413D-02-0.633D-02-0.553D-02
 Coeff-Com:  0.289D-01 0.300D+00 0.688D+00
 Coeff:     -0.712D-05 0.346D-04-0.158D-02-0.413D-02-0.633D-02-0.553D-02
 Coeff:      0.289D-01 0.300D+00 0.688D+00
 Gap=     0.170 Goal=   None    Shift=    0.000
 RMSDP=3.68D-06 MaxDP=2.81D-04 DE=-1.44D-07 OVMax= 7.08D-05

 Cycle  10  Pass 1  IDiag  1:
 RMSU=  2.24D-06    CP:  1.30D+00  1.01D+00  9.84D-01  7.63D-01  8.54D-01
                    CP:  1.01D+00  1.06D+00  1.09D+00  9.21D-01
 E= -1781.29993161798     Delta-E=       -0.000000027616 Rises=F Damp=F
 DIIS: error= 3.43D-06 at cycle  10 NSaved=  10.
 NSaved=10 IEnMin=10 EnMin= -1781.29993161798     IErMin=10 ErrMin= 3.43D-06
 ErrMax= 3.43D-06  0.00D+00 EMaxC= 1.00D-01 BMatC= 2.57D-09 BMatP= 2.22D-08
 IDIUse=1 WtCom= 1.00D+00 WtEn= 0.00D+00
 Coeff-Com: -0.201D-04 0.764D-04-0.406D-03-0.161D-02-0.416D-02-0.161D-01
 Coeff-Com: -0.704D-02 0.114D+00 0.370D+00 0.545D+00
 Coeff:     -0.201D-04 0.764D-04-0.406D-03-0.161D-02-0.416D-02-0.161D-01
 Coeff:     -0.704D-02 0.114D+00 0.370D+00 0.545D+00
 Gap=     0.170 Goal=   None    Shift=    0.000
 RMSDP=8.12D-07 MaxDP=4.83D-05 DE=-2.76D-08 OVMax= 2.14D-05

 Cycle  11  Pass 1  IDiag  1:
 RMSU=  5.02D-07    CP:  1.30D+00  1.01D+00  9.84D-01  7.63D-01  8.55D-01
                    CP:  1.01D+00  1.06D+00  1.11D+00  1.01D+00  9.74D-01
 E= -1781.29993162114     Delta-E=       -0.000000003153 Rises=F Damp=F
 DIIS: error= 6.99D-07 at cycle  11 NSaved=  11.
 NSaved=11 IEnMin=11 EnMin= -1781.29993162114     IErMin=11 ErrMin= 6.99D-07
 ErrMax= 6.99D-07  0.00D+00 EMaxC= 1.00D-01 BMatC= 7.11D-11 BMatP= 2.57D-09
 IDIUse=1 WtCom= 1.00D+00 WtEn= 0.00D+00
 Coeff-Com: -0.333D-05 0.118D-04 0.116D-03 0.191D-03-0.134D-03-0.232D-02
 Coeff-Com: -0.507D-02-0.140D-01-0.864D-02 0.121D+00 0.909D+00
 Coeff:     -0.333D-05 0.118D-04 0.116D-03 0.191D-03-0.134D-03-0.232D-02
 Coeff:     -0.507D-02-0.140D-01-0.864D-02 0.121D+00 0.909D+00
 Gap=     0.170 Goal=   None    Shift=    0.000
 RMSDP=7.26D-07 MaxDP=8.14D-05 DE=-3.15D-09 OVMax= 6.67D-06

 Cycle  12  Pass 1  IDiag  1:
 RMSU=  5.20D-07    CP:  1.30D+00  1.01D+00  9.84D-01  7.62D-01  8.55D-01
                    CP:  1.01D+00  1.07D+00  1.12D+00  1.04D+00  1.03D+00
                    CP:  1.04D+00
 E= -1781.29993162085     Delta-E=        0.000000000284 Rises=F Damp=F
 DIIS: error= 1.42D-07 at cycle  12 NSaved=  12.
 NSaved=12 IEnMin=11 EnMin= -1781.29993162114     IErMin=12 ErrMin= 1.42D-07
 ErrMax= 1.42D-07  0.00D+00 EMaxC= 1.00D-01 BMatC= 1.12D-11 BMatP= 7.11D-11
 IDIUse=1 WtCom= 1.00D+00 WtEn= 0.00D+00
 Coeff-Com: -0.752D-06 0.243D-05 0.710D-04 0.157D-03 0.126D-03-0.289D-03
 Coeff-Com: -0.200D-02-0.119D-01-0.223D-01 0.270D-01 0.409D+00 0.600D+00
 Coeff:     -0.752D-06 0.243D-05 0.710D-04 0.157D-03 0.126D-03-0.289D-03
 Coeff:     -0.200D-02-0.119D-01-0.223D-01 0.270D-01 0.409D+00 0.600D+00
 Gap=     0.170 Goal=   None    Shift=    0.000
 RMSDP=2.97D-07 MaxDP=4.32D-05 DE= 2.84D-10 OVMax= 1.20D-06

 Cycle  13  Pass 1  IDiag  1:
 RMSU=  1.44D-07    CP:  1.30D+00  1.01D+00  9.84D-01  7.62D-01  8.55D-01
                    CP:  1.01D+00  1.07D+00  1.12D+00  1.04D+00  1.06D+00
                    CP:  1.12D+00  1.25D+00
 E= -1781.29993162072     Delta-E=        0.000000000135 Rises=F Damp=F
 DIIS: error= 5.03D-08 at cycle  13 NSaved=  13.
 NSaved=13 IEnMin=11 EnMin= -1781.29993162114     IErMin=13 ErrMin= 5.03D-08
 ErrMax= 5.03D-08  0.00D+00 EMaxC= 1.00D-01 BMatC= 7.84D-13 BMatP= 1.12D-11
 IDIUse=1 WtCom= 1.00D+00 WtEn= 0.00D+00
 Coeff-Com:  0.147D-06-0.681D-06 0.922D-05 0.282D-04 0.683D-04 0.247D-03
 Coeff-Com:  0.802D-05-0.224D-02-0.663D-02-0.755D-02 0.174D-01 0.205D+00
 Coeff-Com:  0.793D+00
 Coeff:      0.147D-06-0.681D-06 0.922D-05 0.282D-04 0.683D-04 0.247D-03
 Coeff:      0.802D-05-0.224D-02-0.663D-02-0.755D-02 0.174D-01 0.205D+00
 Coeff:      0.793D+00
 Gap=     0.170 Goal=   None    Shift=    0.000
 RMSDP=5.52D-07 MaxDP=7.06D-05 DE= 1.35D-10 OVMax= 4.74D-07

 Cycle  14  Pass 1  IDiag  1:
 RMSU=  2.13D-07    CP:  1.30D+00  1.01D+00  9.84D-01  7.62D-01  8.55D-01
                    CP:  1.01D+00  1.07D+00  1.12D+00  1.03D+00  1.09D+00
                    CP:  1.27D+00  1.75D+00  2.54D+00
 E= -1781.29993162125     Delta-E=       -0.000000000533 Rises=F Damp=F
 DIIS: error= 3.00D-08 at cycle  14 NSaved=  14.
 NSaved=14 IEnMin=14 EnMin= -1781.29993162125     IErMin=14 ErrMin= 3.00D-08
 ErrMax= 3.00D-08  0.00D+00 EMaxC= 1.00D-01 BMatC= 2.10D-13 BMatP= 7.84D-13
 IDIUse=1 WtCom= 1.00D+00 WtEn= 0.00D+00
 Coeff-Com:  0.119D-06-0.526D-06 0.506D-06 0.513D-05 0.306D-04 0.161D-03
 Coeff-Com:  0.130D-03-0.477D-03-0.226D-02-0.629D-02-0.186D-01 0.790D-01
 Coeff-Com:  0.443D+00 0.505D+00
 Coeff:      0.119D-06-0.526D-06 0.506D-06 0.513D-05 0.306D-04 0.161D-03
 Coeff:      0.130D-03-0.477D-03-0.226D-02-0.629D-02-0.186D-01 0.790D-01
 Coeff:      0.443D+00 0.505D+00
 Gap=     0.170 Goal=   None    Shift=    0.000
 RMSDP=4.88D-07 MaxDP=6.04D-05 DE=-5.33D-10 OVMax= 1.52D-07

 Cycle  15  Pass 1  IDiag  1:
 RMSU=  1.83D-07    CP:  1.30D+00  1.01D+00  9.84D-01  7.62D-01  8.56D-01
                    CP:  1.01D+00  1.07D+00  1.12D+00  1.03D+00  1.12D+00
                    CP:  1.42D+00  2.14D+00  3.00D+00  2.13D+00
 E= -1781.29993162073     Delta-E=        0.000000000520 Rises=F Damp=F
 DIIS: error= 2.75D-08 at cycle  15 NSaved=  15.
 NSaved=15 IEnMin=14 EnMin= -1781.29993162125     IErMin=15 ErrMin= 2.75D-08
 ErrMax= 2.75D-08  0.00D+00 EMaxC= 1.00D-01 BMatC= 9.26D-14 BMatP= 2.10D-13
 IDIUse=1 WtCom= 1.00D+00 WtEn= 0.00D+00
 Coeff-Com:  0.103D-06-0.458D-06 0.447D-06 0.446D-05 0.270D-04 0.142D-03
 Coeff-Com:  0.113D-03-0.422D-03-0.199D-02-0.555D-02-0.164D-01 0.702D-01
 Coeff-Com:  0.390D+00 0.442D+00 0.122D+00
 Coeff:      0.103D-06-0.458D-06 0.447D-06 0.446D-05 0.270D-04 0.142D-03
 Coeff:      0.113D-03-0.422D-03-0.199D-02-0.555D-02-0.164D-01 0.702D-01
 Coeff:      0.390D+00 0.442D+00 0.122D+00
 Gap=     0.170 Goal=   None    Shift=    0.000
 RMSDP=1.70D-07 MaxDP=2.14D-05 DE= 5.20D-10 OVMax= 1.12D-08

 Cycle  16  Pass 1  IDiag  1:
 RMSU=  3.90D-08    CP:  1.30D+00  1.01D+00  9.84D-01  7.62D-01  8.56D-01
                    CP:  1.01D+00  1.07D+00  1.12D+00  1.03D+00  1.13D+00
                    CP:  1.47D+00  2.28D+00  3.00D+00  2.48D+00  1.43D+00
 E= -1781.29993162051     Delta-E=        0.000000000225 Rises=F Damp=F
 DIIS: error= 2.87D-08 at cycle  16 NSaved=  16.
 NSaved=16 IEnMin=14 EnMin= -1781.29993162125     IErMin=15 ErrMin= 2.75D-08
 ErrMax= 2.87D-08  0.00D+00 EMaxC= 1.00D-01 BMatC= 1.08D-13 BMatP= 9.26D-14
 IDIUse=1 WtCom= 1.00D+00 WtEn= 0.00D+00
 Large coefficients: NSaved= 16 BigCof=    0.00 CofMax=   10.00 Det=-6.04D-15
 Inversion failed.  Reducing to 15 matrices.
 Coeff-Com: -0.724D-07 0.798D-06 0.296D-05 0.177D-04 0.867D-04 0.533D-04
 Coeff-Com: -0.367D-03-0.157D-02-0.449D-02-0.132D-01 0.666D-01 0.361D+00
 Coeff-Com:  0.426D+00 0.423D+00-0.257D+00
 Coeff:     -0.724D-07 0.798D-06 0.296D-05 0.177D-04 0.867D-04 0.533D-04
 Coeff:     -0.367D-03-0.157D-02-0.449D-02-0.132D-01 0.666D-01 0.361D+00
 Coeff:      0.426D+00 0.423D+00-0.257D+00
 Gap=     0.170 Goal=   None    Shift=    0.000
 RMSDP=6.65D-08 MaxDP=6.97D-06 DE= 2.25D-10 OVMax= 4.24D-09

 Cycle  17  Pass 1  IDiag  1:
 RMSU=  6.04D-08    CP:  1.30D+00  1.01D+00  9.84D-01  7.62D-01  8.56D-01
                    CP:  1.01D+00  1.07D+00  1.12D+00  1.03D+00  1.13D+00
                    CP:  1.47D+00  2.30D+00  3.00D+00  2.43D+00  1.37D+00
                    CP:  6.66D-01
 E= -1781.29993162052     Delta-E=       -0.000000000012 Rises=F Damp=F
 DIIS: error= 2.96D-08 at cycle  17 NSaved=  16.
 NSaved=16 IEnMin=13 EnMin= -1781.29993162125     IErMin=14 ErrMin= 2.75D-08
 ErrMax= 2.96D-08  0.00D+00 EMaxC= 1.00D-01 BMatC= 1.17D-13 BMatP= 9.26D-14
 IDIUse=1 WtCom= 1.00D+00 WtEn= 0.00D+00
 Large coefficients: NSaved= 16 BigCof=    0.00 CofMax=   10.00 Det=-4.27D-15
 Inversion failed.  Reducing to 15 matrices.
 Coeff-Com:  0.799D-06 0.272D-05 0.170D-04 0.838D-04 0.508D-04-0.361D-03
 Coeff-Com: -0.154D-02-0.445D-02-0.132D-01 0.665D-01 0.361D+00 0.428D+00
 Coeff-Com:  0.450D+00-0.893D-02-0.276D+00
 Coeff:      0.799D-06 0.272D-05 0.170D-04 0.838D-04 0.508D-04-0.361D-03
 Coeff:     -0.154D-02-0.445D-02-0.132D-01 0.665D-01 0.361D+00 0.428D+00
 Coeff:      0.450D+00-0.893D-02-0.276D+00
 Gap=     0.170 Goal=   None    Shift=    0.000
 RMSDP=9.71D-08 MaxDP=1.21D-05 DE=-1.18D-11 OVMax= 5.88D-09

 Cycle  18  Pass 1  IDiag  1:
 RMSU=  7.12D-08    CP:  1.30D+00  1.01D+00  9.84D-01  7.62D-01  8.56D-01
                    CP:  1.01D+00  1.07D+00  1.12D+00  1.03D+00  1.13D+00
                    CP:  1.48D+00  2.22D+00  3.00D+00  2.51D+00  1.52D+00
                    CP:  1.50D+00  6.63D-01
 E= -1781.29993162048     Delta-E=        0.000000000042 Rises=F Damp=F
 DIIS: error= 2.40D-08 at cycle  18 NSaved=  16.
 NSaved=16 IEnMin=12 EnMin= -1781.29993162125     IErMin=16 ErrMin= 2.40D-08
 ErrMax= 2.40D-08  0.00D+00 EMaxC= 1.00D-01 BMatC= 1.27D-13 BMatP= 9.26D-14
 IDIUse=1 WtCom= 1.00D+00 WtEn= 0.00D+00
 Large coefficients: NSaved= 16 BigCof=    0.00 CofMax=   10.00 Det=-2.76D-15
 Inversion failed.  Reducing to 15 matrices.
 Coeff-Com:  0.682D-06 0.134D-04 0.762D-04 0.581D-04-0.229D-03-0.119D-02
 Coeff-Com: -0.413D-02-0.145D-01 0.568D-01 0.321D+00 0.413D+00 0.122D+01
 Coeff-Com: -0.863D+00-0.889D+00 0.764D+00
 Coeff:      0.682D-06 0.134D-04 0.762D-04 0.581D-04-0.229D-03-0.119D-02
 Coeff:     -0.413D-02-0.145D-01 0.568D-01 0.321D+00 0.413D+00 0.122D+01
 Coeff:     -0.863D+00-0.889D+00 0.764D+00
 Gap=     0.170 Goal=   None    Shift=    0.000
 RMSDP=3.44D-07 MaxDP=4.84D-05 DE= 4.18D-11 OVMax= 1.88D-08

 Cycle  19  Pass 1  IDiag  1:
 RMSU=  1.90D-07    CP:  1.30D+00  1.01D+00  9.84D-01  7.62D-01  8.56D-01
                    CP:  1.01D+00  1.07D+00  1.12D+00  1.02D+00  1.12D+00
                    CP:  1.35D+00  1.80D+00  3.00D+00  2.45D+00  1.26D+00
                    CP: -1.23D+00  4.50D-01  1.57D+00
 E= -1781.29993162027     Delta-E=        0.000000000207 Rises=F Damp=F
 DIIS: error= 2.49D-08 at cycle  19 NSaved=  16.
 NSaved=16 IEnMin=11 EnMin= -1781.29993162125     IErMin=15 ErrMin= 2.40D-08
 ErrMax= 2.49D-08  0.00D+00 EMaxC= 1.00D-01 BMatC= 1.06D-13 BMatP= 9.26D-14
 IDIUse=1 WtCom= 1.00D+00 WtEn= 0.00D+00
 Large coefficients: NSaved= 16 BigCof=    0.00 CofMax=   10.00 Det=-1.62D-15
 Inversion failed.  Reducing to 15 matrices.
 Coeff-Com:  0.111D-04 0.650D-04 0.511D-04-0.167D-03-0.979D-03-0.388D-02
 Coeff-Com: -0.149D-01 0.530D-01 0.306D+00 0.415D+00 0.163D+01-0.119D+01
 Coeff-Com: -0.918D+00 0.902D+00-0.179D+00
 Coeff:      0.111D-04 0.650D-04 0.511D-04-0.167D-03-0.979D-03-0.388D-02
 Coeff:     -0.149D-01 0.530D-01 0.306D+00 0.415D+00 0.163D+01-0.119D+01
 Coeff:     -0.918D+00 0.902D+00-0.179D+00
 Gap=     0.170 Goal=   None    Shift=    0.000
 RMSDP=8.39D-08 MaxDP=8.95D-06 DE= 2.07D-10 OVMax= 5.47D-09

 Cycle  20  Pass 1  IDiag  1:
 RMSU=  3.23D-08    CP:  1.30D+00  1.01D+00  9.84D-01  7.62D-01  8.55D-01
                    CP:  1.01D+00  1.07D+00  1.12D+00  1.02D+00  1.12D+00
                    CP:  1.33D+00  1.79D+00  3.00D+00  2.34D+00  1.13D+00
                    CP: -1.97D+00  4.27D-02  1.59D+00  8.10D-01
 E= -1781.29993162034     Delta-E=       -0.000000000070 Rises=F Damp=F
 DIIS: error= 2.43D-08 at cycle  20 NSaved=  16.
 NSaved=16 IEnMin=10 EnMin= -1781.29993162125     IErMin=14 ErrMin= 2.40D-08
 ErrMax= 2.43D-08  0.00D+00 EMaxC= 1.00D-01 BMatC= 1.33D-13 BMatP= 9.26D-14
 IDIUse=1 WtCom= 1.00D+00 WtEn= 0.00D+00
 Large coefficients: NSaved= 16 BigCof=    0.00 CofMax=   10.00 Det=-1.62D-15
 Inversion failed.  Reducing to 15 matrices.
 Coeff-Com:  0.676D-05-0.699D-05-0.682D-04-0.375D-03-0.208D-02-0.848D-02
 Coeff-Com:  0.405D-01 0.222D+00 0.360D+00 0.209D+01-0.139D+01-0.106D+01
 Coeff-Com:  0.894D+00 0.302D+00-0.444D+00
 Coeff:      0.676D-05-0.699D-05-0.682D-04-0.375D-03-0.208D-02-0.848D-02
 Coeff:      0.405D-01 0.222D+00 0.360D+00 0.209D+01-0.139D+01-0.106D+01
 Coeff:      0.894D+00 0.302D+00-0.444D+00
 Gap=     0.170 Goal=   None    Shift=    0.000
 RMSDP=1.69D-07 MaxDP=1.94D-05 DE=-7.00D-11 OVMax= 2.03D-08

 Cycle  21  Pass 1  IDiag  1:
 Restarting incremental Fock formation.
 E= -1781.29993162050     Delta-E=       -0.000000000156 Rises=F Damp=F
 DIIS: error= 3.48D-07 at cycle  21 NSaved=  16.
 NSaved=16 IEnMin= 9 EnMin= -1781.29993162125     IErMin=13 ErrMin= 2.40D-08
 ErrMax= 3.48D-07  0.00D+00 EMaxC= 1.00D-01 BMatC= 2.23D-11 BMatP= 9.26D-14
 IDIUse=1 WtCom= 1.00D+00 WtEn= 0.00D+00
 Large coefficients: NSaved= 16 BigCof=    0.00 CofMax=   10.00 Det=-1.61D-15
 Inversion failed.  Reducing to 15 matrices.
 Coeff-Com: -0.140D-04-0.573D-04-0.321D-03-0.204D-02-0.887D-02 0.394D-01
 Coeff-Com:  0.220D+00 0.360D+00 0.210D+01-0.138D+01-0.107D+01 0.881D+00
 Coeff-Com:  0.312D+00-0.450D+00 0.201D-02
 Coeff:     -0.140D-04-0.573D-04-0.321D-03-0.204D-02-0.887D-02 0.394D-01
 Coeff:      0.220D+00 0.360D+00 0.210D+01-0.138D+01-0.107D+01 0.881D+00
 Coeff:      0.312D+00-0.450D+00 0.201D-02
 Gap=     0.170 Goal=   None    Shift=    0.000
 RMSDP=3.42D-08 MaxDP=3.72D-06 DE=-1.56D-10 OVMax= 3.76D-09

 Cycle  22  Pass 1  IDiag  1:
 RMSU=  3.34D-08    CP:  1.00D+00
 E= -1781.29993162051     Delta-E=       -0.000000000013 Rises=F Damp=F
 DIIS: error= 3.48D-07 at cycle  22 NSaved=  16.
 NSaved=16 IEnMin= 8 EnMin= -1781.29993162125     IErMin=12 ErrMin= 2.40D-08
 ErrMax= 3.48D-07  0.00D+00 EMaxC= 1.00D-01 BMatC= 2.21D-11 BMatP= 9.26D-14
 IDIUse=1 WtCom= 1.00D+00 WtEn= 0.00D+00
 Large coefficients: NSaved= 16 BigCof=    0.00 CofMax=   10.00 Det=-1.59D-15
 Inversion failed.  Reducing to 15 matrices.
 Coeff-Com:  0.927D-05-0.206D-03-0.217D-02-0.108D-01 0.374D-01 0.220D+00
 Coeff-Com:  0.361D+00 0.207D+01-0.134D+01-0.106D+01 0.859D+00 0.309D+00
 Coeff-Com: -0.440D+00 0.190D+00-0.189D+00
 Coeff:      0.927D-05-0.206D-03-0.217D-02-0.108D-01 0.374D-01 0.220D+00
 Coeff:      0.361D+00 0.207D+01-0.134D+01-0.106D+01 0.859D+00 0.309D+00
 Coeff:     -0.440D+00 0.190D+00-0.189D+00
 Gap=     0.170 Goal=   None    Shift=    0.000
 RMSDP=5.68D-08 MaxDP=5.56D-06 DE=-1.27D-11 OVMax= 4.29D-09

 Cycle  23  Pass 1  IDiag  1:
 RMSU=  5.44D-08    CP:  1.00D+00  6.37D-01
 E= -1781.29993162045     Delta-E=        0.000000000058 Rises=F Damp=F
 DIIS: error= 3.44D-07 at cycle  23 NSaved=  16.
 NSaved=16 IEnMin= 7 EnMin= -1781.29993162125     IErMin=11 ErrMin= 2.40D-08
 ErrMax= 3.44D-07  0.00D+00 EMaxC= 1.00D-01 BMatC= 2.20D-11 BMatP= 9.26D-14
 IDIUse=1 WtCom= 1.00D+00 WtEn= 0.00D+00
 Large coefficients: NSaved= 16 BigCof=    0.00 CofMax=   10.00 Det=-1.55D-15
 Inversion failed.  Reducing to 15 matrices.
 Coeff-Com: -0.223D-03-0.213D-02-0.103D-01 0.375D-01 0.218D+00 0.355D+00
 Coeff-Com:  0.196D+01-0.123D+01-0.102D+01 0.794D+00 0.330D+00-0.439D+00
 Coeff-Com:  0.189D+00-0.500D+00 0.314D+00
 Coeff:     -0.223D-03-0.213D-02-0.103D-01 0.375D-01 0.218D+00 0.355D+00
 Coeff:      0.196D+01-0.123D+01-0.102D+01 0.794D+00 0.330D+00-0.439D+00
 Coeff:      0.189D+00-0.500D+00 0.314D+00
 Gap=     0.170 Goal=   None    Shift=    0.000
 RMSDP=7.53D-08 MaxDP=1.01D-05 DE= 5.82D-11 OVMax= 5.44D-09

 Cycle  24  Pass 1  IDiag  1:
 RMSU=  6.68D-08    CP:  1.00D+00  8.31D-01  7.39D-01
 E= -1781.29993162026     Delta-E=        0.000000000194 Rises=F Damp=F
 DIIS: error= 3.43D-07 at cycle  24 NSaved=  16.
 NSaved=16 IEnMin= 6 EnMin= -1781.29993162125     IErMin=10 ErrMin= 2.40D-08
 ErrMax= 3.43D-07  0.00D+00 EMaxC= 1.00D-01 BMatC= 2.20D-11 BMatP= 9.26D-14
 IDIUse=1 WtCom= 1.00D+00 WtEn= 0.00D+00
 Large coefficients: NSaved= 16 BigCof=    0.00 CofMax=   10.00 Det=-1.57D-15
 Inversion failed.  Reducing to 15 matrices.
 Coeff-Com: -0.165D-02-0.932D-02 0.346D-01 0.203D+00 0.347D+00 0.205D+01
 Coeff-Com: -0.128D+01-0.105D+01 0.822D+00 0.336D+00-0.456D+00 0.182D+00
 Coeff-Com: -0.612D+00 0.259D+00 0.173D+00
 Coeff:     -0.165D-02-0.932D-02 0.346D-01 0.203D+00 0.347D+00 0.205D+01
 Coeff:     -0.128D+01-0.105D+01 0.822D+00 0.336D+00-0.456D+00 0.182D+00
 Coeff:     -0.612D+00 0.259D+00 0.173D+00
 Gap=     0.170 Goal=   None    Shift=    0.000
 RMSDP=4.39D-08 MaxDP=7.20D-06 DE= 1.94D-10 OVMax= 1.03D-08

 Cycle  25  Pass 1  IDiag  1:
 RMSU=  3.25D-08    CP:  1.00D+00  9.72D-01  5.61D-01  1.19D+00
 E= -1781.29993161993     Delta-E=        0.000000000327 Rises=F Damp=F
 DIIS: error= 3.43D-07 at cycle  25 NSaved=  16.
 NSaved=16 IEnMin= 5 EnMin= -1781.29993162125     IErMin= 9 ErrMin= 2.40D-08
 ErrMax= 3.43D-07  0.00D+00 EMaxC= 1.00D-01 BMatC= 2.19D-11 BMatP= 9.26D-14
 IDIUse=1 WtCom= 1.00D+00 WtEn= 0.00D+00
 Large coefficients: NSaved= 16 BigCof=    0.00 CofMax=   10.00 Det=-1.58D-15
 Inversion failed.  Reducing to 15 matrices.
 Coeff-Com: -0.154D-02 0.327D-01 0.164D+00 0.310D+00 0.213D+01-0.132D+01
 Coeff-Com: -0.101D+01 0.826D+00 0.307D+00-0.432D+00 0.117D+00-0.608D+00
 Coeff-Com:  0.313D+00 0.364D+00-0.183D+00
 Coeff:     -0.154D-02 0.327D-01 0.164D+00 0.310D+00 0.213D+01-0.132D+01
 Coeff:     -0.101D+01 0.826D+00 0.307D+00-0.432D+00 0.117D+00-0.608D+00
 Coeff:      0.313D+00 0.364D+00-0.183D+00
 Gap=     0.170 Goal=   None    Shift=    0.000
 RMSDP=8.23D-08 MaxDP=8.24D-06 DE= 3.27D-10 OVMax= 2.95D-08

 Cycle  26  Pass 1  IDiag  1:
 RMSU=  6.34D-08    CP:  1.00D+00  9.54D-01  5.73D-01  1.73D+00  1.42D+00
 E= -1781.29993162032     Delta-E=       -0.000000000390 Rises=F Damp=F
 DIIS: error= 3.43D-07 at cycle  26 NSaved=  16.
 NSaved=16 IEnMin= 4 EnMin= -1781.29993162125     IErMin= 8 ErrMin= 2.40D-08
 ErrMax= 3.43D-07  0.00D+00 EMaxC= 1.00D-01 BMatC= 2.19D-11 BMatP= 9.26D-14
 IDIUse=1 WtCom= 1.00D+00 WtEn= 0.00D+00
 Large coefficients: NSaved= 16 BigCof=    0.00 CofMax=   10.00 Det=-1.57D-15
 Inversion failed.  Reducing to 15 matrices.
 Coeff-Com: -0.125D-02 0.331D-01 0.165D+00 0.310D+00 0.211D+01-0.132D+01
 Coeff-Com: -0.101D+01 0.823D+00 0.327D+00-0.442D+00 0.152D+00-0.506D+00
 Coeff-Com:  0.365D+00 0.805D-01-0.881D-01
 Coeff:     -0.125D-02 0.331D-01 0.165D+00 0.310D+00 0.211D+01-0.132D+01
 Coeff:     -0.101D+01 0.823D+00 0.327D+00-0.442D+00 0.152D+00-0.506D+00
 Coeff:      0.365D+00 0.805D-01-0.881D-01
 Gap=     0.170 Goal=   None    Shift=    0.000
 RMSDP=8.81D-08 MaxDP=8.93D-06 DE=-3.90D-10 OVMax= 4.95D-09

 Cycle  27  Pass 1  IDiag  1:
 RMSU=  4.50D-08    CP:  1.00D+00  1.15D+00 -2.45D-01  1.46D+00  1.51D-02
                    CP:  5.45D-01
 E= -1781.29993162024     Delta-E=        0.000000000076 Rises=F Damp=F
 DIIS: error= 3.43D-07 at cycle  27 NSaved=  16.
 NSaved=16 IEnMin= 4 EnMin= -1781.29993162125     IErMin= 8 ErrMin= 2.40D-08
 ErrMax= 3.43D-07  0.00D+00 EMaxC= 1.00D-01 BMatC= 2.20D-11 BMatP= 9.26D-14
 IDIUse=1 WtCom= 1.00D+00 WtEn= 0.00D+00
 Large coefficients: NSaved= 16 BigCof=    0.00 CofMax=   10.00 Det=-1.56D-15
 Inversion failed.  Reducing to 15 matrices.
 Coeff-Com: -0.177D-02 0.325D-01 0.164D+00 0.312D+00 0.217D+01-0.137D+01
 Coeff-Com: -0.104D+01 0.859D+00 0.324D+00-0.450D+00 0.161D+00-0.702D+00
 Coeff-Com:  0.498D+00-0.150D+00 0.197D+00
 Coeff:     -0.177D-02 0.325D-01 0.164D+00 0.312D+00 0.217D+01-0.137D+01
 Coeff:     -0.104D+01 0.859D+00 0.324D+00-0.450D+00 0.161D+00-0.702D+00
 Coeff:      0.498D+00-0.150D+00 0.197D+00
 Gap=     0.170 Goal=   None    Shift=    0.000
 RMSDP=8.56D-08 MaxDP=9.15D-06 DE= 7.64D-11 OVMax= 5.29D-09

 Cycle  28  Pass 1  IDiag  1:
 RMSU=  4.75D-08    CP:  1.00D+00  5.16D-01  4.31D-01  1.59D+00  8.20D-01
                    CP:  1.06D+00  1.64D-01
 E= -1781.29993162009     Delta-E=        0.000000000149 Rises=F Damp=F
 DIIS: error= 3.41D-07 at cycle  28 NSaved=  16.
 NSaved=16 IEnMin= 4 EnMin= -1781.29993162125     IErMin= 8 ErrMin= 2.40D-08
 ErrMax= 3.41D-07  0.00D+00 EMaxC= 1.00D-01 BMatC= 2.19D-11 BMatP= 9.26D-14
 IDIUse=1 WtCom= 1.00D+00 WtEn= 0.00D+00
 Large coefficients: NSaved= 16 BigCof=    0.00 CofMax=   10.00 Det=-1.57D-15
 Inversion failed.  Reducing to 15 matrices.
 Coeff-Com: -0.173D-02 0.319D-01 0.160D+00 0.312D+00 0.232D+01-0.155D+01
 Coeff-Com: -0.993D+00 0.979D+00-0.265D+00 0.229D+00-0.718D+00 0.465D+00
 Coeff-Com: -0.969D-02 0.230D+00-0.194D+00
 Coeff:     -0.173D-02 0.319D-01 0.160D+00 0.312D+00 0.232D+01-0.155D+01
 Coeff:     -0.993D+00 0.979D+00-0.265D+00 0.229D+00-0.718D+00 0.465D+00
 Coeff:     -0.969D-02 0.230D+00-0.194D+00
 Gap=     0.170 Goal=   None    Shift=    0.000
 RMSDP=1.12D-07 MaxDP=1.99D-05 DE= 1.49D-10 OVMax= 6.98D-09

 Cycle  29  Pass 1  IDiag  1:
 RMSU=  8.66D-08    CP:  1.00D+00  2.49D-01  8.30D-01  1.66D+00 -3.12D-01
                    CP:  9.90D-01  2.01D-01  4.93D-01
 E= -1781.29993162009     Delta-E=        0.000000000001 Rises=F Damp=F
 DIIS: error= 3.41D-07 at cycle  29 NSaved=  16.
 NSaved=16 IEnMin= 4 EnMin= -1781.29993162125     IErMin= 8 ErrMin= 2.40D-08
 ErrMax= 3.41D-07  0.00D+00 EMaxC= 1.00D-01 BMatC= 2.20D-11 BMatP= 9.26D-14
 IDIUse=1 WtCom= 1.00D+00 WtEn= 0.00D+00
 Large coefficients: NSaved= 16 BigCof=    0.00 CofMax=   10.00 Det=-1.77D-15
 Inversion failed.  Reducing to 15 matrices.
 Coeff-Com: -0.134D-02 0.325D-01 0.162D+00 0.311D+00 0.227D+01-0.150D+01
 Coeff-Com: -0.962D+00 0.940D+00-0.254D+00 0.192D+00-0.467D+00 0.345D+00
 Coeff-Com:  0.482D-01-0.114D+00-0.254D-02
 Coeff:     -0.134D-02 0.325D-01 0.162D+00 0.311D+00 0.227D+01-0.150D+01
 Coeff:     -0.962D+00 0.940D+00-0.254D+00 0.192D+00-0.467D+00 0.345D+00
 Coeff:      0.482D-01-0.114D+00-0.254D-02
 Gap=     0.170 Goal=   None    Shift=    0.000
 RMSDP=9.11D-08 MaxDP=9.58D-06 DE= 9.09D-13 OVMax= 5.83D-09

 Cycle  30  Pass 1  IDiag  1:
 RMSU=  1.12D-08    CP:  1.00D+00  9.35D-01  1.16D-01  1.45D+00 -1.11D+00
                    CP:  4.67D-01  1.05D+00 -5.85D-01  8.86D-01
 E= -1781.29993162048     Delta-E=       -0.000000000386 Rises=F Damp=F
 DIIS: error= 3.44D-07 at cycle  30 NSaved=  16.
 NSaved=16 IEnMin= 4 EnMin= -1781.29993162125     IErMin= 8 ErrMin= 2.40D-08
 ErrMax= 3.44D-07  0.00D+00 EMaxC= 1.00D-01 BMatC= 2.22D-11 BMatP= 9.26D-14
 IDIUse=1 WtCom= 1.00D+00 WtEn= 0.00D+00
 Large coefficients: NSaved= 16 BigCof=    0.00 CofMax=   10.00 Det=-1.78D-15
 Inversion failed.  Reducing to 15 matrices.
 Coeff-Com: -0.145D-02 0.324D-01 0.162D+00 0.311D+00 0.228D+01-0.151D+01
 Coeff-Com: -0.963D+00 0.940D+00-0.258D+00 0.202D+00-0.564D+00 0.404D+00
 Coeff-Com: -0.964D-02-0.108D+00 0.779D-01
 Coeff:     -0.145D-02 0.324D-01 0.162D+00 0.311D+00 0.228D+01-0.151D+01
 Coeff:     -0.963D+00 0.940D+00-0.258D+00 0.202D+00-0.564D+00 0.404D+00
 Coeff:     -0.964D-02-0.108D+00 0.779D-01
 Gap=     0.170 Goal=   None    Shift=    0.000
 RMSDP=6.55D-08 MaxDP=9.56D-06 DE=-3.86D-10 OVMax= 3.59D-09

 Cycle  31  Pass 1  IDiag  1:
 RMSU=  3.91D-08    CP:  1.00D+00  9.29D-01  9.16D-01  1.53D+00 -8.41D-01
                    CP:  5.80D-01  7.09D-01 -2.20D-01  8.17D-01  1.73D+00
 E= -1781.29993162054     Delta-E=       -0.000000000065 Rises=F Damp=F
 DIIS: error= 3.43D-07 at cycle  31 NSaved=  16.
 NSaved=16 IEnMin= 4 EnMin= -1781.29993162125     IErMin= 8 ErrMin= 2.40D-08
 ErrMax= 3.43D-07  0.00D+00 EMaxC= 1.00D-01 BMatC= 2.23D-11 BMatP= 9.26D-14
 IDIUse=1 WtCom= 1.00D+00 WtEn= 0.00D+00
 Large coefficients: NSaved= 16 BigCof=    0.00 CofMax=   10.00 Det=-1.78D-15
 Inversion failed.  Reducing to 15 matrices.
 Coeff-Com: -0.158D-02 0.318D-01 0.159D+00 0.311D+00 0.234D+01-0.157D+01
 Coeff-Com: -0.101D+01 0.988D+00-0.261D+00 0.134D+00-0.619D+00 0.487D+00
 Coeff-Com: -0.262D-01 0.309D+00-0.281D+00
 Coeff:     -0.158D-02 0.318D-01 0.159D+00 0.311D+00 0.234D+01-0.157D+01
 Coeff:     -0.101D+01 0.988D+00-0.261D+00 0.134D+00-0.619D+00 0.487D+00
 Coeff:     -0.262D-01 0.309D+00-0.281D+00
 Gap=     0.170 Goal=   None    Shift=    0.000
 RMSDP=1.98D-07 MaxDP=2.17D-05 DE=-6.55D-11 OVMax= 1.16D-08

 Cycle  32  Pass 1  IDiag  1:
 RMSU=  4.49D-08    CP:  1.00D+00 -5.69D-01 -6.22D-01  1.63D+00 -1.14D+00
                    CP:  1.19D+00  1.21D+00  9.94D-01  1.30D+00 -2.85D+00
                    CP: -2.26D+00
 E= -1781.29993162004     Delta-E=        0.000000000509 Rises=F Damp=F
 DIIS: error= 3.39D-07 at cycle  32 NSaved=  16.
 NSaved=16 IEnMin= 4 EnMin= -1781.29993162125     IErMin= 8 ErrMin= 2.40D-08
 ErrMax= 3.39D-07  0.00D+00 EMaxC= 1.00D-01 BMatC= 2.20D-11 BMatP= 9.26D-14
 IDIUse=1 WtCom= 1.00D+00 WtEn= 0.00D+00
 Large coefficients: NSaved= 16 BigCof=    0.00 CofMax=   10.00 Det=-1.78D-15
 Inversion failed.  Reducing to 15 matrices.
 Coeff-Com: -0.158D-02 0.317D-01 0.159D+00 0.310D+00 0.234D+01-0.157D+01
 Coeff-Com: -0.991D+00 0.986D+00-0.261D+00 0.167D+00-0.650D+00 0.486D+00
 Coeff-Com:  0.374D+00-0.346D+00-0.278D-01
 Coeff:     -0.158D-02 0.317D-01 0.159D+00 0.310D+00 0.234D+01-0.157D+01
 Coeff:     -0.991D+00 0.986D+00-0.261D+00 0.167D+00-0.650D+00 0.486D+00
 Coeff:      0.374D+00-0.346D+00-0.278D-01
 Gap=     0.170 Goal=   None    Shift=    0.000
 RMSDP=3.85D-08 MaxDP=4.46D-06 DE= 5.09D-10 OVMax= 2.63D-09

 Cycle  33  Pass 1  IDiag  1:
 RMSU=  1.07D-08    CP:  1.00D+00 -4.48D-01 -3.02D-01  1.65D+00 -1.40D+00
                    CP:  1.01D+00  1.35D+00  9.48D-01  1.29D+00 -2.84D+00
                    CP: -1.54D+00  1.03D+00
 E= -1781.29993162008     Delta-E=       -0.000000000041 Rises=F Damp=F
 DIIS: error= 3.38D-07 at cycle  33 NSaved=  16.
 NSaved=16 IEnMin= 4 EnMin= -1781.29993162125     IErMin= 8 ErrMin= 2.40D-08
 ErrMax= 3.38D-07  0.00D+00 EMaxC= 1.00D-01 BMatC= 2.22D-11 BMatP= 9.26D-14
 IDIUse=1 WtCom= 1.00D+00 WtEn= 0.00D+00
 Large coefficients: NSaved= 16 BigCof=    0.00 CofMax=   10.00 Det=-1.78D-15
 Inversion failed.  Reducing to 15 matrices.
 Coeff-Com: -0.133D-02 0.344D-01 0.172D+00 0.300D+00 0.160D+01-0.989D+00
 Coeff-Com: -0.936D+00 0.813D+00 0.235D+00-0.740D+00 0.533D+00 0.404D+00
 Coeff-Com: -0.392D+00-0.857D-01 0.496D-01
 Coeff:     -0.133D-02 0.344D-01 0.172D+00 0.300D+00 0.160D+01-0.989D+00
 Coeff:     -0.936D+00 0.813D+00 0.235D+00-0.740D+00 0.533D+00 0.404D+00
 Coeff:     -0.392D+00-0.857D-01 0.496D-01
 Gap=     0.170 Goal=   None    Shift=    0.000
 RMSDP=1.91D-07 MaxDP=2.51D-05 DE=-4.09D-11 OVMax= 1.27D-08

 Cycle  34  Pass 1  IDiag  1:
 RMSU=  8.02D-08    CP:  1.00D+00 -8.62D-01 -1.31D+00  2.47D+00 -2.29D+00
                    CP:  1.70D+00  3.00D+00  1.84D+00  1.43D+00 -9.17D-01
                    CP: -7.19D-01  1.66D+00  3.00D+00
 E= -1781.29993161985     Delta-E=        0.000000000224 Rises=F Damp=F
 DIIS: error= 3.38D-07 at cycle  34 NSaved=  16.
 NSaved=16 IEnMin= 4 EnMin= -1781.29993162125     IErMin= 8 ErrMin= 2.40D-08
 ErrMax= 3.38D-07  0.00D+00 EMaxC= 1.00D-01 BMatC= 2.27D-11 BMatP= 9.26D-14
 IDIUse=1 WtCom= 1.00D+00 WtEn= 0.00D+00
 Large coefficients: NSaved= 16 BigCof=    0.00 CofMax=   10.00 Det=-2.70D-15
 Inversion failed.  Reducing to 15 matrices.
 Coeff-Com: -0.153D-02 0.341D-01 0.172D+00 0.300D+00 0.161D+01-0.100D+01
 Coeff-Com: -0.945D+00 0.826D+00 0.233D+00-0.697D+00 0.438D+00 0.326D+00
 Coeff-Com: -0.271D+00 0.203D-01-0.451D-01
 Coeff:     -0.153D-02 0.341D-01 0.172D+00 0.300D+00 0.161D+01-0.100D+01
 Coeff:     -0.945D+00 0.826D+00 0.233D+00-0.697D+00 0.438D+00 0.326D+00
 Coeff:     -0.271D+00 0.203D-01-0.451D-01
 Gap=     0.170 Goal=   None    Shift=    0.000
 RMSDP=5.78D-08 MaxDP=7.06D-06 DE= 2.24D-10 OVMax= 3.98D-09

 Cycle  35  Pass 1  IDiag  1:
 RMSU=  3.52D-08    CP:  1.00D+00 -1.04D+00 -2.02D+00  2.50D+00 -2.23D+00
                    CP:  1.59D+00  3.00D+00  1.68D+00  1.40D+00 -8.25D-01
                    CP: -1.22D+00  1.59D+00  3.00D+00  1.10D+00
 E= -1781.29993161959     Delta-E=        0.000000000260 Rises=F Damp=F
 DIIS: error= 3.42D-07 at cycle  35 NSaved=  16.
 NSaved=16 IEnMin= 4 EnMin= -1781.29993162125     IErMin= 8 ErrMin= 2.40D-08
 ErrMax= 3.42D-07  0.00D+00 EMaxC= 1.00D-01 BMatC= 2.27D-11 BMatP= 9.26D-14
 IDIUse=1 WtCom= 1.00D+00 WtEn= 0.00D+00
 Large coefficients: NSaved= 16 BigCof=    0.00 CofMax=   10.00 Det=-2.67D-15
 Inversion failed.  Reducing to 15 matrices.
 Coeff-Com: -0.151D-02 0.341D-01 0.171D+00 0.299D+00 0.162D+01-0.102D+01
 Coeff-Com: -0.922D+00 0.821D+00 0.249D+00-0.701D+00 0.436D+00 0.372D+00
 Coeff-Com: -0.322D+00 0.640D-01-0.958D-01
 Coeff:     -0.151D-02 0.341D-01 0.171D+00 0.299D+00 0.162D+01-0.102D+01
 Coeff:     -0.922D+00 0.821D+00 0.249D+00-0.701D+00 0.436D+00 0.372D+00
 Coeff:     -0.322D+00 0.640D-01-0.958D-01
 Gap=     0.170 Goal=   None    Shift=    0.000
 RMSDP=4.31D-08 MaxDP=6.33D-06 DE= 2.60D-10 OVMax= 2.47D-09

 Cycle  36  Pass 1  IDiag  1:
 RMSU=  2.99D-08    CP:  1.00D+00 -9.62D-01 -1.80D+00  2.56D+00 -2.72D+00
                    CP:  1.49D+00  3.00D+00  1.55D+00  1.41D+00 -1.30D+00
                    CP: -1.24D+00  1.59D+00  3.00D+00  1.14D+00  6.43D-01
 E= -1781.29993161964     Delta-E=       -0.000000000051 Rises=F Damp=F
 DIIS: error= 3.43D-07 at cycle  36 NSaved=  16.
 NSaved=16 IEnMin= 4 EnMin= -1781.29993162125     IErMin= 8 ErrMin= 2.40D-08
 ErrMax= 3.43D-07  0.00D+00 EMaxC= 1.00D-01 BMatC= 2.28D-11 BMatP= 9.26D-14
 IDIUse=1 WtCom= 1.00D+00 WtEn= 0.00D+00
 Large coefficients: NSaved= 16 BigCof=    0.00 CofMax=   10.00 Det=-2.64D-15
 Inversion failed.  Reducing to 15 matrices.
 Coeff-Com: -0.143D-02 0.339D-01 0.170D+00 0.298D+00 0.162D+01-0.103D+01
 Coeff-Com: -0.943D+00 0.848D+00 0.202D+00-0.684D+00 0.481D+00 0.347D+00
 Coeff-Com: -0.318D+00 0.153D+00-0.177D+00
 Coeff:     -0.143D-02 0.339D-01 0.170D+00 0.298D+00 0.162D+01-0.103D+01
 Coeff:     -0.943D+00 0.848D+00 0.202D+00-0.684D+00 0.481D+00 0.347D+00
 Coeff:     -0.318D+00 0.153D+00-0.177D+00
 Gap=     0.170 Goal=   None    Shift=    0.000
 RMSDP=7.11D-08 MaxDP=7.95D-06 DE=-5.09D-11 OVMax= 4.44D-09

 Cycle  37  Pass 1  IDiag  1:
 RMSU=  3.85D-08    CP:  1.00D+00 -1.40D+00 -1.66D+00  2.28D+00 -2.50D+00
                    CP:  1.46D+00  3.00D+00  1.97D+00  1.37D+00 -1.16D+00
                    CP: -6.79D-01  1.85D+00  3.00D+00  1.00D+00  9.36D-01
                    CP: -6.57D-02
 E= -1781.29993161968     Delta-E=       -0.000000000032 Rises=F Damp=F
 DIIS: error= 3.41D-07 at cycle  37 NSaved=  16.
 NSaved=16 IEnMin= 4 EnMin= -1781.29993162125     IErMin= 8 ErrMin= 2.40D-08
 ErrMax= 3.41D-07  0.00D+00 EMaxC= 1.00D-01 BMatC= 2.28D-11 BMatP= 9.26D-14
 IDIUse=1 WtCom= 1.00D+00 WtEn= 0.00D+00
 Large coefficients: NSaved= 16 BigCof=    0.00 CofMax=   10.00 Det=-2.68D-15
 Inversion failed.  Reducing to 15 matrices.
 Coeff-Com: -0.149D-02 0.339D-01 0.170D+00 0.298D+00 0.162D+01-0.104D+01
 Coeff-Com: -0.946D+00 0.853D+00 0.191D+00-0.637D+00 0.432D+00 0.378D+00
 Coeff-Com: -0.323D+00-0.154D+00 0.117D+00
 Coeff:     -0.149D-02 0.339D-01 0.170D+00 0.298D+00 0.162D+01-0.104D+01
 Coeff:     -0.946D+00 0.853D+00 0.191D+00-0.637D+00 0.432D+00 0.378D+00
 Coeff:     -0.323D+00-0.154D+00 0.117D+00
 Gap=     0.170 Goal=   None    Shift=    0.000
 RMSDP=6.15D-08 MaxDP=7.59D-06 DE=-3.18D-11 OVMax= 3.55D-09

 Cycle  38  Pass 1  IDiag  1:
 RMSU=  2.00D-08    CP:  1.00D+00 -1.72D+00 -1.89D+00  2.28D+00 -2.78D+00
                    CP:  1.59D+00  3.00D+00  1.87D+00  1.56D+00 -2.16D+00
                    CP: -1.52D+00  1.78D+00  3.00D+00  1.03D+00  1.24D+00
                    CP: -1.30D-01  9.20D-01
 E= -1781.29993161950     Delta-E=        0.000000000174 Rises=F Damp=F
 DIIS: error= 3.39D-07 at cycle  38 NSaved=  16.
 NSaved=16 IEnMin= 4 EnMin= -1781.29993162125     IErMin= 8 ErrMin= 2.40D-08
 ErrMax= 3.39D-07  0.00D+00 EMaxC= 1.00D-01 BMatC= 2.27D-11 BMatP= 9.26D-14
 IDIUse=1 WtCom= 1.00D+00 WtEn= 0.00D+00
 Large coefficients: NSaved= 16 BigCof=    0.00 CofMax=   10.00 Det=-2.68D-15
 Inversion failed.  Reducing to 15 matrices.
 Coeff-Com: -0.144D-02 0.342D-01 0.171D+00 0.299D+00 0.159D+01-0.994D+00
 Coeff-Com: -0.913D+00 0.806D+00 0.267D+00-0.762D+00 0.496D+00 0.418D+00
 Coeff-Com: -0.387D+00 0.678D-01-0.960D-01
 Coeff:     -0.144D-02 0.342D-01 0.171D+00 0.299D+00 0.159D+01-0.994D+00
 Coeff:     -0.913D+00 0.806D+00 0.267D+00-0.762D+00 0.496D+00 0.418D+00
 Coeff:     -0.387D+00 0.678D-01-0.960D-01
 Gap=     0.170 Goal=   None    Shift=    0.000
 RMSDP=8.30D-08 MaxDP=7.61D-06 DE= 1.74D-10 OVMax= 6.95D-09

 Cycle  39  Pass 1  IDiag  1:
 RMSU=  1.89D-08    CP:  1.00D+00 -7.96D-01 -1.93D+00  2.63D+00 -2.29D+00
                    CP:  1.82D+00  3.00D+00  1.77D+00  1.36D+00 -1.71D+00
                    CP: -9.94D-01  1.57D+00  2.84D+00  1.07D+00  7.17D-01
                    CP:  1.38D-01 -4.46D-01 -8.77D-02
 E= -1781.29993161956     Delta-E=       -0.000000000057 Rises=F Damp=F
 DIIS: error= 3.41D-07 at cycle  39 NSaved=  16.
 NSaved=16 IEnMin= 4 EnMin= -1781.29993162125     IErMin= 8 ErrMin= 2.40D-08
 ErrMax= 3.41D-07  0.00D+00 EMaxC= 1.00D-01 BMatC= 2.26D-11 BMatP= 9.26D-14
 IDIUse=1 WtCom= 1.00D+00 WtEn= 0.00D+00
 Large coefficients: NSaved= 16 BigCof=    0.00 CofMax=   10.00 Det=-2.69D-15
 Inversion failed.  Reducing to 15 matrices.
 Coeff-Com: -0.146D-02 0.341D-01 0.171D+00 0.299D+00 0.160D+01-0.100D+01
 Coeff-Com: -0.922D+00 0.814D+00 0.257D+00-0.734D+00 0.472D+00 0.375D+00
 Coeff-Com: -0.335D+00-0.342D-01 0.304D-02
 Coeff:     -0.146D-02 0.341D-01 0.171D+00 0.299D+00 0.160D+01-0.100D+01
 Coeff:     -0.922D+00 0.814D+00 0.257D+00-0.734D+00 0.472D+00 0.375D+00
 Coeff:     -0.335D+00-0.342D-01 0.304D-02
 Gap=     0.170 Goal=   None    Shift=    0.000
 RMSDP=3.33D-08 MaxDP=5.49D-06 DE=-5.73D-11 OVMax= 1.74D-09

 Cycle  40  Pass 1  IDiag  1:
 RMSU=  9.97D-10    CP:  1.00D+00 -8.27D-01 -1.79D+00  2.58D+00 -2.37D+00
                    CP:  1.62D+00  3.00D+00  1.68D+00  1.34D+00 -1.03D+00
                    CP: -8.09D-01  1.59D+00  3.00D+00  1.09D+00  7.43D-01
                    CP:  3.34D-01 -1.72D-01 -2.81D-01  3.56D-01
 E= -1781.29993161996     Delta-E=       -0.000000000397 Rises=F Damp=F
 DIIS: error= 3.42D-07 at cycle  40 NSaved=  16.
 NSaved=16 IEnMin= 4 EnMin= -1781.29993162125     IErMin= 8 ErrMin= 2.40D-08
 ErrMax= 3.42D-07  0.00D+00 EMaxC= 1.00D-01 BMatC= 2.27D-11 BMatP= 9.26D-14
 IDIUse=1 WtCom= 1.00D+00 WtEn= 0.00D+00
 Large coefficients: NSaved= 16 BigCof=    0.00 CofMax=   10.00 Det=-2.67D-15
 Inversion failed.  Reducing to 15 matrices.
 Coeff-Com: -0.142D-02 0.342D-01 0.171D+00 0.299D+00 0.160D+01-0.991D+00
 Coeff-Com: -0.923D+00 0.807D+00 0.218D+00-0.685D+00 0.469D+00 0.363D+00
 Coeff-Com: -0.334D+00-0.688D-01 0.423D-01
 Coeff:     -0.142D-02 0.342D-01 0.171D+00 0.299D+00 0.160D+01-0.991D+00
 Coeff:     -0.923D+00 0.807D+00 0.218D+00-0.685D+00 0.469D+00 0.363D+00
 Coeff:     -0.334D+00-0.688D-01 0.423D-01
 Gap=     0.170 Goal=   None    Shift=    0.000
 RMSDP=4.61D-08 MaxDP=5.72D-06 DE=-3.97D-10 OVMax= 2.51D-09

 Cycle  41  Pass 1  IDiag  1:
 Restarting incremental Fock formation.
 E= -1781.29993162032     Delta-E=       -0.000000000367 Rises=F Damp=F
 DIIS: error= 3.47D-07 at cycle  41 NSaved=  16.
 NSaved=16 IEnMin= 4 EnMin= -1781.29993162125     IErMin= 8 ErrMin= 2.40D-08
 ErrMax= 3.47D-07  0.00D+00 EMaxC= 1.00D-01 BMatC= 2.22D-11 BMatP= 9.26D-14
 IDIUse=1 WtCom= 1.00D+00 WtEn= 0.00D+00
 Large coefficients: NSaved= 16 BigCof=    0.00 CofMax=   10.00 Det=-2.67D-15
 Inversion failed.  Reducing to 15 matrices.
 Coeff-Com: -0.627D-02 0.183D-01 0.118D+00 0.259D+00 0.161D+01-0.991D+00
 Coeff-Com: -0.678D+00 0.665D+00-0.808D+00-0.143D+01 0.801D+00 0.627D+00
 Coeff-Com: -0.615D+00-0.775D-01 0.151D+01
 Coeff:     -0.627D-02 0.183D-01 0.118D+00 0.259D+00 0.161D+01-0.991D+00
 Coeff:     -0.678D+00 0.665D+00-0.808D+00-0.143D+01 0.801D+00 0.627D+00
 Coeff:     -0.615D+00-0.775D-01 0.151D+01
 Gap=     0.170 Goal=   None    Shift=    0.000
 RMSDP=2.44D-07 MaxDP=2.31D-05 DE=-3.67D-10 OVMax= 5.26D-08

 Cycle  42  Pass 1  IDiag  1:
 RMSU=  2.44D-07    CP:  1.00D+00
 E= -1781.29993162056     Delta-E=       -0.000000000235 Rises=F Damp=F
 DIIS: error= 3.48D-07 at cycle  42 NSaved=  16.
 NSaved=16 IEnMin= 4 EnMin= -1781.29993162125     IErMin= 8 ErrMin= 2.40D-08
 ErrMax= 3.48D-07  0.00D+00 EMaxC= 1.00D-01 BMatC= 2.23D-11 BMatP= 9.26D-14
 IDIUse=1 WtCom= 1.00D+00 WtEn= 0.00D+00
 Large coefficients: NSaved= 16 BigCof=    0.00 CofMax=   10.00 Det=-2.11D-15
 Inversion failed.  Reducing to 15 matrices.
 Coeff-Com: -0.676D-02 0.120D-01 0.942D-01 0.223D+00 0.155D+01-0.790D+00
 Coeff-Com: -0.613D+00 0.518D+00-0.109D+01-0.243D+01 0.158D+01 0.889D+00
 Coeff-Com: -0.967D+00 0.140D+01 0.637D+00
 Coeff:     -0.676D-02 0.120D-01 0.942D-01 0.223D+00 0.155D+01-0.790D+00
 Coeff:     -0.613D+00 0.518D+00-0.109D+01-0.243D+01 0.158D+01 0.889D+00
 Coeff:     -0.967D+00 0.140D+01 0.637D+00
 Gap=     0.170 Goal=   None    Shift=    0.000
 RMSDP=3.61D-07 MaxDP=2.73D-05 DE=-2.35D-10 OVMax= 2.58D-08

 Cycle  43  Pass 1  IDiag  1:
 RMSU=  2.31D-07    CP:  1.00D+00  2.04D+00
 E= -1781.29993162004     Delta-E=        0.000000000519 Rises=F Damp=F
 DIIS: error= 3.52D-07 at cycle  43 NSaved=  16.
 NSaved=16 IEnMin= 4 EnMin= -1781.29993162125     IErMin= 8 ErrMin= 2.40D-08
 ErrMax= 3.52D-07  0.00D+00 EMaxC= 1.00D-01 BMatC= 2.24D-11 BMatP= 9.26D-14
 IDIUse=1 WtCom= 1.00D+00 WtEn= 0.00D+00
 Large coefficients: NSaved= 16 BigCof=    0.00 CofMax=   10.00 Det=-1.77D-15
 Inversion failed.  Reducing to 15 matrices.
 Coeff-Com: -0.198D-02 0.251D-01 0.134D+00 0.240D+00 0.148D+01-0.746D+00
 Coeff-Com: -0.710D+00 0.575D+00 0.697D-01-0.237D+01 0.154D+01 0.858D+00
 Coeff-Com: -0.918D+00 0.407D+00 0.412D+00
 Coeff:     -0.198D-02 0.251D-01 0.134D+00 0.240D+00 0.148D+01-0.746D+00
 Coeff:     -0.710D+00 0.575D+00 0.697D-01-0.237D+01 0.154D+01 0.858D+00
 Coeff:     -0.918D+00 0.407D+00 0.412D+00
 Gap=     0.170 Goal=   None    Shift=    0.000
 RMSDP=1.99D-07 MaxDP=2.65D-05 DE= 5.19D-10 OVMax= 3.63D-08

 Cycle  44  Pass 1  IDiag  1:
 RMSU=  1.33D-07    CP:  1.00D+00  1.62D+00  1.03D+00
 E= -1781.29993162007     Delta-E=       -0.000000000030 Rises=F Damp=F
 DIIS: error= 3.50D-07 at cycle  44 NSaved=  16.
 NSaved=16 IEnMin= 4 EnMin= -1781.29993162125     IErMin= 8 ErrMin= 2.40D-08
 ErrMax= 3.50D-07  0.00D+00 EMaxC= 1.00D-01 BMatC= 2.23D-11 BMatP= 9.26D-14
 IDIUse=1 WtCom= 1.00D+00 WtEn= 0.00D+00
 Large coefficients: NSaved= 16 BigCof=    0.00 CofMax=   10.00 Det=-1.71D-15
 Inversion failed.  Reducing to 15 matrices.
 Coeff-Com: -0.273D-02 0.297D-01 0.158D+00 0.289D+00 0.170D+01-0.102D+01
 Coeff-Com: -0.990D+00 0.836D+00 0.716D-01-0.529D+00 0.371D+00-0.418D+00
 Coeff-Com:  0.428D+00-0.249D+00 0.327D+00
 Coeff:     -0.273D-02 0.297D-01 0.158D+00 0.289D+00 0.170D+01-0.102D+01
 Coeff:     -0.990D+00 0.836D+00 0.716D-01-0.529D+00 0.371D+00-0.418D+00
 Coeff:      0.428D+00-0.249D+00 0.327D+00
 Gap=     0.170 Goal=   None    Shift=    0.000
 RMSDP=4.33D-07 MaxDP=3.92D-05 DE=-3.00D-11 OVMax= 2.86D-08

 Cycle  45  Pass 1  IDiag  1:
 RMSU=  1.98D-07    CP:  1.00D+00  2.52D-01  4.37D-01  3.63D-01
 E= -1781.29993161987     Delta-E=        0.000000000201 Rises=F Damp=F
 DIIS: error= 3.45D-07 at cycle  45 NSaved=  16.
 NSaved=16 IEnMin= 4 EnMin= -1781.29993162125     IErMin= 8 ErrMin= 2.40D-08
 ErrMax= 3.45D-07  0.00D+00 EMaxC= 1.00D-01 BMatC= 2.22D-11 BMatP= 9.26D-14
 IDIUse=1 WtCom= 1.00D+00 WtEn= 0.00D+00
 Large coefficients: NSaved= 16 BigCof=    0.00 CofMax=   10.00 Det=-2.73D-15
 Inversion failed.  Reducing to 15 matrices.
 Coeff-Com: -0.398D-02 0.247D-01 0.141D+00 0.270D+00 0.174D+01-0.105D+01
 Coeff-Com: -0.924D+00 0.802D+00-0.194D+00-0.887D+00 0.549D+00-0.613D+00
 Coeff-Com:  0.533D+00-0.999D-01 0.713D+00
 Coeff:     -0.398D-02 0.247D-01 0.141D+00 0.270D+00 0.174D+01-0.105D+01
 Coeff:     -0.924D+00 0.802D+00-0.194D+00-0.887D+00 0.549D+00-0.613D+00
 Coeff:      0.533D+00-0.999D-01 0.713D+00
 Gap=     0.170 Goal=   None    Shift=    0.000
 RMSDP=2.77D-07 MaxDP=2.94D-05 DE= 2.01D-10 OVMax= 1.91D-08

 Cycle  46  Pass 1  IDiag  1:
 RMSU=  1.36D-07    CP:  1.00D+00  1.16D+00  6.35D-01  3.10D-01  1.29D+00
 E= -1781.29993161995     Delta-E=       -0.000000000083 Rises=F Damp=F
 DIIS: error= 3.46D-07 at cycle  46 NSaved=  16.
 NSaved=16 IEnMin= 4 EnMin= -1781.29993162125     IErMin= 8 ErrMin= 2.40D-08
 ErrMax= 3.46D-07  0.00D+00 EMaxC= 1.00D-01 BMatC= 2.23D-11 BMatP= 9.26D-14
 IDIUse=1 WtCom= 1.00D+00 WtEn= 0.00D+00
 Large coefficients: NSaved= 16 BigCof=    0.00 CofMax=   10.00 Det=-2.72D-15
 Inversion failed.  Reducing to 15 matrices.
 Coeff-Com: -0.390D-02 0.236D-01 0.135D+00 0.262D+00 0.176D+01-0.103D+01
 Coeff-Com: -0.919D+00 0.772D+00-0.311D+00-0.751D+00 0.460D+00-0.517D+00
 Coeff-Com:  0.590D+00 0.948D+00-0.417D+00
 Coeff:     -0.390D-02 0.236D-01 0.135D+00 0.262D+00 0.176D+01-0.103D+01
 Coeff:     -0.919D+00 0.772D+00-0.311D+00-0.751D+00 0.460D+00-0.517D+00
 Coeff:      0.590D+00 0.948D+00-0.417D+00
 Gap=     0.170 Goal=   None    Shift=    0.000
 RMSDP=1.84D-07 MaxDP=1.69D-05 DE=-8.28D-11 OVMax= 1.39D-08

 Cycle  47  Pass 1  IDiag  1:
 RMSU=  8.13D-08    CP:  1.00D+00  7.04D-01  4.29D-01  2.84D-01  1.10D+00
                    CP:  5.15D-01
 E= -1781.29993162007     Delta-E=       -0.000000000121 Rises=F Damp=F
 DIIS: error= 3.47D-07 at cycle  47 NSaved=  16.
 NSaved=16 IEnMin= 4 EnMin= -1781.29993162125     IErMin= 8 ErrMin= 2.40D-08
 ErrMax= 3.47D-07  0.00D+00 EMaxC= 1.00D-01 BMatC= 2.23D-11 BMatP= 9.26D-14
 IDIUse=1 WtCom= 1.00D+00 WtEn= 0.00D+00
 Large coefficients: NSaved= 16 BigCof=    0.00 CofMax=   10.00 Det=-2.73D-15
 Inversion failed.  Reducing to 15 matrices.
 Coeff-Com: -0.266D-02 0.293D-01 0.157D+00 0.285D+00 0.173D+01-0.107D+01
 Coeff-Com: -0.103D+01 0.899D+00 0.208D-01-0.560D+00 0.412D+00-0.453D+00
 Coeff-Com:  0.319D+00-0.138D+00 0.400D+00
 Coeff:     -0.266D-02 0.293D-01 0.157D+00 0.285D+00 0.173D+01-0.107D+01
 Coeff:     -0.103D+01 0.899D+00 0.208D-01-0.560D+00 0.412D+00-0.453D+00
 Coeff:      0.319D+00-0.138D+00 0.400D+00
 Gap=     0.170 Goal=   None    Shift=    0.000
 RMSDP=1.55D-07 MaxDP=1.73D-05 DE=-1.21D-10 OVMax= 1.55D-08

 Cycle  48  Pass 1  IDiag  1:
 RMSU=  1.15D-07    CP:  1.00D+00  6.71D-01  6.49D-01  1.73D-01  1.14D+00
                    CP:  1.90D-01  6.82D-02
 E= -1781.29993162017     Delta-E=       -0.000000000095 Rises=F Damp=F
 DIIS: error= 3.45D-07 at cycle  48 NSaved=  16.
 NSaved=16 IEnMin= 4 EnMin= -1781.29993162125     IErMin= 8 ErrMin= 2.40D-08
 ErrMax= 3.45D-07  0.00D+00 EMaxC= 1.00D-01 BMatC= 2.23D-11 BMatP= 9.26D-14
 IDIUse=1 WtCom= 1.00D+00 WtEn= 0.00D+00
 Large coefficients: NSaved= 16 BigCof=    0.00 CofMax=   10.00 Det=-2.73D-15
 Inversion failed.  Reducing to 15 matrices.
 Coeff-Com: -0.318D-02 0.274D-01 0.150D+00 0.279D+00 0.174D+01-0.107D+01
[...]
 000026,-0.00000004,0.00000025,0.00000198,0.00000007,0.00000027,-0.0000
 0208,-0.00000005,0.00000030,-0.00000005,0.00000086,0.00000007,-0.00000
 079,0.00000077,0.00000009,0.00000072,0.00000046,-0.00000041,-0.0000000
 2,0.00000053,0.00000089,-0.00000054,0.00000048,0.00000084,0.00000051,0
 .00000093,0.00000080,0.00000011,0.,-0.00000057,-0.00000096,-0.00000004
 ,-0.00000067,0.00000090,-0.00000138,-0.00000069,0.00000006,0.00000040,
 0.00000009,-0.00000032,0.00000035,0.00000013,0.00000028,0.00000065,0.0
 0000087,0.00000002,-0.00000045,-0.00000060,0.00000002,-0.00000041,-0.0
 0000059,-0.00000006,0.00000395,0.00000022,0.00000055,-0.00000093,-0.00
 000063,0.00000002,0.00000085,0.00000122,0.00000002,-0.00000645,-0.0000
 0095,-0.00000020,0.00000218,-0.00000001,-0.00000024,0.00000036,0.00000
 151,0.00000009,0.00000223,-0.00000026,0.,-0.00000066,-0.00000096,0.,0.
 00000225,0.00000021,0.00000005,0.00000071,-0.00000010,0.,0.00000053,0.
 00000043,0.00000004,-0.00000055,0.00000056,0.00000003,-0.00000063,-0.0
 0000039,-0.00000003,0.00000033,-0.00000052,0.00000005,0.00000716,-0.00
 000078,0.00000027,-0.00000040,0.00000476,0.00000022,-0.00070720,0.0000
 9253,0.00000210,-0.00001298,0.00001129,-0.00000045,0.00000878,0.000010
 07,-0.00000010,0.00004780,-0.00005298,0.00000073,-0.00004505,0.0000242
 7,-0.00000055,0.00000163,-0.00002663,0.00000094,0.00000950,-0.00000129
 ,-0.00000096,-0.00000358,-0.00000451,-0.00000007,0.00000401,-0.0000022
 7,0.00000007,0.00000781,-0.00000658,0.00000051,0.00000147,0.00000686,0
 .00000077,0.00000150,0.00000673,-0.00000088,0.00001142,0.00000195,-0.0
 0000003,0.00000053,-0.00000231,0.00000192,0.00000018,-0.00000254,-0.00
 000212,-0.00000540,-0.00000029,0.00000002,-0.00000038,0.00000025,0.000
 00097,-0.00000049,0.00000024,-0.00000102,0.00000475,0.00000216,0.00000
 008,-0.00000045,-0.00000064,-0.00000359,-0.00000036,-0.00000062,0.0000
 0351,-0.00006595,-0.00003578,0.00000500,-0.00002401,0.00005428,0.00005
 345,-0.00002226,0.00005678,-0.00005533,-0.00000118,0.00004308,-0.00000
 105,0.00000819,-0.00001733,0.00000532,0.00000886,-0.00001793,-0.000005
 51,0.00001918,-0.00000909,0.00000030,0.00001872,-0.00000069,-0.0000099
 5,0.00002000,-0.00000102,0.00000944,-0.00000672,-0.00000254,0.00000015
 ,0.00000022,0.00000280,0.00000066,0.00000007,0.00000285,-0.00000074,0.
 00097594,0.00108802,-0.00008088,-0.00000042,0.00000324,0.,-0.00000078,
 -0.00001316,0.00000007,0.01491202,-0.01921507,0.00027142,-0.00400122,-
 0.00204868,0.00015024,-0.00074630,0.00049768,-0.00001161,-0.00041879,0
 .00161696,0.00009226,-0.00362643,0.00266206,0.00005079,0.11500887,-0.2
 9878077,0.00324722,-0.00014088,0.00002408,0.00000131,0.00049016,0.0007
 5100,-0.00008053,0.00064884,-0.00099509,0.00001323,-0.12247555,0.31431
 353,-0.00000021,0.,-0.00000030,0.,-0.00000007,-0.00000074,-0.00000006,
 0.00000022,-0.00000094,0.00000011,0.00000009,-0.00000097,0.00000006,-0
 .00000008,0.00000064,0.00000006,0.,-0.00000022,-0.00000014,-0.00000010
 ,-0.00000049,-0.00000004,0.,0.00000079,0.,0.00000008,0.00000124,-0.000
 00002,-0.00000010,0.00000253,0.00000061,-0.00000007,-0.00000046,-0.000
 00052,0.00000008,-0.00000069,-0.00000002,-0.00000006,0.00000040,-0.000
 00114,0.00000008,-0.00000055,0.00000105,-0.00000003,-0.00000057,0.0000
 0004,-0.00000005,0.00000382,-0.00000083,0.00000028,-0.00000134,0.00000
 089,-0.00000030,-0.00000115,0.00000006,0.00000007,-0.00000047,0.000001
 07,0.00000012,-0.00000052,-0.00000116,-0.00000005,-0.00000063,-0.00000
 003,0.00000024,0.00000058,0.00000044,-0.00000002,-0.00000009,-0.000000
 53,-0.00000003,-0.00000019,0.00000031,-0.00000012,0.00000133,0.0000003
 9,-0.00000006,-0.00000046,-0.00000034,0.00000013,-0.00000047,-0.000000
 17,-0.00000005,0.00000021,0.00000044,-0.00000008,-0.00000028,-0.000000
 47,0.00000010,-0.00000027,-0.00000017,-0.00000008,0.00000073,-0.000000
 32,0.,-0.00000036,0.00000038,0.00000006,-0.00000037,-0.00000002,-0.000
 00015,-0.00000031,-0.00000002,-0.00000010,0.00000113,0.00000005,-0.000
 00004,0.00000018,0.00000008,-0.00000071,0.00000006,-0.00000021,0.00000
 028,0.00000002,0.00000042,0.00000004,-0.00000060,-0.00000027,-0.000000
 17,-0.00000018,0.00000027,0.00000013,-0.00000026,-0.00000028,0.0000005
 7,-0.00000046,0.00000008,-0.00000002,0.00000026,0.,-0.00000005,0.00000
 027,0.00000005,-0.00000005,0.00000048,0.00000002,0.00000003,0.00000032
 ,-0.00000002,0.,0.00000032,0.00000012,0.00000038,-0.00000313,-0.000000
 02,-0.00000062,0.00000211,0.00001074,0.00000279,0.00026008,0.00000064,
 0.00000023,0.00000157,0.00000027,-0.00000118,0.00001894,-0.00000257,0.
 00000034,-0.00003027,0.00000206,0.00000129,0.00014898,-0.00000032,0.00
 000268,-0.00000859,-0.00000148,-0.00000026,-0.00005321,0.00000033,0.00
 000015,-0.00000195,-0.00000002,0.00000014,0.00000278,-0.00000027,0.000
 00035,0.00000439,-0.00000193,0.00000011,-0.00000055,0.00000175,-0.0000
 0058,-0.00000048,-0.00000030,-0.00000012,0.00000532,0.00000160,-0.0000
 0075,-0.00000217,-0.00000156,0.00000081,-0.00000213,0.00000009,-0.0000
 0006,0.00000016,0.00000177,0.00000012,-0.00000093,-0.00000178,-0.00000
 013,-0.00000087,-0.00000017,0.,0.00000249,-0.00000097,0.00000024,-0.00
 000099,0.00000100,-0.00000025,-0.00000118,0.00000105,0.00000059,0.0002
 5989,0.00000853,-0.00001806,-0.00007038,-0.00000183,0.00001709,-0.0000
 6146,-0.00000050,-0.00000114,-0.00006781,-0.00002658,0.00001203,-0.000
 00439,0.00002502,-0.00001104,-0.00000374,0.00000034,0.00000065,0.00010
 795,-0.00000441,-0.00001321,-0.00003322,0.00000495,0.00001227,-0.00002
 993,-0.00000040,-0.00000055,-0.00003001,0.00001164,-0.00000524,-0.0000
 0287,-0.00001242,0.00000563,-0.00000328,-0.00004499,-0.00008618,-0.004
 21805,0.00000003,-0.00000008,0.00000019,0.00000024,0.00000007,0.000009
 04,-0.00025174,0.00047672,0.00459232,0.00010819,0.00014837,0.00660263,
 0.00001242,-0.00001675,-0.00072377,0.00007636,0.00009851,0.00759202,0.
 00012663,-0.00014540,0.00458061,-0.00127660,0.00323323,-0.04119274,0.0
 0000632,-0.00000786,0.00007286,-0.00003650,-0.00007175,-0.00437392,-0.
 00001085,0.00002402,0.00021668,0.00128482,-0.00363949,0.02766179,0.000
 00168,0.00000003,0.00000015,0.00001824,-0.00000204,-0.00000002,-0.0000
 0809,0.00000058,-0.00000006,0.00000132,-0.00000218,-0.00000008,-0.0000
 0409,-0.00000229,0.00000010,0.00000265,0.00000550,0.00000003,-0.000008
 51,0.00000183,0.00000006,-0.00000097,0.00000081,-0.00000003,0.00000217
 ,0.00000193,-0.00000004,-0.00000044,-0.00000199,-0.00000004,0.00000148
 ,-0.00000141,0.00000199,0.00000152,-0.00000138,-0.00000199,0.00000090,
 -0.00000077,0.00000003,-0.00000100,0.00000033,-0.00000064,-0.00000098,
 0.00000033,0.00000062,-0.00000026,0.00000011,0.00000001,0.00000009,-0.
 00000025,-0.00000140,0.00000014,-0.00000027,0.00000138,0.00000054,0.00
 000015,0.00000003,-0.00000064,-0.00000008,0.00000051,-0.00000065,-0.00
 000008,-0.00000052,-0.00000074,0.00000084,-0.00000003,-0.00000051,-0.0
 0000095,0.00000014,-0.00000053,-0.00000093,-0.00000021,-0.00000172,-0.
 00000088,0.00000005,0.00000022,0.00000077,0.00000056,0.00000017,0.0000
 0075,-0.00000058,0.00000133,0.00000078,0.00000003,-0.00000019,-0.00000
 021,-0.00000010,-0.00000023,-0.00000022,0.00000007,-0.00000119,-0.0000
 0118,0.,0.00000045,0.00000070,0.00000056,0.00000048,0.00000069,-0.0000
 0057,-0.00000479,-0.00000033,-0.00000013,0.00000058,0.00000058,0.,-0.0
 0000071,-0.00000125,0.,0.00000672,0.00000021,-0.00000007,-0.00000221,0
 .,0.00000012,-0.00000008,-0.00000115,-0.00000008,-0.00000242,0.0000003
 0,-0.00000001,0.00000030,0.00000086,0.00000003,-0.00000249,0.00000031,
 0.,-0.00000051,0.00000007,0.00000001,-0.00000055,-0.00000045,0.,0.0000
 0045,-0.00000054,0.,0.00000063,0.00000033,0.00000002,-0.00000031,0.000
 00041,0.,-0.00001799,0.00000128,0.00000025,0.00000841,-0.00000014,-0.0
 0000020,-0.00039028,-0.00004159,0.00000066,-0.00001355,-0.00001034,0.0
 0000012,0.00000744,-0.00000318,-0.00000053,-0.00009853,0.00004003,0.00
 000065,0.00014058,-0.00009775,0.00000057,-0.00004158,-0.00000579,-0.00
 000010,0.00000614,0.00001134,0.00000021,0.00000983,0.00001474,-0.00000
 005,-0.00000979,0.00000275,-0.00000002,-0.00000688,0.00001014,0.000000
 14,-0.00000252,-0.00000662,0.00000026,-0.00000253,-0.00000663,-0.00000
 025,-0.00001475,-0.00000398,-0.00000001,0.00000033,0.00000379,-0.00000
 247,0.00000060,0.00000408,0.00000245,0.00000584,0.00000159,0.,0.000000
 88,-0.00000120,-0.00000240,0.00000083,-0.00000117,0.00000237,-0.000007
 51,-0.00000335,0.00000004,-0.00000013,0.00000082,0.00000699,-0.0000001
 3,0.00000076,-0.00000700,-0.00000671,0.00000280,-0.00000012,0.00000352
 ,-0.00001081,-0.00001379,0.00000361,-0.00001090,0.00001381,0.00000246,
 -0.00000769,0.00000006,-0.00000425,0.00000364,-0.00000134,-0.00000420,
 0.00000371,0.00000131,-0.00000957,0.00000020,0.00000002,0.00000057,-0.
 00000161,-0.00000013,0.00000059,-0.00000160,0.00000011,0.00000481,0.00
 000296,0.,-0.00000143,-0.00000086,0.00000039,-0.00000145,-0.00000086,-
 0.00000040,-0.00036252,0.00139563,-0.00001411,0.00000192,-0.00000349,0
 .00000002,0.00000098,0.00000475,-0.00000001,-0.00492596,-0.00107053,0.
 00008517,-0.00968427,0.03168490,-0.00039482,-0.11365474,0.11309947,-0.
 00125892,0.01165037,-0.01979796,0.00025612,-0.00193081,-0.00336213,0.0
 0010215,-0.00079336,-0.00077455,0.00001308,0.00079671,0.00060892,-0.00
 003637,0.00044194,-0.00091703,0.00001113,0.00087954,-0.00053531,-0.000
 02247,0.00010832,0.00008829,-0.00000864,0.11791198,-0.00000183,0.00000
 006,-0.00000019,-0.00001730,0.00000205,0.00000010,0.00000806,0.0000006
 6,0.00000014,0.00000053,0.00000041,0.00000003,0.00000363,0.00000283,-0
 .00000023,-0.00000182,-0.00000585,0.00000002,0.00000781,-0.00000177,-0
 .00000018,0.00000108,-0.00000099,0.00000011,-0.00000257,-0.00000211,0.
 00000019,0.00000041,0.00000199,-0.00000033,-0.00000144,0.00000166,-0.0
 0000234,-0.00000152,0.00000150,0.00000245,-0.00000112,0.00000065,-0.00
 000013,0.00000120,-0.00000026,0.00000082,0.00000107,-0.00000028,-0.000
 00065,0.00000014,-0.00000008,-0.00000011,0.00000005,0.00000013,0.00000
 188,-0.00000016,0.00000020,-0.00000171,-0.00000065,-0.00000029,-0.0000
 0015,0.00000081,0.00000023,-0.00000072,0.00000088,0.00000021,0.0000008
 1,0.00000040,-0.00000048,-0.00000022,0.00000066,0.00000097,-0.00000048
 ,0.00000074,0.00000093,0.00000079,0.00000085,0.00000097,-0.00000008,-0
 .00000007,-0.00000068,-0.00000135,0.00000009,-0.00000065,0.00000147,-0
 .00000170,-0.00000073,-0.00000014,0.00000051,0.00000003,-0.00000043,0.
 00000071,0.00000004,0.00000061,0.00000080,0.00000098,-0.00000011,-0.00
 000053,-0.00000066,0.00000044,-0.00000062,-0.00000062,-0.00000035,0.00
 000489,0.00000012,0.00000038,-0.00000088,-0.00000075,-0.00000001,0.000
 00103,0.00000147,0.,-0.00000809,0.00000049,-0.00000006,0.00000308,-0.0
 0000086,-0.00000009,0.00000018,0.00000156,0.00000016,0.00000325,-0.000
 00015,0.00000005,-0.00000076,-0.00000138,-0.00000012,0.00000333,0.0000
 0041,0.00000008,0.00000085,-0.00000009,-0.00000005,0.00000051,0.000000
 44,-0.00000002,-0.00000075,0.00000066,-0.00000001,-0.00000079,-0.00000
 056,-0.00000007,0.00000044,-0.00000062,-0.00000004,0.00001316,-0.00000
 194,-0.00000036,-0.00000230,-0.00000207,0.00000035,0.00001408,-0.00002
 239,-0.00000287,0.00001201,0.00000749,-0.00000066,-0.00000509,-0.00001
 913,-0.00000032,0.00002658,-0.00000868,0.00000083,-0.00005755,0.000000
 83,-0.00000097,0.00002996,0.00000037,-0.00000001,-0.00000183,0.0000035
 9,0.00000020,-0.00000806,-0.00000694,0.00000026,0.00000447,-0.00000330
 ,0.00000021,0.00000259,-0.00000153,0.,0.00000162,0.00000340,0.00000086
 ,0.00000180,0.00000354,-0.00000075,0.00000672,0.00000278,-0.00000028,-
 0.00000071,-0.00000204,-0.00000240,-0.00000076,-0.00000213,0.00000255,
 -0.00000436,-0.00000094,-0.00000024,0.00000101,0.00000036,-0.00000011,
 0.00000110,0.00000030,0.00000028,0.00000330,0.00000253,-0.00000001,-0.
 00000139,-0.00000141,-0.00000033,-0.00000143,-0.00000139,0.00000037,0.
 00000344,0.00000625,0.00000040,-0.00000663,0.00000539,0.00000852,-0.00
 000670,0.00000531,-0.00000838,-0.00000390,0.00000323,-0.00000038,0.000
 00392,-0.00000134,0.00000200,0.00000385,-0.00000146,-0.00000192,0.0000
 0199,-0.00000165,-0.00000014,-0.00000065,0.00000144,0.00000470,-0.0000
 0074,0.00000140,-0.00000470,-0.00000141,-0.00000062,0.00000002,0.00000
 230,0.00000025,-0.00000147,0.00000233,0.00000027,0.00000151,0.00002320
 ,-0.00003796,0.00000853,0.00000159,0.00000358,-0.00000003,-0.00000201,
 -0.00000298,0.00000002,-0.00074806,0.00183835,0.00008504,-0.00309381,0
 .00193192,0.00005794,0.11327591,-0.29858529,0.00322444,0.01486565,-0.0
 1834849,0.00025986,-0.00406760,-0.00210720,0.00016438,-0.00078817,0.00
 050142,-0.00001301,-0.00041513,0.00085849,-0.00007392,0.00069639,-0.00
 099613,0.00001128,0.00042793,0.00075554,-0.00007937,0.00009397,-0.0000
 4010,-0.00001805,-0.12030786,0.31425731,-0.00000013,-0.00000003,-0.000
 00053,0.00000004,-0.00000006,0.00000215,-0.00000004,0.00000003,-0.0000
 0043,0.00000003,0.00000008,-0.00000059,-0.00000004,-0.00000002,0.00000
 032,0.00000008,-0.00000001,-0.00000042,-0.00000008,0.,-0.00000097,-0.0
 0000004,0.,0.00000045,0.,0.00000006,0.00000094,-0.00000002,-0.00000003
 ,0.00000133,0.00000036,0.,-0.00000021,-0.00000033,-0.00000003,-0.00000
 031,0.00000004,-0.00000006,0.00000036,-0.00000049,0.00000009,-0.000000
 29,0.00000046,-0.00000005,-0.00000030,0.,-0.00000001,0.00000132,-0.000
 00039,0.00000007,-0.00000047,0.00000041,-0.00000009,-0.00000043,0.0000
 0003,0.00000003,-0.00000004,0.00000042,0.00000003,-0.00000023,-0.00000
 044,0.,-0.00000028,-0.00000005,0.00000012,0.00000059,0.00000037,-0.000
 00007,-0.00000011,-0.00000041,0.00000003,-0.00000017,0.00000017,-0.000
 00008,0.00000133,0.00000036,0.,-0.00000042,-0.00000034,0.00000004,-0.0
 0000044,-0.00000007,-0.00000002,0.00000015,0.00000046,-0.00000013,-0.0
 0000028,-0.00000048,0.00000014,-0.00000028,-0.00000010,-0.00000006,0.0
 0000088,-0.00000036,-0.00000008,-0.00000040,0.00000040,0.00000013,-0.0
 0000043,0.,-0.00000002,-0.00000004,0.,-0.00000003,0.00000038,0.0000000
 2,-0.00000003,0.00000023,0.00000009,-0.00000042,0.00000007,-0.00000008
 ,0.00000020,-0.00000022,0.00000017,0.00000003,-0.00000031,-0.00000016,
 -0.00000009,-0.00000010,0.00000013,0.00000006,-0.00000038,-0.00000017,
 0.00000025,-0.00000016,0.00000003,-0.00000001,0.00000021,0.,-0.0000000
 2,0.00000023,0.00000003,-0.00000003,0.00000030,0.,0.00000003,0.0000002
 9,0.,0.,0.00000022,0.00000010,0.00000025,-0.00000803,-0.00000020,-0.00
 000022,0.00000796,0.00000231,-0.00000093,-0.00015860,0.00000008,-0.000
 00014,-0.00000722,-0.00000008,0.00000045,-0.00000112,0.00000008,0.0000
 0022,0.00000835,-0.00000064,0.00000046,-0.00000220,0.00000010,-0.00000
 014,-0.00000606,-0.00000022,-0.00000028,-0.00000311,0.00000008,0.00000
 006,0.00000678,-0.00000003,0.00000006,0.00000211,-0.00000007,0.0000000
 9,-0.00000060,-0.00000235,0.00000026,-0.00000041,0.00000234,-0.0000003
 7,-0.00000039,-0.00000004,-0.00000007,0.00001119,0.00000125,-0.0000003
 0,-0.00000312,-0.00000124,0.00000035,-0.00000310,0.00000005,0.,-0.0000
 0172,0.00000254,-0.00000043,-0.00000109,-0.00000255,0.00000040,-0.0000
 0107,-0.00000007,0.,0.00000664,-0.00000130,0.00000003,-0.00000232,0.00
 000130,0.,-0.00000246,0.00000020,-0.00000006,0.00000609,-0.00000123,-0
 .00000226,-0.00000097,0.00000140,0.00000212,-0.00000079,0.00000011,-0.
 00000011,-0.00000122,-0.00000171,0.00000076,-0.00000094,0.00000163,-0.
 00000069,-0.00000089,0.00000005,0.,0.00000472,-0.00000121,0.00000002,-
 0.00000144,0.00000118,-0.00000006,-0.00000125,0.,-0.00000002,-0.000000
 23,0.00000112,-0.00000011,-0.00000061,-0.00000119,0.00000012,-0.000000
 71,0.00000287,-0.00000473,0.00034175,0.,-0.00000005,-0.00000001,0.0000
 0004,0.,0.00000090,0.00007571,0.00009146,0.00749760,0.00010744,-0.0001
 4232,0.00433220,-0.00124804,0.00322542,-0.04151130,-0.00027039,0.00045
 234,0.00431204,0.00011824,0.00016504,0.00724070,0.00002245,-0.00001945
 ,-0.00066626,-0.00001986,-0.00007720,-0.00409792,-0.00001243,0.0000234
 3,0.00010365,-0.00003505,-0.00007139,-0.00436991,-0.00000874,-0.000017
 93,-0.00122171,0.00126615,-0.00362403,0.02819360\\0.00000274,-0.000003
 22,-0.00001753,0.00000022,0.00001578,0.00000161,0.00001527,-0.00002117
 ,0.00000129,-0.00002125,-0.00002324,0.00000761,0.00000567,0.00001916,-
 0.00001313,0.00000029,-0.00000679,-0.00000568,-0.00001100,-0.00001049,
 0.00000141,0.,-0.00001118,0.00000025,0.00000001,0.00000188,-0.00000078
 ,0.00000461,0.00000068,-0.00000101,-0.00000095,0.00000327,-0.00000143,
 -0.00000654,-0.00000225,0.00000012,0.00000364,0.00000446,-0.00000409,0
 .00000464,0.00000691,0.00000301,-0.00000243,-0.00000266,-0.00000033,-0
 .00000500,0.00000619,-0.00000465,-0.00000352,-0.00000209,0.00000056,-0
 .00000158,-0.00000215,0.00000037,-0.00000266,-0.00000222,0.00000257,-0
 .00000336,-0.00000115,-0.00000060,-0.00000307,-0.00000200,-0.00000069,
 0.00000181,0.00000761,0.00000189,0.00000261,-0.00000650,0.00000399,0.0
 0000063,-0.00000324,-0.00000171,0.00000131,-0.00000228,-0.00000159,0.0
 0000311,-0.00000089,0.00000184,0.00000472,-0.00000098,-0.00000399,-0.0
 0000169,-0.00000766,0.00000139,0.00000207,-0.00000225,-0.00000056,0.00
 000313,-0.00000229,0.00000056,0.00000458,-0.00000193,0.00000087,0.0000
 0201,-0.00000221,0.00000020,0.00000302,-0.00000195,-0.00000007,-0.0000
 0428,-0.00002721,0.00004715,-0.00000366,-0.00000072,-0.00000026,0.0000
 0322,-0.00000263,-0.00000042,0.00000162,0.00001664,-0.00002936,-0.0000
 0552,-0.00001206,-0.00000036,-0.00000273,-0.00001550,-0.00000058,0.000
 00191,0.00001878,0.00000267,0.00001869,-0.00002711,-0.00000062,-0.0000
 1216,-0.00000171,0.00000836,-0.00000013,-0.00000795,-0.00000263,0.0000
 0068,-0.00000295,0.00000291,-0.00000241,-0.00000428,-0.00000468,0.0000
 0474,-0.00000523,-0.00000324,-0.00000326,-0.00000612,0.00000210,-0.000
 00400,0.00000753,0.00002174,0.00000409,-0.00000794,-0.00001686,-0.0000
 0529,0.00002487,0.00000622,-0.00000166,0.00003434,0.00000196,0.0000024
 4,-0.00001371,-0.00000054,-0.00000896,0.00001370,0.00000531,0.00000067
 ,-0.00002711,0.00000142,0.00001754,0.00000802,-0.00000448,-0.00000773,
 -0.00001454,0.00000259,0.00000174,0.00000009,-0.00000399,0.00000182,0.
 00000558,0.00000046,0.00000982,0.00000907,-0.00000450,0.00000032,0.000
 00010,0.00000276,-0.00000154,-0.00000296,0.00000010,0.00000941,0.00001
 163,0.00000322,0.00000333,0.00000165,0.00000043,-0.00000298,-0.0000059
 4,-0.00000093,-0.00000205,-0.00000902,-0.00000048,0.00000492,0.0000032
 3,0.00000117,0.00000291,0.00000318,0.00000006,0.00000320,0.00000476,-0
 .00000023,0.00000312,0.00000125,-0.00000003,0.00000366,0.00000111,0.00
 000008,-0.00001326,0.00000364,0.00000290,-0.00000169,0.00000265,-0.000
 00103,0.00000195,0.00000549,0.00000161,-0.00001114,-0.00000757,-0.0000
 0522,0.00000125,0.00000766,-0.00000009,-0.00000359,0.00000220,0.000000
 86,0.00000165,0.00000485,-0.00000058,-0.00000267,0.00000201,-0.0000007
 8,-0.00000295,0.00000263,0.00000030,-0.00000327,0.00000219,0.00000017,
 -0.00000415,0.00000186,0.00000061,-0.00000378,0.00000135,0.00000022,0.
 00000382,-0.00000897,-0.00001420,0.00000392,0.00000035,-0.00000014,-0.
 00000380,0.00000297,-0.00000011,0.00000498,0.00001214,0.00001106,0.000
 00646,0.00000335,-0.00000116,-0.00000739,0.00001087,-0.00000400,-0.000
 00155,0.00000505,0.00000266,0.00000375,0.00000682,-0.00000269,-0.00000
 257,-0.00000369,0.00000526,0.00000041,0.00000451,-0.00000140,-0.000002
 21,0.00000485,0.00000244,0.00000018,0.00000693,-0.00000395,-0.00000308
 ,0.00000534,-0.00000276,0.00000422,0.00000652,0.00000179\\\@


 THE MORE PROGRESS PHYSICAL SCIENCES MAKE, THE MORE THEY TEND TO ENTER
 THE DOMAIN OF MATHEMATICS, WHICH IS A KIND OF CENTRE TO WHICH THEY ALL
 CONVERGE.  WE MAY EVEN JUDGE THE DEGREE OF PERFECTION TO WHICH A 
 SCIENCE HAS ARRIVED BY THE FACILITY WITH WHICH IT MAY BE SUBMITTED
 TO CALCULATION.

                               -- ADOLPHE QUETELET, 1796-1874
 Job cpu time:       3 days  6 hours  2 minutes 28.6 seconds.
 File lengths (MBytes):  RWF=  14526 Int=      0 D2E=      0 Chk=     44 Scr=      1
 Normal termination of Gaussian 09 at Fri May 17 02:50:07 2024.
