
                                 *****************
                                 * O   R   C   A *
                                 *****************

                                            #,                                       
                                            ###                                      
                                            ####                                     
                                            #####                                    
                                            ######                                   
                                           ########,                                 
                                     ,,################,,,,,                         
                               ,,#################################,,                 
                          ,,##########################################,,             
                       ,#########################################, ''#####,          
                    ,#############################################,,   '####,        
                  ,##################################################,,,,####,       
                ,###########''''           ''''###############################       
              ,#####''   ,,,,##########,,,,          '''####'''          '####       
            ,##' ,,,,###########################,,,                        '##       
           ' ,,###''''                  '''############,,,                           
         ,,##''                                '''############,,,,        ,,,,,,###''
      ,#''                                            '''#######################'''  
     '                                                          ''''####''''         
             ,#######,   #######,   ,#######,      ##                                
            ,#'     '#,  ##    ##  ,#'     '#,    #''#        ######   ,####,        
            ##       ##  ##   ,#'  ##            #'  '#       #        #'  '#        
            ##       ##  #######   ##           ,######,      #####,   #    #        
            '#,     ,#'  ##    ##  '#,     ,#' ,#      #,         ##   #,  ,#        
             '#######'   ##     ##  '#######'  #'      '#     #####' # '####'        



                  #######################################################
                  #                        -***-                        #
                  #          Department of theory and spectroscopy      #
                  #    Directorship and core code : Frank Neese         #
                  #        Max Planck Institute fuer Kohlenforschung    #
                  #                Kaiser Wilhelm Platz 1               #
                  #                 D-45470 Muelheim/Ruhr               #
                  #                      Germany                        #
                  #                                                     #
                  #                  All rights reserved                #
                  #                        -***-                        #
                  #######################################################


                         Program Version 5.0.4 -  RELEASE  -


 With contributions from (in alphabetic order):
   Daniel Aravena         : Magnetic Suceptibility
   Michael Atanasov       : Ab Initio Ligand Field Theory (pilot matlab implementation)
   Alexander A. Auer      : GIAO ZORA, VPT2 properties, NMR spectrum
   Ute Becker             : Parallelization
   Giovanni Bistoni       : ED, misc. LED, open-shell LED, HFLD
   Martin Brehm           : Molecular dynamics
   Dmytro Bykov           : SCF Hessian
   Vijay G. Chilkuri      : MRCI spin determinant printing, contributions to CSF-ICE
   Dipayan Datta          : RHF DLPNO-CCSD density
   Achintya Kumar Dutta   : EOM-CC, STEOM-CC
   Dmitry Ganyushin       : Spin-Orbit,Spin-Spin,Magnetic field MRCI
   Miquel Garcia          : C-PCM and meta-GGA Hessian, CC/C-PCM, Gaussian charge scheme
   Yang Guo               : DLPNO-NEVPT2, F12-NEVPT2, CIM, IAO-localization
   Andreas Hansen         : Spin unrestricted coupled pair/coupled cluster methods
   Benjamin Helmich-Paris : MC-RPA, TRAH-SCF, COSX integrals
   Lee Huntington         : MR-EOM, pCC
   Robert Izsak           : Overlap fitted RIJCOSX, COSX-SCS-MP3, EOM
   Marcus Kettner         : VPT2
   Christian Kollmar      : KDIIS, OOCD, Brueckner-CCSD(T), CCSD density, CASPT2, CASPT2-K
   Simone Kossmann        : Meta GGA functionals, TD-DFT gradient, OOMP2, MP2 Hessian
   Martin Krupicka        : Initial AUTO-CI
   Lucas Lang             : DCDCAS
   Marvin Lechner         : AUTO-CI (C++ implementation), FIC-MRCC
   Dagmar Lenk            : GEPOL surface, SMD
   Dimitrios Liakos       : Extrapolation schemes; Compound Job, initial MDCI parallelization
   Dimitrios Manganas     : Further ROCIS development; embedding schemes
   Dimitrios Pantazis     : SARC Basis sets
   Anastasios Papadopoulos: AUTO-CI, single reference methods and gradients
   Taras Petrenko         : DFT Hessian,TD-DFT gradient, ASA, ECA, R-Raman, ABS, FL, XAS/XES, NRVS
   Peter Pinski           : DLPNO-MP2, DLPNO-MP2 Gradient
   Christoph Reimann      : Effective Core Potentials
   Marius Retegan         : Local ZFS, SOC
   Christoph Riplinger    : Optimizer, TS searches, QM/MM, DLPNO-CCSD(T), (RO)-DLPNO pert. Triples
   Tobias Risthaus        : Range-separated hybrids, TD-DFT gradient, RPA, STAB
   Michael Roemelt        : Original ROCIS implementation
   Masaaki Saitow         : Open-shell DLPNO-CCSD energy and density
   Barbara Sandhoefer     : DKH picture change effects
   Avijit Sen             : IP-ROCIS
   Kantharuban Sivalingam : CASSCF convergence, NEVPT2, FIC-MRCI
   Bernardo de Souza      : ESD, SOC TD-DFT
   Georgi Stoychev        : AutoAux, RI-MP2 NMR, DLPNO-MP2 response
   Willem Van den Heuvel  : Paramagnetic NMR
   Boris Wezisla          : Elementary symmetry handling
   Frank Wennmohs         : Technical directorship


 We gratefully acknowledge several colleagues who have allowed us to
 interface, adapt or use parts of their codes:
   Stefan Grimme, W. Hujo, H. Kruse, P. Pracht,  : VdW corrections, initial TS optimization,
                  C. Bannwarth, S. Ehlert          DFT functionals, gCP, sTDA/sTD-DF
   Ed Valeev, F. Pavosevic, A. Kumar             : LibInt (2-el integral package), F12 methods
   Garnet Chan, S. Sharma, J. Yang, R. Olivares  : DMRG
   Ulf Ekstrom                                   : XCFun DFT Library
   Mihaly Kallay                                 : mrcc  (arbitrary order and MRCC methods)
   Jiri Pittner, Ondrej Demel                    : Mk-CCSD
   Frank Weinhold                                : gennbo (NPA and NBO analysis)
   Christopher J. Cramer and Donald G. Truhlar   : smd solvation model
   Lars Goerigk                                  : TD-DFT with DH, B97 family of functionals
   V. Asgeirsson, H. Jonsson                     : NEB implementation
   FAccTs GmbH                                   : IRC, NEB, NEB-TS, DLPNO-Multilevel, CI-OPT
                                                   MM, QMMM, 2- and 3-layer-ONIOM, Crystal-QMMM,
                                                   LR-CPCM, SF, NACMEs, symmetry and pop. for TD-DFT,
                                                   nearIR, NL-DFT gradient (VV10), updates on ESD,
                                                   ML-optimized integration grids
   S Lehtola, MJT Oliveira, MAL Marques          : LibXC Library
   Liviu Ungur et al                             : ANISO software


 Your calculation uses the libint2 library for the computation of 2-el integrals
 For citations please refer to: http://libint.valeyev.net

 Your ORCA version has been built with support for libXC version: 5.1.0
 For citations please refer to: https://tddft.org/programs/libxc/

 This ORCA versions uses:
   CBLAS   interface :  Fast vector & matrix operations
   LAPACKE interface :  Fast linear algebra routines
   SCALAPACK package :  Parallel linear algebra routines
   Shared memory     :  Shared parallel matrices
   BLAS/LAPACK       :  OpenBLAS 0.3.15  USE64BITINT DYNAMIC_ARCH NO_AFFINITY SkylakeX SINGLE_THREADED
        Core in use  :  SkylakeX
   Copyright (c) 2011-2014, The OpenBLAS Project




***************************************
The coordinates will be read from file: opt.xyz
***************************************


================================================================================

----- Orbital basis set information -----
Your calculation utilizes the basis: cc-pVDZ 
       H, B-Ne : Obtained from the ccRepo (grant-hill.group.shef.ac.uk/ccrepo) Feb. 2017
                 T. H. Dunning, Jr., J. Chem. Phys. 90, 1007 (1989)
            He : Obtained from the ccRepo (grant-hill.group.shef.ac.uk/ccrepo) Feb. 2017
                 D. E. Woon, T. H. Dunning, Jr., J. Chem. Phys. 100, 2975 (1994)
  Li-Be, Na-Mg : Obtained from the ccRepo (grant-hill.group.shef.ac.uk/ccrepo) Feb. 2017
                 B. P. Prascher, D. E. Woon, K. A. Peterson, T. H. Dunning, Jr., A. K. Wilson, Theor. Chem. Acc. 128, 69 (2011)
         Al-Ar : Obtained from the ccRepo (grant-hill.group.shef.ac.uk/ccrepo) Feb. 2017
                 D. E. Woon, T. H. Dunning, Jr., J. Chem. Phys. 98, 1358 (1993)
            Ca : Obtained from the Peterson Research Group Website (tyr0.chem.wsu.edu/~kipeters) Feb. 2017
                 J. Koput, K. A. Peterson, J. Phys. Chem. 106, 9595 (2002)
         Sc-Zn : Obtained from the ccRepo (grant-hill.group.shef.ac.uk/ccrepo) Feb. 2017
                 N. B. Balabanov, K. A. Peterson, J. Chem. Phys. 123, 064107 (2005)
                 N. B. Balabanov, K. A. Peterson, J. Chem. Phys. 125, 074110 (2006)
         Ga-Kr : Obtained from the ccRepo (grant-hill.group.shef.ac.uk/ccrepo) Feb. 2017
                 A. K. Wilson, D. E. Woon, K. A. Peterson, T. H. Dunning, Jr., J. Chem. Phys. 110, 7667 (1999)

----- AuxJ basis set information -----
Your calculation utilizes the AutoAux generation procedure.
  G. L. Stoychev, A. A. Auer, F. Neese, J. Chem. Theory Comput. 13, 554 (2017)

----- AuxC basis set information -----
Your calculation utilizes the AutoAux generation procedure.
  G. L. Stoychev, A. A. Auer, F. Neese, J. Chem. Theory Comput. 13, 554 (2017)

----- AuxJK basis set information -----
Your calculation utilizes the AutoAux generation procedure.
  G. L. Stoychev, A. A. Auer, F. Neese, J. Chem. Theory Comput. 13, 554 (2017)

================================================================================
                                        WARNINGS
                       Please study these warnings very carefully!
================================================================================

WARNING: Old DensityContainer found on disk!
         Will remove this file - 
         If you want to keep old densities, please start your calculation with a different basename. 


WARNING: your system is open-shell and RHF/RKS was chosen
  ===> : WILL SWITCH to UHF/UKS


INFO   : the flag for use of the SHARK integral package has been found!

================================================================================
                                       INPUT FILE
================================================================================
NAME = cc-pVDZ_i.inp
|  1> ! B3LYP cc-pVDZ AUTOAUX
|  2> %pal nprocs 16 end
|  3> *XYZFile 0 2 opt.xyz
|  4> %EPRNMR
|  5>         GTENSOR   TRUE
|  6>         NUCLEI    = ALL H {SHIFT, AISO, ADIP, AORB}
|  7>         ORI       GIAO
|  8> END
|  9> 
| 10>                          ****END OF INPUT****
================================================================================

                       ****************************
                       * Single Point Calculation *
                       ****************************

---------------------------------
CARTESIAN COORDINATES (ANGSTROEM)
---------------------------------
  C      2.831806   -0.006236   -0.008272
  C     -1.314139   -0.014773   -0.012929
  C     -0.703841   -1.259958   -0.014279
  C      0.699293   -1.203568   -0.012429
  C      1.402358    0.023007   -0.009542
  C      0.708612    1.263431   -0.008102
  C     -0.699666    1.217589   -0.009942
  H      1.283513   -2.125515   -0.013363
  H     -1.285093    2.138713   -0.009038
  C     -1.509688   -2.548043   -0.017242
  H     -2.182378   -2.530206   -0.894243
  H     -2.180594   -2.535322    0.861245
  C     -0.708611   -3.852555   -0.021718
  H     -0.045377   -3.880501   -0.905977
  H     -0.045441   -3.886600    0.862377
  C     -1.603186   -5.097748   -0.025923
  H     -2.269586   -5.070311    0.856270
  H     -2.268554   -5.065066   -0.908715
  C     -0.811642   -6.407882   -0.029365
  H     -0.163127   -6.486668    0.860305
  H     -0.161649   -6.481086   -0.918435
  C      1.483960    2.566701   -0.004836
  H      2.159953    2.562804    0.870276
  H      2.160515    2.566853   -0.879537
  C      0.662999    3.858831   -0.002137
  H      0.000591    3.884733   -0.887173
  H     -0.000881    3.880108    0.881917
  C      1.540854    5.116159    0.001806
  H      2.206133    5.092323    0.884894
  H      2.207958    5.096581   -0.880007
  C      0.732381    6.415841    0.004122
  H      0.081081    6.481192    0.892854
  H      0.083265    6.485731   -0.885860
  C      4.053310   -0.041189   -0.009378
  H     -1.480462   -7.283854   -0.032687
  H      1.389551    7.300598    0.007195
  C      5.481187   -0.085650   -0.008586
  C      6.162322   -1.322563   -0.012255
  C      7.556386   -1.361278   -0.011394
  C      8.297343   -0.174069   -0.006934
  C      7.632552    1.057518   -0.003328
  C      6.238850    1.105969   -0.004137
  H      9.389310   -0.208771   -0.006270
  H      8.204901    1.988374    0.000175
  H      5.582883   -2.247731   -0.015759
  H      5.718665    2.065740   -0.001296
  H      8.069533   -2.326054   -0.014261

----------------------------
CARTESIAN COORDINATES (A.U.)
----------------------------
  NO LB      ZA    FRAG     MASS         X           Y           Z
   0 C     6.0000    0    12.011    5.351338   -0.011785   -0.015631
   1 C     6.0000    0    12.011   -2.483364   -0.027917   -0.024431
   2 C     6.0000    0    12.011   -1.330066   -2.380976   -0.026983
   3 C     6.0000    0    12.011    1.321473   -2.274413   -0.023487
   4 C     6.0000    0    12.011    2.650073    0.043478   -0.018032
   5 C     6.0000    0    12.011    1.339083    2.387539   -0.015311
   6 C     6.0000    0    12.011   -1.322177    2.300909   -0.018788
   7 H     1.0000    0     1.008    2.425488   -4.016642   -0.025253
   8 H     1.0000    0     1.008   -2.428474    4.041583   -0.017079
   9 C     6.0000    0    12.011   -2.852898   -4.815103   -0.032583
  10 H     1.0000    0     1.008   -4.124097   -4.781396   -1.689874
  11 H     1.0000    0     1.008   -4.120726   -4.791064    1.627518
  12 C     6.0000    0    12.011   -1.339080   -7.280273   -0.041042
  13 H     1.0000    0     1.008   -0.085750   -7.333084   -1.712048
  14 H     1.0000    0     1.008   -0.085871   -7.344609    1.629656
  15 C     6.0000    0    12.011   -3.029583   -9.633348   -0.048987
  16 H     1.0000    0     1.008   -4.288897   -9.581498    1.618115
  17 H     1.0000    0     1.008   -4.286946   -9.571588   -1.717223
  18 C     6.0000    0    12.011   -1.533781  -12.109141   -0.055493
  19 H     1.0000    0     1.008   -0.308266  -12.258027    1.625740
  20 H     1.0000    0     1.008   -0.305472  -12.247478   -1.735591
  21 C     6.0000    0    12.011    2.804278    4.850361   -0.009138
  22 H     1.0000    0     1.008    4.081720    4.842998    1.644584
  23 H     1.0000    0     1.008    4.082782    4.850648   -1.662084
  24 C     6.0000    0    12.011    1.252887    7.292135   -0.004038
  25 H     1.0000    0     1.008    0.001116    7.341081   -1.676515
  26 H     1.0000    0     1.008   -0.001665    7.332341    1.666581
  27 C     6.0000    0    12.011    2.911791    9.668140    0.003413
  28 H     1.0000    0     1.008    4.168988    9.623096    1.672208
  29 H     1.0000    0     1.008    4.172435    9.631142   -1.662972
  30 C     6.0000    0    12.011    1.384000   12.124183    0.007789
  31 H     1.0000    0     1.008    0.153221   12.247679    1.687249
  32 H     1.0000    0     1.008    0.157348   12.256256   -1.674034
  33 C     6.0000    0    12.011    7.659646   -0.077837   -0.017722
  34 H     1.0000    0     1.008   -2.797668  -13.764489   -0.061769
  35 H     1.0000    0     1.008    2.625870   13.796131    0.013597
  36 C     6.0000    0    12.011   10.357943   -0.161856   -0.016225
  37 C     6.0000    0    12.011   11.645101   -2.499282   -0.023159
  38 C     6.0000    0    12.011   14.279499   -2.572442   -0.021531
  39 C     6.0000    0    12.011   15.679706   -0.328942   -0.013103
  40 C     6.0000    0    12.011   14.423433    1.998419   -0.006290
  41 C     6.0000    0    12.011   11.789718    2.089978   -0.007818
  42 H     1.0000    0     1.008   17.743224   -0.394519   -0.011848
  43 H     1.0000    0     1.008   15.505016    3.757482    0.000330
  44 H     1.0000    0     1.008   10.550119   -4.247595   -0.029780
  45 H     1.0000    0     1.008   10.806712    3.903684   -0.002449
  46 H     1.0000    0     1.008   15.249208   -4.395604   -0.026950

--------------------------------
INTERNAL COORDINATES (ANGSTROEM)
--------------------------------
 C      0   0   0     0.000000000000     0.00000000     0.00000000
 C      1   0   0     4.145956972330     0.00000000     0.00000000
 C      2   1   0     1.386705572751    64.00736294     0.00000000
 C      3   2   1     1.404267951800   113.80917769     0.00000000
 C      4   3   2     1.413787197441   122.12254984     0.00000000
 C      5   4   3     1.421244947863   120.96152510     0.00000000
 C      2   1   3     1.377062606787    63.38045054   179.98672725
 H      4   3   2     1.091467392313   120.06006875   180.00610204
 H      7   2   1     1.091419179036   121.06025554   179.99031170
 C      3   2   1     1.519395131551   121.85854189   179.99808656
 H     10   3   2     1.105422690072   108.09656554    56.50943260
 H     10   3   2     1.105448549626   108.09435705   303.20586723
 C     10   3   2     1.530848508559   116.41604721   179.86468520
 H     13  10   3     1.105700237225   109.74058441   301.89712942
 H     13  10   3     1.105702136890   109.74013782    58.23028527
 C     13  10   3     1.533228643071   112.75261366   180.05856701
 H     16  13  10     1.105940861893   109.22236151   302.36419181
 H     16  13  10     1.105940819044   109.22117694    57.72338683
 C     16  13  10     1.530687250755   113.16674899   180.04284764
 H     19  16  13     1.103762615619   111.29155407    59.87662583
 H     19  16  13     1.103764246698   111.29080235   300.15912779
 C      6   5   4     1.516471559442   120.03309389   179.99259452
 H     22   6   5     1.105804072622   108.13345201   303.69586697
 H     22   6   5     1.105816078214   108.13311618    56.41713002
 C     22   6   5     1.530877596450   116.82062797   180.05506339
 H     25  22   6     1.105778211995   109.85295917   301.70259723
 H     25  22   6     1.105776140534   109.85320595    58.23059783
 C     25  22   6     1.533465937956   112.64776606   179.96973985
 H     28  25  22     1.105898182379   109.19355319   302.31931063
 H     28  25  22     1.105895613498   109.19346700    57.64583295
 C     28  25  22     1.530622738703   113.19389718   179.98322094
 H     31  28  25     1.103769590186   111.29474515    59.84551868
 H     31  28  25     1.103768522177   111.29528239   300.12698471
 C      1   2   3     1.222004700144   178.23912351     3.69132463
 H     19  16  13     1.102115396255   111.49874449   180.01907338
 H     31  28  25     1.102123287121   111.51248324   179.98555342
 C     34   1   5     1.428569279574   179.83309015   317.50147920
 C     37  34   1     1.412059114205   120.62367126    30.27733087
 C     38  37  34     1.394601310200   120.43094264   180.00345416
 C     39  38  37     1.399465157304   120.37816545     0.00000000
 C     40  39  38     1.399559028655   119.67181994     0.00000000
 C     41  40  39     1.394544231546   120.35030040     0.00000000
 H     40  39  38     1.092518596414   120.14873255   179.99977903
 H     41  40  39     1.092743427941   120.05497762   179.99924884
 H     38  37  34     1.091649007667   119.10064703     0.00000000
 H     42  41  40     1.091678109648   120.44798239   179.99797555
 H     39  38  37     1.092758465741   119.59829225   179.99953192

---------------------------
INTERNAL COORDINATES (A.U.)
---------------------------
 C      0   0   0     0.000000000000     0.00000000     0.00000000
 C      1   0   0     7.834723240724     0.00000000     0.00000000
 C      2   1   0     2.620493760881    64.00736294     0.00000000
 C      3   2   1     2.653681847544   113.80917769     0.00000000
 C      4   3   2     2.671670614808   122.12254984     0.00000000
 C      5   4   3     2.685763720680   120.96152510     0.00000000
 C      2   1   3     2.602271196091    63.38045054   179.98672725
 H      4   3   2     2.062574455578   120.06006875   180.00610204
 H      7   2   1     2.062483345686   121.06025554   179.99031170
 C      3   2   1     2.871240687844   121.85854189   179.99808656
 H     10   3   2     2.088946146458   108.09656554    56.50943260
 H     10   3   2     2.088995013933   108.09435705   303.20586723
 C     10   3   2     2.892884433698   116.41604721   179.86468520
 H     13  10   3     2.089470634567   109.74058441   301.89712942
 H     13  10   3     2.089474224414   109.74013782    58.23028527
 C     13  10   3     2.897382236087   112.75261366   180.05856701
 H     16  13  10     2.089925349290   109.22236151   302.36419181
 H     16  13  10     2.089925268318   109.22117694    57.72338683
 C     16  13  10     2.892579700612   113.16674899   180.04284764
 H     19  16  13     2.085809060381   111.29155407    59.87662583
 H     19  16  13     2.085812142674   111.29080235   300.15912779
 C      6   5   4     2.865715937226   120.03309389   179.99259452
 H     22   6   5     2.089666855030   108.13345201   303.69586697
 H     22   6   5     2.089689542312   108.13311618    56.41713002
 C     22   6   5     2.892939401846   116.82062797   180.05506339
 H     25  22   6     2.089617985527   109.85295917   301.70259723
 H     25  22   6     2.089614071033   109.85320595    58.23059783
 C     25  22   6     2.897830658434   112.64776606   179.96973985
 H     28  25  22     2.089844696697   109.19355319   302.31931063
 H     28  25  22     2.089839842217   109.19346700    57.64583295
 C     28  25  22     2.892457790501   113.19389718   179.98322094
 H     31  28  25     2.085822240402   111.29474515    59.84551868
 H     31  28  25     2.085820222158   111.29528239   300.12698471
 C      1   2   3     2.309254217638   178.23912351     3.69132463
 H     19  16  13     2.082696266900   111.49874449   180.01907338
 H     31  28  25     2.082711178476   111.51248324   179.98555342
 C     34   1   5     2.699604701728   179.83309015   317.50147920
 C     37  34   1     2.668405010756   120.62367126    30.27733087
 C     38  37  34     2.635414542286   120.43094264   180.00345416
 C     39  38  37     2.644605881270   120.37816545     0.00000000
 C     40  39  38     2.644783272414   119.67181994     0.00000000
 C     41  40  39     2.635306679262   120.35030040     0.00000000
 H     40  39  38     2.064560943438   120.14873255   179.99977903
 H     41  40  39     2.064985813450   120.05497762   179.99924884
 H     38  37  34     2.062917658858   119.10064703     0.00000000
 H     42  41  40     2.062972653632   120.44798239   179.99797555
 H     39  38  37     2.065014230774   119.59829225   179.99953192

---------------------
BASIS SET INFORMATION
---------------------
There are 2 groups of distinct atoms

 Group   1 Type C   : 17s4p1d contracted to 3s2p1d pattern {881/31/1}
 Group   2 Type H   : 4s1p contracted to 2s1p pattern {31/1}

Atom   0C    basis set group =>   1
Atom   1C    basis set group =>   1
Atom   2C    basis set group =>   1
Atom   3C    basis set group =>   1
Atom   4C    basis set group =>   1
Atom   5C    basis set group =>   1
Atom   6C    basis set group =>   1
Atom   7H    basis set group =>   2
Atom   8H    basis set group =>   2
Atom   9C    basis set group =>   1
Atom  10H    basis set group =>   2
Atom  11H    basis set group =>   2
Atom  12C    basis set group =>   1
Atom  13H    basis set group =>   2
Atom  14H    basis set group =>   2
Atom  15C    basis set group =>   1
Atom  16H    basis set group =>   2
Atom  17H    basis set group =>   2
Atom  18C    basis set group =>   1
Atom  19H    basis set group =>   2
Atom  20H    basis set group =>   2
Atom  21C    basis set group =>   1
Atom  22H    basis set group =>   2
Atom  23H    basis set group =>   2
Atom  24C    basis set group =>   1
Atom  25H    basis set group =>   2
Atom  26H    basis set group =>   2
Atom  27C    basis set group =>   1
Atom  28H    basis set group =>   2
Atom  29H    basis set group =>   2
Atom  30C    basis set group =>   1
Atom  31H    basis set group =>   2
Atom  32H    basis set group =>   2
Atom  33C    basis set group =>   1
Atom  34H    basis set group =>   2
Atom  35H    basis set group =>   2
Atom  36C    basis set group =>   1
Atom  37C    basis set group =>   1
Atom  38C    basis set group =>   1
Atom  39C    basis set group =>   1
Atom  40C    basis set group =>   1
Atom  41C    basis set group =>   1
Atom  42H    basis set group =>   2
Atom  43H    basis set group =>   2
Atom  44H    basis set group =>   2
Atom  45H    basis set group =>   2
Atom  46H    basis set group =>   2
---------------------------------
AUXILIARY/J BASIS SET INFORMATION
---------------------------------
There are 2 groups of distinct atoms

 Group   1 Type C   : 14s11p10d2f contracted to 14s11p10d2f pattern {11111111111111/11111111111/1111111111/11}
 Group   2 Type H   : 9s2p1d contracted to 9s2p1d pattern {111111111/11/1}

Atom   0C    basis set group =>   1
Atom   1C    basis set group =>   1
Atom   2C    basis set group =>   1
Atom   3C    basis set group =>   1
Atom   4C    basis set group =>   1
Atom   5C    basis set group =>   1
Atom   6C    basis set group =>   1
Atom   7H    basis set group =>   2
Atom   8H    basis set group =>   2
Atom   9C    basis set group =>   1
Atom  10H    basis set group =>   2
Atom  11H    basis set group =>   2
Atom  12C    basis set group =>   1
Atom  13H    basis set group =>   2
Atom  14H    basis set group =>   2
Atom  15C    basis set group =>   1
Atom  16H    basis set group =>   2
Atom  17H    basis set group =>   2
Atom  18C    basis set group =>   1
Atom  19H    basis set group =>   2
Atom  20H    basis set group =>   2
Atom  21C    basis set group =>   1
Atom  22H    basis set group =>   2
Atom  23H    basis set group =>   2
Atom  24C    basis set group =>   1
Atom  25H    basis set group =>   2
Atom  26H    basis set group =>   2
Atom  27C    basis set group =>   1
Atom  28H    basis set group =>   2
Atom  29H    basis set group =>   2
Atom  30C    basis set group =>   1
Atom  31H    basis set group =>   2
Atom  32H    basis set group =>   2
Atom  33C    basis set group =>   1
Atom  34H    basis set group =>   2
Atom  35H    basis set group =>   2
Atom  36C    basis set group =>   1
Atom  37C    basis set group =>   1
Atom  38C    basis set group =>   1
Atom  39C    basis set group =>   1
Atom  40C    basis set group =>   1
Atom  41C    basis set group =>   1
Atom  42H    basis set group =>   2
Atom  43H    basis set group =>   2
Atom  44H    basis set group =>   2
Atom  45H    basis set group =>   2
Atom  46H    basis set group =>   2
---------------------------------
AUXILIARY/C BASIS SET INFORMATION
---------------------------------
There are 2 groups of distinct atoms

 Group   1 Type C   : 14s11p10d2f contracted to 14s11p10d2f pattern {11111111111111/11111111111/1111111111/11}
 Group   2 Type H   : 9s2p1d contracted to 9s2p1d pattern {111111111/11/1}

Atom   0C    basis set group =>   1
Atom   1C    basis set group =>   1
Atom   2C    basis set group =>   1
Atom   3C    basis set group =>   1
Atom   4C    basis set group =>   1
Atom   5C    basis set group =>   1
Atom   6C    basis set group =>   1
Atom   7H    basis set group =>   2
Atom   8H    basis set group =>   2
Atom   9C    basis set group =>   1
Atom  10H    basis set group =>   2
Atom  11H    basis set group =>   2
Atom  12C    basis set group =>   1
Atom  13H    basis set group =>   2
Atom  14H    basis set group =>   2
Atom  15C    basis set group =>   1
Atom  16H    basis set group =>   2
Atom  17H    basis set group =>   2
Atom  18C    basis set group =>   1
Atom  19H    basis set group =>   2
Atom  20H    basis set group =>   2
Atom  21C    basis set group =>   1
Atom  22H    basis set group =>   2
Atom  23H    basis set group =>   2
Atom  24C    basis set group =>   1
Atom  25H    basis set group =>   2
Atom  26H    basis set group =>   2
Atom  27C    basis set group =>   1
Atom  28H    basis set group =>   2
Atom  29H    basis set group =>   2
Atom  30C    basis set group =>   1
Atom  31H    basis set group =>   2
Atom  32H    basis set group =>   2
Atom  33C    basis set group =>   1
Atom  34H    basis set group =>   2
Atom  35H    basis set group =>   2
Atom  36C    basis set group =>   1
Atom  37C    basis set group =>   1
Atom  38C    basis set group =>   1
Atom  39C    basis set group =>   1
Atom  40C    basis set group =>   1
Atom  41C    basis set group =>   1
Atom  42H    basis set group =>   2
Atom  43H    basis set group =>   2
Atom  44H    basis set group =>   2
Atom  45H    basis set group =>   2
Atom  46H    basis set group =>   2
----------------------------------
AUXILIARY/JK BASIS SET INFORMATION
----------------------------------
There are 2 groups of distinct atoms

 Group   1 Type C   : 14s11p10d2f contracted to 14s11p10d2f pattern {11111111111111/11111111111/1111111111/11}
 Group   2 Type H   : 9s2p1d contracted to 9s2p1d pattern {111111111/11/1}

Atom   0C    basis set group =>   1
Atom   1C    basis set group =>   1
Atom   2C    basis set group =>   1
Atom   3C    basis set group =>   1
Atom   4C    basis set group =>   1
Atom   5C    basis set group =>   1
Atom   6C    basis set group =>   1
Atom   7H    basis set group =>   2
Atom   8H    basis set group =>   2
Atom   9C    basis set group =>   1
Atom  10H    basis set group =>   2
Atom  11H    basis set group =>   2
Atom  12C    basis set group =>   1
Atom  13H    basis set group =>   2
Atom  14H    basis set group =>   2
Atom  15C    basis set group =>   1
Atom  16H    basis set group =>   2
Atom  17H    basis set group =>   2
Atom  18C    basis set group =>   1
Atom  19H    basis set group =>   2
Atom  20H    basis set group =>   2
Atom  21C    basis set group =>   1
Atom  22H    basis set group =>   2
Atom  23H    basis set group =>   2
Atom  24C    basis set group =>   1
Atom  25H    basis set group =>   2
Atom  26H    basis set group =>   2
Atom  27C    basis set group =>   1
Atom  28H    basis set group =>   2
Atom  29H    basis set group =>   2
Atom  30C    basis set group =>   1
Atom  31H    basis set group =>   2
Atom  32H    basis set group =>   2
Atom  33C    basis set group =>   1
Atom  34H    basis set group =>   2
Atom  35H    basis set group =>   2
Atom  36C    basis set group =>   1
Atom  37C    basis set group =>   1
Atom  38C    basis set group =>   1
Atom  39C    basis set group =>   1
Atom  40C    basis set group =>   1
Atom  41C    basis set group =>   1
Atom  42H    basis set group =>   2
Atom  43H    basis set group =>   2
Atom  44H    basis set group =>   2
Atom  45H    basis set group =>   2
Atom  46H    basis set group =>   2

Checking for AutoStart:
The File: cc-pVDZ_i.gbw exists
Trying to determine its content:
     ... Fine, the file contains calculation information
     ... Fine, the calculation information was read
     ... Fine, the file contains a basis set
     ... Fine, the basis set was read
     ... Fine, the file contains a geometry
     ... Fine, the geometry was read
     ... Fine, the file contains a set of orbitals
     ... Fine, the orbitals can be read
     => possible old guess file was deleted
     => GBW file was renamed to GES file
     => GES file is set as startup file
     => Guess is set to MORead
     ... now leaving AutoStart



           ************************************************************
           *        Program running with 16 parallel MPI-processes    *
           *              working on a common directory               *
           ************************************************************
------------------------------------------------------------------------------
                           ORCA GTO INTEGRAL CALCULATION
                           -- RI-GTO INTEGRALS CHOSEN --
------------------------------------------------------------------------------
------------------------------------------------------------------------------
                   ___                                                        
                  /   \      - P O W E R E D   B Y -                         
                 /     \                                                     
                 |  |  |   _    _      __       _____    __    __             
                 |  |  |  | |  | |    /  \     |  _  \  |  |  /  |          
                  \  \/   | |  | |   /    \    | | | |  |  | /  /          
                 / \  \   | |__| |  /  /\  \   | |_| |  |  |/  /          
                |  |  |   |  __  | /  /__\  \  |    /   |      \           
                |  |  |   | |  | | |   __   |  |    \   |  |\   \          
                \     /   | |  | | |  |  |  |  | |\  \  |  | \   \       
                 \___/    |_|  |_| |__|  |__|  |_| \__\ |__|  \__/        
                                                                              
                      - O R C A' S   B I G   F R I E N D -                    
                                      &                                       
                       - I N T E G R A L  F E E D E R -                       
                                                                              
 v1 FN, 2020, v2 2021                                                         
------------------------------------------------------------------------------


Reading SHARK input file cc-pVDZ_i.SHARKINP.tmp ... ok
----------------------
SHARK INTEGRAL PACKAGE
----------------------

Number of atoms                             ...     47
Number of basis functions                   ...    565
Number of shells                            ...    339
Maximum angular momentum                    ...      2
Integral batch strategy                     ... SHARK/LIBINT Hybrid
RI-J (if used) integral strategy            ... SPLIT-RIJ (Revised 2003 algorithm where possible)
Printlevel                                  ...      1
Contraction scheme used                     ... PARTIAL GENERAL contraction
Coulomb Range Separation                    ... NOT USED
Exchange Range Separation                   ... NOT USED
Finite Nucleus Model                        ... NOT USED
Auxiliary Coulomb fitting basis             ... AVAILABLE
   # of basis functions in Aux-J            ...   2942
   # of shells in Aux-J                     ...   1114
   Maximum angular momentum in Aux-J        ...      3
Auxiliary J/K fitting basis                 ... AVAILABLE
   # of basis functions in Aux-JK           ...   2942
   # of shells in Aux-JK                    ...   1114
   Maximum angular momentum in Aux-JK       ...      3
Auxiliary Correlation fitting basis         ... AVAILABLE
   # of basis functions in Aux-C            ...   2942
   # of shells in Aux-C                     ...   1114
   Maximum angular momentum in Aux-C        ...      3
Auxiliary 'external' fitting basis          ... NOT available
Integral threshold                          ...     1.000000e-10
Primitive cut-off                           ...     1.000000e-11
Primitive pair pre-selection threshold      ...     1.000000e-11

Calculating pre-screening integrals         ... done (  0.0 sec) Dimension = 339
Calculating pre-screening integrals (ORCA)  ... done (  0.1 sec) Dimension = 207
Organizing shell pair data                  ... done (  0.1 sec)
Shell pair information
Total number of shell pairs                 ...     57630
Shell pairs after pre-screening             ...     22994
Total number of primitive shell pairs       ...     94102
Primitive shell pairs kept                  ...     31334
          la=0 lb=0:  10053 shell pairs
          la=1 lb=0:   8098 shell pairs
          la=1 lb=1:   1439 shell pairs
          la=2 lb=0:   2404 shell pairs
          la=2 lb=1:    861 shell pairs
          la=2 lb=2:    139 shell pairs

Calculating one electron integrals          ... done (  0.0 sec)
Calculating RI/J V-Matrix + Cholesky decomp.... done (  0.6 sec)
Calculating RI/JK V-Matrix + Cholesky decomp... done (  0.6 sec)
Calculating RI/C V-Matrix + Cholesky decomp.... done (  0.5 sec)
Calculating Nuclear repulsion               ... done (  0.0 sec) ENN=   1524.480174178007 Eh

SHARK setup successfully completed in   2.3 seconds

Maximum memory used throughout the entire GTOINT-calculation: 37.1 MB


           ************************************************************
           *        Program running with 16 parallel MPI-processes    *
           *              working on a common directory               *
           ************************************************************
-------------------------------------------------------------------------------
                                 ORCA SCF
-------------------------------------------------------------------------------

------------
SCF SETTINGS
------------
Hamiltonian:
 Density Functional     Method          .... DFT(GTOs)
 Exchange Functional    Exchange        .... B88
   X-Alpha parameter    XAlpha          ....  0.666667
   Becke's b parameter  XBeta           ....  0.004200
 Correlation Functional Correlation     .... LYP
 LDA part of GGA corr.  LDAOpt          .... VWN-5
 Gradients option       PostSCFGGA      .... off
 Hybrid DFT is turned on
   Fraction HF Exchange ScalHFX         ....  0.200000
   Scaling of DF-GGA-X  ScalDFX         ....  0.720000
   Scaling of DF-GGA-C  ScalDFC         ....  0.810000
   Scaling of DF-LDA-C  ScalLDAC        ....  1.000000
   Perturbative correction              ....  0.000000
   Density functional embedding theory  .... OFF
   NL short-range parameter             ....  4.800000
 RI-approximation to the Coulomb term is turned on
   Number of AuxJ basis functions       .... 2942
   RIJ-COSX (HFX calculated with COS-X)).... on


General Settings:
 Integral files         IntName         .... cc-pVDZ_i
 Hartree-Fock type      HFTyp           .... UHF
 Total Charge           Charge          ....    0
 Multiplicity           Mult            ....    2
 Number of Electrons    NEL             ....  157
 Basis Dimension        Dim             ....  433
 Nuclear Repulsion      ENuc            ....   1524.4801741780 Eh

Convergence Acceleration:
 DIIS                   CNVDIIS         .... on
   Start iteration      DIISMaxIt       ....    12
   Startup error        DIISStart       ....  0.200000
   # of expansion vecs  DIISMaxEq       ....     5
   Bias factor          DIISBfac        ....   1.050
   Max. coefficient     DIISMaxC        ....  10.000
 Trust-Rad. Augm. Hess. CNVTRAH         .... auto
   Auto Start mean grad. ratio tolernc. ....  1.125000
   Auto Start start iteration           ....     1
   Auto Start num. interpolation iter.  ....    10
   Max. Number of Micro iterations      ....    16
   Max. Number of Macro iterations      .... Maxiter - #DIIS iter
   Number of Davidson start vectors     ....     2
   Converg. threshold I  (grad. norm)   ....   5.000e-05
   Converg. threshold II (energy diff.) ....   1.000e-06
   Grad. Scal. Fac. for Micro threshold ....   0.100
   Minimum threshold for Micro iter.    ....   0.010
   NR start threshold (gradient norm)   ....   0.001
   Initial trust radius                 ....   0.400
   Minimum AH scaling param. (alpha)    ....   1.000
   Maximum AH scaling param. (alpha)    .... 1000.000
   Orbital update algorithm             .... Taylor
   White noise on init. David. guess    .... on
   Maximum white noise                  ....   0.010
   Quad. conv. algorithm                .... NR
 SOSCF                  CNVSOSCF        .... off
 Level Shifting         CNVShift        .... on
   Level shift para.    LevelShift      ....    0.2500
   Turn off err/grad.   ShiftErr        ....    0.0010
 Zerner damping         CNVZerner       .... off
 Static damping         CNVDamp         .... on
   Fraction old density DampFac         ....    0.7000
   Max. Damping (<1)    DampMax         ....    0.9800
   Min. Damping (>=0)   DampMin         ....    0.0000
   Turn off err/grad.   DampErr         ....    0.1000
 Fernandez-Rico         CNVRico         .... off

SCF Procedure:
 Maximum # iterations   MaxIter         ....   125
 SCF integral mode      SCFMode         .... Direct
   Integral package                     .... SHARK and LIBINT hybrid scheme
 Reset frequency        DirectResetFreq ....    20
 Integral Threshold     Thresh          ....  1.000e-10 Eh
 Primitive CutOff       TCut            ....  1.000e-11 Eh

Convergence Tolerance:
 Convergence Check Mode ConvCheckMode   .... Total+1el-Energy
 Convergence forced     ConvForced      .... 0
 Energy Change          TolE            ....  1.000e-06 Eh
 1-El. energy change                    ....  1.000e-03 Eh
 DIIS Error             TolErr          ....  1.000e-06


Diagonalization of the overlap matrix:
Smallest eigenvalue                        ... 5.295e-05
Time for diagonalization                   ...    0.034 sec
Threshold for overlap eigenvalues          ... 1.000e-08
Number of eigenvalues below threshold      ... 0
Time for construction of square roots      ...    0.040 sec
Total time needed                          ...    0.075 sec

---------------------
INITIAL GUESS: MOREAD
---------------------
Guess MOs are being read from file: cc-pVDZ_i.ges
Input geometry compatible with but different from current geometry
Input basis set matches current basis set (good)
MOs were renormalized
MOs were reorthogonalized (Cholesky)
                      ------------------
                      INITIAL GUESS DONE (   0.1 sec)
                      ------------------
-------------------
DFT GRID GENERATION
-------------------

General Integration Accuracy     IntAcc      ... 4.388
Radial Grid Type                 RadialGrid  ... OptM3 with GC (2021)
Angular Grid (max. ang.)         AngularGrid ... 4 (Lebedev-302)
Angular grid pruning method      GridPruning ... 4 (adaptive)
Weight generation scheme         WeightScheme... Becke
Basis function cutoff            BFCut       ... 1.0000e-10
Integration weight cutoff        WCut        ... 1.0000e-14
Angular grids for H and He will be reduced by one unit
Partially contracted basis set               ... off
Rotationally invariant grid construction     ... off

Total number of grid points                  ...   211214
Total number of batches                      ...     3326
Average number of points per batch           ...       63
Average number of grid points per atom       ...     4494
Time for grid setup =    1.317 sec

--------------------
COSX GRID GENERATION
--------------------

GRIDX 1
-------
General Integration Accuracy     IntAcc      ... 3.816
Radial Grid Type                 RadialGrid  ... OptM3 with GC (2021)
Angular Grid (max. ang.)         AngularGrid ... 1 (Lebedev-50)
Angular grid pruning method      GridPruning ... 4 (adaptive)
Weight generation scheme         WeightScheme... Becke
Basis function cutoff            BFCut       ... 1.0000e-10
Integration weight cutoff        WCut        ... 1.0000e-14
Angular grids for H and He will be reduced by one unit
Partially contracted basis set               ... on
Rotationally invariant grid construction     ... off

Total number of grid points                  ...    26939
Total number of batches                      ...      446
Average number of points per batch           ...       60
Average number of grid points per atom       ...      573
UseSFitting                                  ... on

GRIDX 2
-------
General Integration Accuracy     IntAcc      ... 4.020
Radial Grid Type                 RadialGrid  ... OptM3 with GC (2021)
Angular Grid (max. ang.)         AngularGrid ... 2 (Lebedev-110)
Angular grid pruning method      GridPruning ... 4 (adaptive)
Weight generation scheme         WeightScheme... Becke
Basis function cutoff            BFCut       ... 1.0000e-10
Integration weight cutoff        WCut        ... 1.0000e-14
Angular grids for H and He will be reduced by one unit
Partially contracted basis set               ... on
Rotationally invariant grid construction     ... off

Total number of grid points                  ...    57171
Total number of batches                      ...      916
Average number of points per batch           ...       62
Average number of grid points per atom       ...     1216
UseSFitting                                  ... on

GRIDX 3
-------
General Integration Accuracy     IntAcc      ... 4.338
Radial Grid Type                 RadialGrid  ... OptM3 with GC (2021)
Angular Grid (max. ang.)         AngularGrid ... 3 (Lebedev-194)
Angular grid pruning method      GridPruning ... 4 (adaptive)
Weight generation scheme         WeightScheme... Becke
Basis function cutoff            BFCut       ... 1.0000e-10
Integration weight cutoff        WCut        ... 1.0000e-14
Angular grids for H and He will be reduced by one unit
Partially contracted basis set               ... on
Rotationally invariant grid construction     ... off

Total number of grid points                  ...   125073
Total number of batches                      ...     1980
Average number of points per batch           ...       63
Average number of grid points per atom       ...     2661
UseSFitting                                  ... on

Time for X-Grid setup             =    2.189 sec

 re-compute Schwartz prescreening matrix in partically contracted basis (1) ...done (   0.120 sec)
--------------
SCF ITERATIONS
--------------
ITER       Energy         Delta-E        Max-DP      RMS-DP      [F,P]     Damp
               ***  Starting incremental Fock matrix formation  ***
  0   -852.7515583196   0.000000000000 0.00003404  0.00000073  0.0001484 0.7000
                 **** Energy Check signals convergence ****

               *****************************************************
               *                     SUCCESS                       *
               *           SCF CONVERGED AFTER   1 CYCLES          *
               *****************************************************

Old exchange energy                            =    -24.574475027 Eh
New exchange energy                            =    -24.574581604 Eh
Exchange energy change after final integration =     -0.000106577 Eh
Total energy after final integration           =   -852.751665109 Eh
Final COS-X integration done in                =     6.320 sec

----------------
TOTAL SCF ENERGY
----------------

Total Energy       :         -852.75166511 Eh          -23204.55250 eV

Components:
Nuclear Repulsion  :         1524.48017418 Eh           41483.21451 eV
Electronic Energy  :        -2377.23183929 Eh          -64687.76701 eV
One Electron Energy:        -4176.86775698 Eh         -113658.34995 eV
Two Electron Energy:         1799.63591769 Eh           48970.58294 eV
Max COSX asymmetry :            0.00000055 Eh               0.00002 eV

Virial components:
Potential Energy   :        -1699.51429021 Eh          -46246.13494 eV
Kinetic Energy     :          846.76262510 Eh           23041.58244 eV
Virial Ratio       :            2.00707287


DFT components:
N(Alpha)           :       79.000191340101 electrons
N(Beta)            :       78.000188921346 electrons
N(Total)           :      157.000380261447 electrons
E(X)               :      -97.443889313413 Eh       
E(C)               :       -6.088278243878 Eh       
E(XC)              :     -103.532167557292 Eh       
DFET-embed. en.    :        0.000000000000 Eh       

---------------
SCF CONVERGENCE
---------------

  Last Energy change         ...   -2.1246e-07  Tolerance :   1.0000e-06
  Last MAX-Density change    ...    1.0106e-05  Tolerance :   1.0000e-05
  Last RMS-Density change    ...    2.2969e-07  Tolerance :   1.0000e-06
  Last DIIS Error            ...    1.0513e-04  Tolerance :   1.0000e-06

             **** THE GBW FILE WAS UPDATED (cc-pVDZ_i.gbw) ****
             **** DENSITY cc-pVDZ_i.scfp WAS UPDATED ****
             **** ENERGY FILE WAS UPDATED (cc-pVDZ_i.en.tmp) ****
----------------------
UHF SPIN CONTAMINATION
----------------------

Warning: in a DFT calculation there is little theoretical justification to 
         calculate <S**2> as in Hartree-Fock theory. We will do it anyways
         but you should keep in mind that the values have only limited relevance

Expectation value of <S**2>     :     0.759050
Ideal value S*(S+1) for S=0.5   :     0.750000
Deviation                       :     0.009050

             **** THE GBW FILE WAS UPDATED (cc-pVDZ_i.gbw) ****
             **** DENSITY cc-pVDZ_i.scfp WAS UPDATED ****
----------------
ORBITAL ENERGIES
----------------
                 SPIN UP ORBITALS
  NO   OCC          E(Eh)            E(eV) 
   0   1.0000     -10.213961      -277.9360 
   1   1.0000     -10.206986      -277.7462 
   2   1.0000     -10.203539      -277.6524 
   3   1.0000     -10.203437      -277.6496 
   4   1.0000     -10.199747      -277.5492 
   5   1.0000     -10.194591      -277.4089 
   6   1.0000     -10.194437      -277.4047 
   7   1.0000     -10.194337      -277.4020 
   8   1.0000     -10.193617      -277.3824 
   9   1.0000     -10.193274      -277.3731 
  10   1.0000     -10.192968      -277.3648 
  11   1.0000     -10.191439      -277.3232 
  12   1.0000     -10.190049      -277.2853 
  13   1.0000     -10.186680      -277.1936 
  14   1.0000     -10.186074      -277.1772 
  15   1.0000     -10.183835      -277.1162 
  16   1.0000     -10.182767      -277.0872 
  17   1.0000     -10.182599      -277.0826 
  18   1.0000     -10.182414      -277.0776 
  19   1.0000     -10.182243      -277.0729 
  20   1.0000     -10.176320      -276.9117 
  21   1.0000     -10.176156      -276.9073 
  22   1.0000      -0.870697       -23.6929 
  23   1.0000      -0.860721       -23.4214 
  24   1.0000      -0.813855       -22.1461 
  25   1.0000      -0.795872       -21.6568 
  26   1.0000      -0.786781       -21.4094 
  27   1.0000      -0.769851       -20.9487 
  28   1.0000      -0.760150       -20.6847 
  29   1.0000      -0.748581       -20.3699 
  30   1.0000      -0.732265       -19.9259 
  31   1.0000      -0.712424       -19.3860 
  32   1.0000      -0.698271       -19.0009 
  33   1.0000      -0.652727       -17.7616 
  34   1.0000      -0.630625       -17.1602 
  35   1.0000      -0.617617       -16.8062 
  36   1.0000      -0.606743       -16.5103 
  37   1.0000      -0.605570       -16.4784 
  38   1.0000      -0.582022       -15.8376 
  39   1.0000      -0.577092       -15.7035 
  40   1.0000      -0.563179       -15.3249 
  41   1.0000      -0.534623       -14.5478 
  42   1.0000      -0.506516       -13.7830 
  43   1.0000      -0.477795       -13.0015 
  44   1.0000      -0.471877       -12.8404 
  45   1.0000      -0.471415       -12.8279 
  46   1.0000      -0.470330       -12.7983 
  47   1.0000      -0.455211       -12.3869 
  48   1.0000      -0.441084       -12.0025 
  49   1.0000      -0.434779       -11.8309 
  50   1.0000      -0.427545       -11.6341 
  51   1.0000      -0.423908       -11.5351 
  52   1.0000      -0.422490       -11.4965 
  53   1.0000      -0.421915       -11.4809 
  54   1.0000      -0.417058       -11.3487 
  55   1.0000      -0.413691       -11.2571 
  56   1.0000      -0.411820       -11.2062 
  57   1.0000      -0.381144       -10.3715 
  58   1.0000      -0.378477       -10.2989 
  59   1.0000      -0.372639       -10.1400 
  60   1.0000      -0.366054        -9.9608 
  61   1.0000      -0.364277        -9.9125 
  62   1.0000      -0.357997        -9.7416 
  63   1.0000      -0.356994        -9.7143 
  64   1.0000      -0.348147        -9.4736 
  65   1.0000      -0.341172        -9.2838 
  66   1.0000      -0.334039        -9.0897 
  67   1.0000      -0.331750        -9.0274 
  68   1.0000      -0.327320        -8.9068 
  69   1.0000      -0.324783        -8.8378 
  70   1.0000      -0.322866        -8.7856 
  71   1.0000      -0.322863        -8.7855 
  72   1.0000      -0.312213        -8.4957 
  73   1.0000      -0.268059        -7.2943 
  74   1.0000      -0.265651        -7.2287 
  75   1.0000      -0.256395        -6.9769 
  76   1.0000      -0.242169        -6.5898 
  77   1.0000      -0.235975        -6.4212 
  78   1.0000      -0.209127        -5.6906 
  79   0.0000      -0.049492        -1.3468 
  80   0.0000      -0.008122        -0.2210 
  81   0.0000      -0.003224        -0.0877 
  82   0.0000       0.006371         0.1734 
  83   0.0000       0.048480         1.3192 
  84   0.0000       0.055897         1.5210 
  85   0.0000       0.061329         1.6688 
  86   0.0000       0.064309         1.7499 
  87   0.0000       0.079632         2.1669 
  88   0.0000       0.083931         2.2839 
  89   0.0000       0.084193         2.2910 
  90   0.0000       0.089542         2.4366 
  91   0.0000       0.092804         2.5253 
  92   0.0000       0.094685         2.5765 
  93   0.0000       0.102382         2.7860 
  94   0.0000       0.105453         2.8695 
  95   0.0000       0.114530         3.1165 
  96   0.0000       0.126354         3.4383 
  97   0.0000       0.128845         3.5060 
  98   0.0000       0.137986         3.7548 
  99   0.0000       0.142527         3.8784 
 100   0.0000       0.142897         3.8884 
 101   0.0000       0.145005         3.9458 
 102   0.0000       0.153386         4.1738 
 103   0.0000       0.156715         4.2644 
 104   0.0000       0.158943         4.3251 
 105   0.0000       0.161163         4.3855 
 106   0.0000       0.161906         4.4057 
 107   0.0000       0.165860         4.5133 
 108   0.0000       0.173476         4.7205 
 109   0.0000       0.176278         4.7968 
 110   0.0000       0.184766         5.0277 
 111   0.0000       0.206111         5.6086 
 112   0.0000       0.208629         5.6771 
 113   0.0000       0.212662         5.7868 
 114   0.0000       0.213959         5.8221 
 115   0.0000       0.223436         6.0800 
 116   0.0000       0.225017         6.1230 
 117   0.0000       0.233829         6.3628 
 118   0.0000       0.239323         6.5123 
 119   0.0000       0.267138         7.2692 
 120   0.0000       0.273392         7.4394 
 121   0.0000       0.281144         7.6503 
 122   0.0000       0.285863         7.7787 
 123   0.0000       0.292630         7.9629 
 124   0.0000       0.309519         8.4224 
 125   0.0000       0.314286         8.5522 
 126   0.0000       0.332707         9.0534 
 127   0.0000       0.346048         9.4164 
 128   0.0000       0.354285         9.6406 
 129   0.0000       0.366756         9.9799 
 130   0.0000       0.381659        10.3855 
 131   0.0000       0.401709        10.9310 
 132   0.0000       0.403634        10.9834 
 133   0.0000       0.411669        11.2021 
 134   0.0000       0.412201        11.2165 
 135   0.0000       0.419496        11.4151 
 136   0.0000       0.420237        11.4352 
 137   0.0000       0.428943        11.6721 
 138   0.0000       0.433452        11.7948 
 139   0.0000       0.441853        12.0234 
 140   0.0000       0.446638        12.1536 
 141   0.0000       0.453933        12.3522 
 142   0.0000       0.454924        12.3791 
 143   0.0000       0.471416        12.8279 
 144   0.0000       0.474657        12.9161 
 145   0.0000       0.481483        13.1018 
 146   0.0000       0.482566        13.1313 
 147   0.0000       0.488205        13.2847 
 148   0.0000       0.490680        13.3521 
 149   0.0000       0.493690        13.4340 
 150   0.0000       0.506811        13.7910 
 151   0.0000       0.509136        13.8543 
 152   0.0000       0.512021        13.9328 
 153   0.0000       0.512071        13.9342 
 154   0.0000       0.516723        14.0607 
 155   0.0000       0.517110        14.0713 
 156   0.0000       0.519590        14.1388 
 157   0.0000       0.524646        14.2764 
 158   0.0000       0.528554        14.3827 
 159   0.0000       0.541466        14.7340 
 160   0.0000       0.548949        14.9377 
 161   0.0000       0.549885        14.9631 
 162   0.0000       0.566457        15.4141 
 163   0.0000       0.571508        15.5515 
 164   0.0000       0.581409        15.8209 
 165   0.0000       0.587265        15.9803 
 166   0.0000       0.593730        16.1562 
 167   0.0000       0.597253        16.2521 
 168   0.0000       0.601772        16.3751 
 169   0.0000       0.616580        16.7780 
 170   0.0000       0.616603        16.7786 
 171   0.0000       0.622048        16.9268 
 172   0.0000       0.623250        16.9595 
 173   0.0000       0.629799        17.1377 
 174   0.0000       0.634472        17.2649 
 175   0.0000       0.637888        17.3578 
 176   0.0000       0.640405        17.4263 
 177   0.0000       0.641775        17.4636 
 178   0.0000       0.643296        17.5050 
 179   0.0000       0.653379        17.7793 
 180   0.0000       0.653840        17.7919 
 181   0.0000       0.659106        17.9352 
 182   0.0000       0.659264        17.9395 
 183   0.0000       0.660897        17.9839 
 184   0.0000       0.661628        18.0038 
 185   0.0000       0.670313        18.2401 
 186   0.0000       0.672401        18.2970 
 187   0.0000       0.675589        18.3837 
 188   0.0000       0.676560        18.4101 
 189   0.0000       0.681109        18.5339 
 190   0.0000       0.683265        18.5926 
 191   0.0000       0.687714        18.7136 
 192   0.0000       0.691571        18.8186 
 193   0.0000       0.691926        18.8283 
 194   0.0000       0.698119        18.9968 
 195   0.0000       0.703109        19.1326 
 196   0.0000       0.704942        19.1824 
 197   0.0000       0.707343        19.2478 
 198   0.0000       0.715771        19.4771 
 199   0.0000       0.722687        19.6653 
 200   0.0000       0.725547        19.7431 
 201   0.0000       0.735010        20.0007 
 202   0.0000       0.736350        20.0371 
 203   0.0000       0.746195        20.3050 
 204   0.0000       0.751318        20.4444 
 205   0.0000       0.765434        20.8285 
 206   0.0000       0.777306        21.1516 
 207   0.0000       0.794258        21.6128 
 208   0.0000       0.810346        22.0506 
 209   0.0000       0.815100        22.1800 
 210   0.0000       0.824314        22.4307 
 211   0.0000       0.833894        22.6914 
 212   0.0000       0.838519        22.8173 
 213   0.0000       0.839783        22.8517 
 214   0.0000       0.857147        23.3242 
 215   0.0000       0.866191        23.5702 
 216   0.0000       0.873414        23.7668 
 217   0.0000       0.891642        24.2628 
 218   0.0000       0.893467        24.3125 
 219   0.0000       0.903706        24.5911 
 220   0.0000       0.913533        24.8585 
 221   0.0000       0.923740        25.1362 
 222   0.0000       0.939851        25.5747 
 223   0.0000       0.939907        25.5762 
 224   0.0000       0.948419        25.8078 
 225   0.0000       0.966106        26.2891 
 226   0.0000       0.972559        26.4647 
 227   0.0000       0.983056        26.7503 
 228   0.0000       0.984543        26.7908 
 229   0.0000       1.002407        27.2769 
 230   0.0000       1.008948        27.4549 
 231   0.0000       1.013307        27.5735 
 232   0.0000       1.016352        27.6563 
 233   0.0000       1.024381        27.8748 
 234   0.0000       1.041048        28.3283 
 235   0.0000       1.042543        28.3690 
 236   0.0000       1.046575        28.4787 
 237   0.0000       1.054359        28.6906 
 238   0.0000       1.060853        28.8673 
 239   0.0000       1.075625        29.2692 
 240   0.0000       1.079833        29.3837 
 241   0.0000       1.098333        29.8872 
 242   0.0000       1.115603        30.3571 
 243   0.0000       1.118360        30.4321 
 244   0.0000       1.124966        30.6119 
 245   0.0000       1.147706        31.2307 
 246   0.0000       1.152305        31.3558 
 247   0.0000       1.175515        31.9874 
 248   0.0000       1.192836        32.4587 
 249   0.0000       1.198698        32.6182 
 250   0.0000       1.205004        32.7898 
 251   0.0000       1.206083        32.8192 
 252   0.0000       1.209908        32.9233 
 253   0.0000       1.218299        33.1516 
 254   0.0000       1.220975        33.2244 
 255   0.0000       1.221219        33.2311 
 256   0.0000       1.223405        33.2905 
 257   0.0000       1.232589        33.5405 
 258   0.0000       1.273715        34.6596 
 259   0.0000       1.287918        35.0460 
 260   0.0000       1.296227        35.2721 
 261   0.0000       1.301990        35.4289 
 262   0.0000       1.310639        35.6643 
 263   0.0000       1.318709        35.8839 
 264   0.0000       1.332622        36.2625 
 265   0.0000       1.348156        36.6852 
 266   0.0000       1.353472        36.8298 
 267   0.0000       1.370171        37.2843 
 268   0.0000       1.395094        37.9624 
 269   0.0000       1.405923        38.2571 
 270   0.0000       1.422836        38.7173 
 271   0.0000       1.425929        38.8015 
 272   0.0000       1.426753        38.8239 
 273   0.0000       1.430469        38.9250 
 274   0.0000       1.437834        39.1254 
 275   0.0000       1.446940        39.3732 
 276   0.0000       1.473950        40.1082 
 277   0.0000       1.476478        40.1770 
 278   0.0000       1.476801        40.1858 
 279   0.0000       1.485249        40.4157 
 280   0.0000       1.485505        40.4226 
 281   0.0000       1.492264        40.6066 
 282   0.0000       1.499706        40.8091 
 283   0.0000       1.514937        41.2235 
 284   0.0000       1.531819        41.6829 
 285   0.0000       1.533855        41.7383 
 286   0.0000       1.544509        42.0282 
 287   0.0000       1.545025        42.0423 
 288   0.0000       1.569819        42.7170 
 289   0.0000       1.586958        43.1833 
 290   0.0000       1.593615        43.3645 
 291   0.0000       1.600370        43.5483 
 292   0.0000       1.601310        43.5739 
 293   0.0000       1.603775        43.6409 
 294   0.0000       1.608604        43.7723 
 295   0.0000       1.615405        43.9574 
 296   0.0000       1.615771        43.9674 
 297   0.0000       1.626090        44.2482 
 298   0.0000       1.628415        44.3114 
 299   0.0000       1.629005        44.3275 
 300   0.0000       1.632641        44.4264 
 301   0.0000       1.638614        44.5890 
 302   0.0000       1.640674        44.6450 
 303   0.0000       1.645599        44.7790 
 304   0.0000       1.646891        44.8142 
 305   0.0000       1.647951        44.8430 
 306   0.0000       1.652511        44.9671 
 307   0.0000       1.657726        45.1090 
 308   0.0000       1.669999        45.4430 
 309   0.0000       1.672441        45.5094 
 310   0.0000       1.680861        45.7386 
 311   0.0000       1.684096        45.8266 
 312   0.0000       1.685857        45.8745 
 313   0.0000       1.686266        45.8856 
 314   0.0000       1.694430        46.1078 
 315   0.0000       1.695831        46.1459 
 316   0.0000       1.697210        46.1834 
 317   0.0000       1.702820        46.3361 
 318   0.0000       1.708243        46.4836 
 319   0.0000       1.714665        46.6584 
 320   0.0000       1.720089        46.8060 
 321   0.0000       1.721344        46.8402 
 322   0.0000       1.729495        47.0620 
 323   0.0000       1.729654        47.0663 
 324   0.0000       1.742431        47.4140 
 325   0.0000       1.750767        47.6408 
 326   0.0000       1.763153        47.9778 
 327   0.0000       1.765714        48.0475 
 328   0.0000       1.770769        48.1851 
 329   0.0000       1.774910        48.2978 
 330   0.0000       1.779012        48.4094 
 331   0.0000       1.788320        48.6627 
 332   0.0000       1.790485        48.7216 
 333   0.0000       1.797790        48.9204 
 334   0.0000       1.801914        49.0326 
 335   0.0000       1.802022        49.0355 
 336   0.0000       1.817685        49.4617 
 337   0.0000       1.831253        49.8309 
 338   0.0000       1.837763        50.0081 
 339   0.0000       1.839982        50.0685 
 340   0.0000       1.841699        50.1152 
 341   0.0000       1.847445        50.2715 
 342   0.0000       1.849611        50.3305 
 343   0.0000       1.857257        50.5385 
 344   0.0000       1.860867        50.6368 
 345   0.0000       1.865262        50.7564 
 346   0.0000       1.876446        51.0607 
 347   0.0000       1.897562        51.6353 
 348   0.0000       1.914625        52.0996 
 349   0.0000       1.922993        52.3273 
 350   0.0000       1.928279        52.4712 
 351   0.0000       1.934307        52.6352 
 352   0.0000       1.937755        52.7290 
 353   0.0000       1.939249        52.7697 
 354   0.0000       1.963654        53.4338 
 355   0.0000       1.965149        53.4744 
 356   0.0000       1.974980        53.7419 
 357   0.0000       1.975114        53.7456 
 358   0.0000       1.987057        54.0706 
 359   0.0000       1.994688        54.2782 
 360   0.0000       1.999783        54.4169 
 361   0.0000       2.012684        54.7679 
 362   0.0000       2.021885        55.0183 
 363   0.0000       2.033377        55.3310 
 364   0.0000       2.059051        56.0296 
 365   0.0000       2.078111        56.5483 
 366   0.0000       2.089288        56.8524 
 367   0.0000       2.106853        57.3304 
 368   0.0000       2.109343        57.3981 
 369   0.0000       2.129355        57.9427 
 370   0.0000       2.131091        57.9899 
 371   0.0000       2.161624        58.8208 
 372   0.0000       2.167065        58.9688 
 373   0.0000       2.190828        59.6154 
 374   0.0000       2.195429        59.7407 
 375   0.0000       2.202469        59.9322 
 376   0.0000       2.207406        60.0666 
 377   0.0000       2.209609        60.1265 
 378   0.0000       2.211675        60.1827 
 379   0.0000       2.222446        60.4758 
 380   0.0000       2.228688        60.6457 
 381   0.0000       2.239256        60.9332 
 382   0.0000       2.245678        61.1080 
 383   0.0000       2.271871        61.8208 
 384   0.0000       2.279444        62.0268 
 385   0.0000       2.302532        62.6551 
 386   0.0000       2.302619        62.6575 
 387   0.0000       2.310173        62.8630 
 388   0.0000       2.316329        63.0305 
 389   0.0000       2.318294        63.0840 
 390   0.0000       2.325616        63.2832 
 391   0.0000       2.350373        63.9569 
 392   0.0000       2.363439        64.3124 
 393   0.0000       2.395994        65.1983 
 394   0.0000       2.399580        65.2959 
 395   0.0000       2.411200        65.6121 
 396   0.0000       2.412117        65.6370 
 397   0.0000       2.412728        65.6537 
 398   0.0000       2.417068        65.7718 
 399   0.0000       2.419515        65.8384 
 400   0.0000       2.422297        65.9140 
 401   0.0000       2.428793        66.0908 
 402   0.0000       2.443053        66.4788 
 403   0.0000       2.456082        66.8334 
 404   0.0000       2.476333        67.3844 
 405   0.0000       2.495807        67.9144 
 406   0.0000       2.516301        68.4720 
 407   0.0000       2.531820        68.8943 
 408   0.0000       2.533452        68.9387 
 409   0.0000       2.541969        69.1705 
 410   0.0000       2.551946        69.4420 
 411   0.0000       2.581594        70.2487 
 412   0.0000       2.588897        70.4475 
 413   0.0000       2.602914        70.8289 
 414   0.0000       2.619458        71.2791 
 415   0.0000       2.628338        71.5207 
 416   0.0000       2.651718        72.1569 
 417   0.0000       2.664544        72.5059 
 418   0.0000       2.710553        73.7579 
 419   0.0000       2.711715        73.7895 
 420   0.0000       2.713263        73.8316 
 421   0.0000       2.716394        73.9168 
 422   0.0000       2.720597        74.0312 
 423   0.0000       2.725727        74.1708 
 424   0.0000       2.747094        74.7522 
 425   0.0000       2.788625        75.8823 
 426   0.0000       2.824871        76.8687 
 427   0.0000       2.839924        77.2783 
 428   0.0000       2.882218        78.4291 
 429   0.0000       3.066560        83.4453 
 430   0.0000       3.084069        83.9218 
 431   0.0000       3.258198        88.6601 
 432   0.0000       3.586076        97.5821 

                 SPIN DOWN ORBITALS
  NO   OCC          E(Eh)            E(eV) 
   0   1.0000     -10.213898      -277.9343 
   1   1.0000     -10.207578      -277.7623 
   2   1.0000     -10.202161      -277.6149 
   3   1.0000     -10.199828      -277.5514 
   4   1.0000     -10.194653      -277.4106 
   5   1.0000     -10.194499      -277.4064 
   6   1.0000     -10.193642      -277.3831 
   7   1.0000     -10.193250      -277.3724 
   8   1.0000     -10.193125      -277.3690 
   9   1.0000     -10.192980      -277.3651 
  10   1.0000     -10.191687      -277.3299 
  11   1.0000     -10.189597      -277.2730 
  12   1.0000     -10.188083      -277.2318 
  13   1.0000     -10.186547      -277.1900 
  14   1.0000     -10.186019      -277.1757 
  15   1.0000     -10.183952      -277.1194 
  16   1.0000     -10.182762      -277.0870 
  17   1.0000     -10.182594      -277.0825 
  18   1.0000     -10.182406      -277.0774 
  19   1.0000     -10.182235      -277.0727 
  20   1.0000     -10.176315      -276.9116 
  21   1.0000     -10.176156      -276.9073 
  22   1.0000      -0.865002       -23.5379 
  23   1.0000      -0.860469       -23.4145 
  24   1.0000      -0.812115       -22.0988 
  25   1.0000      -0.795666       -21.6512 
  26   1.0000      -0.784504       -21.3475 
  27   1.0000      -0.768034       -20.8993 
  28   1.0000      -0.756236       -20.5782 
  29   1.0000      -0.748643       -20.3716 
  30   1.0000      -0.730403       -19.8753 
  31   1.0000      -0.709980       -19.3195 
  32   1.0000      -0.696246       -18.9458 
  33   1.0000      -0.651573       -17.7302 
  34   1.0000      -0.628749       -17.1091 
  35   1.0000      -0.615231       -16.7413 
  36   1.0000      -0.606721       -16.5097 
  37   1.0000      -0.600886       -16.3509 
  38   1.0000      -0.580512       -15.7965 
  39   1.0000      -0.572011       -15.5652 
  40   1.0000      -0.560966       -15.2647 
  41   1.0000      -0.533889       -14.5279 
  42   1.0000      -0.505036       -13.7427 
  43   1.0000      -0.477398       -12.9907 
  44   1.0000      -0.471329       -12.8255 
  45   1.0000      -0.470246       -12.7961 
  46   1.0000      -0.466778       -12.7017 
  47   1.0000      -0.455140       -12.3850 
  48   1.0000      -0.434710       -11.8291 
  49   1.0000      -0.433430       -11.7942 
  50   1.0000      -0.425351       -11.5744 
  51   1.0000      -0.422468       -11.4959 
  52   1.0000      -0.422029       -11.4840 
  53   1.0000      -0.421891       -11.4802 
  54   1.0000      -0.416946       -11.3457 
  55   1.0000      -0.411825       -11.2063 
  56   1.0000      -0.406901       -11.0723 
  57   1.0000      -0.381213       -10.3733 
  58   1.0000      -0.374413       -10.1883 
  59   1.0000      -0.371681       -10.1140 
  60   1.0000      -0.365022        -9.9328 
  61   1.0000      -0.361408        -9.8344 
  62   1.0000      -0.357600        -9.7308 
  63   1.0000      -0.356812        -9.7093 
  64   1.0000      -0.348155        -9.4738 
  65   1.0000      -0.340707        -9.2711 
  66   1.0000      -0.333382        -9.0718 
  67   1.0000      -0.330438        -8.9917 
  68   1.0000      -0.326777        -8.8920 
  69   1.0000      -0.324566        -8.8319 
  70   1.0000      -0.322773        -8.7831 
  71   1.0000      -0.321116        -8.7380 
  72   1.0000      -0.310628        -8.4526 
  73   1.0000      -0.265336        -7.2202 
  74   1.0000      -0.265125        -7.2144 
  75   1.0000      -0.256572        -6.9817 
  76   1.0000      -0.242246        -6.5919 
  77   1.0000      -0.205469        -5.5911 
  78   0.0000      -0.077402        -2.1062 
  79   0.0000      -0.045331        -1.2335 
  80   0.0000      -0.008276        -0.2252 
  81   0.0000      -0.003591        -0.0977 
  82   0.0000       0.011125         0.3027 
  83   0.0000       0.048581         1.3220 
  84   0.0000       0.055949         1.5225 
  85   0.0000       0.061350         1.6694 
  86   0.0000       0.064379         1.7519 
  87   0.0000       0.079801         2.1715 
  88   0.0000       0.085443         2.3250 
  89   0.0000       0.085549         2.3279 
  90   0.0000       0.089894         2.4461 
  91   0.0000       0.093348         2.5401 
  92   0.0000       0.094702         2.5770 
  93   0.0000       0.102428         2.7872 
  94   0.0000       0.106848         2.9075 
  95   0.0000       0.114612         3.1188 
  96   0.0000       0.127047         3.4571 
  97   0.0000       0.129670         3.5285 
  98   0.0000       0.138213         3.7610 
  99   0.0000       0.142944         3.8897 
 100   0.0000       0.143389         3.9018 
 101   0.0000       0.145048         3.9470 
 102   0.0000       0.153511         4.1772 
 103   0.0000       0.156802         4.2668 
 104   0.0000       0.159168         4.3312 
 105   0.0000       0.161171         4.3857 
 106   0.0000       0.162623         4.4252 
 107   0.0000       0.166249         4.5239 
 108   0.0000       0.173586         4.7235 
 109   0.0000       0.176879         4.8131 
 110   0.0000       0.187382         5.0989 
 111   0.0000       0.207570         5.6483 
 112   0.0000       0.210259         5.7215 
 113   0.0000       0.212997         5.7960 
 114   0.0000       0.215114         5.8535 
 115   0.0000       0.224539         6.1100 
 116   0.0000       0.227458         6.1894 
 117   0.0000       0.234546         6.3823 
 118   0.0000       0.239871         6.5272 
 119   0.0000       0.268620         7.3095 
 120   0.0000       0.275540         7.4978 
 121   0.0000       0.281139         7.6502 
 122   0.0000       0.286596         7.7987 
 123   0.0000       0.294101         8.0029 
 124   0.0000       0.312759         8.5106 
 125   0.0000       0.314799         8.5661 
 126   0.0000       0.337097         9.1729 
 127   0.0000       0.353383         9.6160 
 128   0.0000       0.357716         9.7339 
 129   0.0000       0.368695        10.0327 
 130   0.0000       0.382477        10.4077 
 131   0.0000       0.402495        10.9524 
 132   0.0000       0.411759        11.2045 
 133   0.0000       0.412223        11.2172 
 134   0.0000       0.416083        11.3222 
 135   0.0000       0.419537        11.4162 
 136   0.0000       0.420325        11.4376 
 137   0.0000       0.431382        11.7385 
 138   0.0000       0.436296        11.8722 
 139   0.0000       0.446134        12.1399 
 140   0.0000       0.449757        12.2385 
 141   0.0000       0.453825        12.3492 
 142   0.0000       0.458128        12.4663 
 143   0.0000       0.472795        12.8654 
 144   0.0000       0.474792        12.9197 
 145   0.0000       0.482341        13.1252 
 146   0.0000       0.484049        13.1716 
 147   0.0000       0.489973        13.3328 
 148   0.0000       0.492914        13.4129 
 149   0.0000       0.494978        13.4690 
 150   0.0000       0.507010        13.7964 
 151   0.0000       0.510069        13.8797 
 152   0.0000       0.512179        13.9371 
 153   0.0000       0.514758        14.0073 
 154   0.0000       0.517026        14.0690 
 155   0.0000       0.517453        14.0806 
 156   0.0000       0.523003        14.2316 
 157   0.0000       0.528528        14.3820 
 158   0.0000       0.530089        14.4245 
 159   0.0000       0.546856        14.8807 
 160   0.0000       0.550066        14.9681 
 161   0.0000       0.555214        15.1081 
 162   0.0000       0.573530        15.6065 
 163   0.0000       0.573864        15.6156 
 164   0.0000       0.583088        15.8666 
 165   0.0000       0.587427        15.9847 
 166   0.0000       0.596671        16.2362 
 167   0.0000       0.597717        16.2647 
 168   0.0000       0.602596        16.3975 
 169   0.0000       0.616931        16.7876 
 170   0.0000       0.618743        16.8369 
 171   0.0000       0.625055        17.0086 
 172   0.0000       0.625367        17.0171 
 173   0.0000       0.630327        17.1521 
 174   0.0000       0.635109        17.2822 
 175   0.0000       0.637947        17.3594 
 176   0.0000       0.641867        17.4661 
 177   0.0000       0.643678        17.5154 
 178   0.0000       0.643870        17.5206 
 179   0.0000       0.653778        17.7902 
 180   0.0000       0.655399        17.8343 
 181   0.0000       0.659281        17.9400 
 182   0.0000       0.659965        17.9586 
 183   0.0000       0.661113        17.9898 
 184   0.0000       0.661954        18.0127 
 185   0.0000       0.670879        18.2556 
 186   0.0000       0.672817        18.3083 
 187   0.0000       0.675595        18.3839 
 188   0.0000       0.676507        18.4087 
 189   0.0000       0.681136        18.5346 
 190   0.0000       0.685577        18.6555 
 191   0.0000       0.688258        18.7285 
 192   0.0000       0.693208        18.8632 
 193   0.0000       0.694079        18.8869 
 194   0.0000       0.699677        19.0392 
 195   0.0000       0.704445        19.1689 
 196   0.0000       0.706424        19.2228 
 197   0.0000       0.709830        19.3155 
 198   0.0000       0.716228        19.4896 
 199   0.0000       0.724316        19.7096 
 200   0.0000       0.725699        19.7473 
 201   0.0000       0.738023        20.0826 
 202   0.0000       0.739740        20.1293 
 203   0.0000       0.747270        20.3342 
 204   0.0000       0.752020        20.4635 
 205   0.0000       0.769123        20.9289 
 206   0.0000       0.778318        21.1791 
 207   0.0000       0.795194        21.6383 
 208   0.0000       0.812173        22.1003 
 209   0.0000       0.815885        22.2014 
 210   0.0000       0.826807        22.4986 
 211   0.0000       0.835191        22.7267 
 212   0.0000       0.839523        22.8446 
 213   0.0000       0.840027        22.8583 
 214   0.0000       0.857869        23.3438 
 215   0.0000       0.866270        23.5724 
 216   0.0000       0.873897        23.7800 
 217   0.0000       0.892538        24.2872 
 218   0.0000       0.897141        24.4125 
 219   0.0000       0.903663        24.5899 
 220   0.0000       0.913644        24.8615 
 221   0.0000       0.925373        25.1807 
 222   0.0000       0.940166        25.5832 
 223   0.0000       0.942885        25.6572 
 224   0.0000       0.950502        25.8645 
 225   0.0000       0.967724        26.3331 
 226   0.0000       0.974161        26.5083 
 227   0.0000       0.983515        26.7628 
 228   0.0000       0.985999        26.8304 
 229   0.0000       1.002441        27.2778 
 230   0.0000       1.011647        27.5283 
 231   0.0000       1.015962        27.6457 
 232   0.0000       1.017367        27.6840 
 233   0.0000       1.024919        27.8895 
 234   0.0000       1.043643        28.3990 
 235   0.0000       1.044042        28.4098 
[...]
  Z           0.0017759           -0.9999937            0.0030852

Notes:  (1) The A matrix conforms to the "SAI" spin Hamiltonian convention.
        (2) Tensor is right-handed.

 -----------------------------------------------------------
 Nucleus  44H : A:ISTP=    1 I=  0.5 P=533.5514 MHz/au**3
                Q:ISTP=    2 I=  1.0 Q=  0.0029 barn     
 -----------------------------------------------------------
 Solving for nuclear perturbation:
Forming RHS of the CP-SCF equations         ... 
Calc. nucleus orbit integrals (SHARK)       ... done

------------------------------------------------------------------------------
                           ORCA CP-SCF CALCULATION
------------------------------------------------------------------------------

Input orbitals are from        ... cc-pVDZ_i.gbw
Input Perturbation             ... cc-pVDZ_i.pin.tmp
Wavefunction output            ... cc-pVDZ_i.pout.tmp
Perturbation mode              ... Imaginary perturbation
Solver                         ... POPLE
Max. number of iterations      ... 64
Convergence tolerance          ... 1.000e-03
Integral handling              ... Direct
DFT GridXC                     ... 1
COSX GridX                     ... 1
COSX IntAccX                   ... 3.067
COSX Algorithm                 ... Auto
Number of perturbations        ... 3
Number of operators            ... 2
Orbital ranges used for CP-SCF:
 Operator 0:  Orbitals   0... 78  to  79...432
 Operator 1:  Orbitals   0... 77  to  78...432
Variables per perturbation     ... 55656
DFT calculation                         ... on
XC functional terms                     ... off
Hybrid DFT                              ... on
   Exchange mixing (SCF)                ...  0.200
   Exchange mixing (CP-SCF)             ...  0.200
   GGA exch. scaling(SCF)               ...  0.720
   GGA exch. scaling (CP-SCF)           ...  0.720
   GGA corr. scaling (SCF)              ...  0.810
   GGA corr. scaling (CP-SCF)           ...  0.810

CP-SCF GRID
-----------

General Integration Accuracy     IntAcc      ... 3.467
Radial Grid Type                 RadialGrid  ... OptM3 with GC (2021)
Angular Grid (max. ang.)         AngularGrid ... 1 (Lebedev-50)
Angular grid pruning method      GridPruning ... 4 (adaptive)
Weight generation scheme         WeightScheme... Becke
Basis function cutoff            BFCut       ... 1.0000e-10
Integration weight cutoff        WCut        ... 1.0000e-14
Angular grids for H and He will be reduced by one unit
Partially contracted basis set               ... off
Rotationally invariant grid construction     ... off

Total number of grid points                  ...    30031
Total number of batches                      ...      490
Average number of points per batch           ...       61
Average number of grid points per atom       ...      639

CP-SCF GRIDX
------------

General Integration Accuracy     IntAcc      ... 3.067
Radial Grid Type                 RadialGrid  ... OptM3 with GC (2021)
Angular Grid (max. ang.)         AngularGrid ... 1 (Lebedev-50)
Angular grid pruning method      GridPruning ... 4 (adaptive)
Weight generation scheme         WeightScheme... Becke
Basis function cutoff            BFCut       ... 1.0000e-10
Integration weight cutoff        WCut        ... 1.0000e-14
Angular grids for H and He will be reduced by one unit
Partially contracted basis set               ... on
Rotationally invariant grid construction     ... off

Total number of grid points                  ...    14122
Total number of batches                      ...      250
Average number of points per batch           ...       56
Average number of grid points per atom       ...      300

Memory available               ... 885.8 MB
Memory needed per perturbation ...  11.8 MB
Perturbations treated per batch... 3
Number of batches              ... 1
     CP-SCF ITERATION   0:   4.5246e-02 (   1.6 sec   0/  3 done)
     CP-SCF ITERATION   1:   1.8840e-03 (   1.6 sec   0/  3 done)
     CP-SCF ITERATION   2:   1.3138e-04 (   1.7 sec   3/  3 done)
                    *** THE CP-SCF HAS CONVERGED ***

Forming final perturbed densities           ... done
Transforming perturbed density to AO basis  ... done

 Raw HFC matrix (all values in MHz): 
 -----------------------------------
                 0.7106              -0.2612              -0.0005
                -0.2611               0.0066              -0.0004
                -0.0005              -0.0004               0.1112

 A(FC)           0.2762               0.2762               0.2762
 A(SD)          -0.3560              -0.1649               0.5209
 A(ORB+DIA)      0.0001               0.0000              -0.0001    A(PC) =  -0.0000
 A(ORB)         -0.0000              -0.0002              -0.0002    A(PC) =  -0.0001
 A(DIA)          0.0001               0.0002               0.0000    A(PC) =   0.0001
             ----------           ----------           ----------
 A(Tot)         -0.0797               0.1112               0.7970    A(iso)=    0.2762
 Orientation: 
  X           0.3138150            0.0003110           -0.9494841
  Y           0.9494801            0.0027992            0.3138146
  Z           0.0027553           -0.9999960            0.0005831

Notes:  (1) The A matrix conforms to the "SAI" spin Hamiltonian convention.
        (2) Tensor is right-handed.

 -----------------------------------------------------------
 Nucleus  45H : A:ISTP=    1 I=  0.5 P=533.5514 MHz/au**3
                Q:ISTP=    2 I=  1.0 Q=  0.0029 barn     
 -----------------------------------------------------------
 Solving for nuclear perturbation:
Forming RHS of the CP-SCF equations         ... 
Calc. nucleus orbit integrals (SHARK)       ... done

------------------------------------------------------------------------------
                           ORCA CP-SCF CALCULATION
------------------------------------------------------------------------------

Input orbitals are from        ... cc-pVDZ_i.gbw
Input Perturbation             ... cc-pVDZ_i.pin.tmp
Wavefunction output            ... cc-pVDZ_i.pout.tmp
Perturbation mode              ... Imaginary perturbation
Solver                         ... POPLE
Max. number of iterations      ... 64
Convergence tolerance          ... 1.000e-03
Integral handling              ... Direct
DFT GridXC                     ... 1
COSX GridX                     ... 1
COSX IntAccX                   ... 3.067
COSX Algorithm                 ... Auto
Number of perturbations        ... 3
Number of operators            ... 2
Orbital ranges used for CP-SCF:
 Operator 0:  Orbitals   0... 78  to  79...432
 Operator 1:  Orbitals   0... 77  to  78...432
Variables per perturbation     ... 55656
DFT calculation                         ... on
XC functional terms                     ... off
Hybrid DFT                              ... on
   Exchange mixing (SCF)                ...  0.200
   Exchange mixing (CP-SCF)             ...  0.200
   GGA exch. scaling(SCF)               ...  0.720
   GGA exch. scaling (CP-SCF)           ...  0.720
   GGA corr. scaling (SCF)              ...  0.810
   GGA corr. scaling (CP-SCF)           ...  0.810

CP-SCF GRID
-----------

General Integration Accuracy     IntAcc      ... 3.467
Radial Grid Type                 RadialGrid  ... OptM3 with GC (2021)
Angular Grid (max. ang.)         AngularGrid ... 1 (Lebedev-50)
Angular grid pruning method      GridPruning ... 4 (adaptive)
Weight generation scheme         WeightScheme... Becke
Basis function cutoff            BFCut       ... 1.0000e-10
Integration weight cutoff        WCut        ... 1.0000e-14
Angular grids for H and He will be reduced by one unit
Partially contracted basis set               ... off
Rotationally invariant grid construction     ... off

Total number of grid points                  ...    30031
Total number of batches                      ...      490
Average number of points per batch           ...       61
Average number of grid points per atom       ...      639

CP-SCF GRIDX
------------

General Integration Accuracy     IntAcc      ... 3.067
Radial Grid Type                 RadialGrid  ... OptM3 with GC (2021)
Angular Grid (max. ang.)         AngularGrid ... 1 (Lebedev-50)
Angular grid pruning method      GridPruning ... 4 (adaptive)
Weight generation scheme         WeightScheme... Becke
Basis function cutoff            BFCut       ... 1.0000e-10
Integration weight cutoff        WCut        ... 1.0000e-14
Angular grids for H and He will be reduced by one unit
Partially contracted basis set               ... on
Rotationally invariant grid construction     ... off

Total number of grid points                  ...    14122
Total number of batches                      ...      250
Average number of points per batch           ...       56
Average number of grid points per atom       ...      300

Memory available               ... 885.4 MB
Memory needed per perturbation ...  11.8 MB
Perturbations treated per batch... 3
Number of batches              ... 1
     CP-SCF ITERATION   0:   4.5424e-02 (   1.5 sec   0/  3 done)
     CP-SCF ITERATION   1:   1.8962e-03 (   1.6 sec   0/  3 done)
     CP-SCF ITERATION   2:   1.3634e-04 (   1.7 sec   3/  3 done)
                    *** THE CP-SCF HAS CONVERGED ***

Forming final perturbed densities           ... done
Transforming perturbed density to AO basis  ... done

 Raw HFC matrix (all values in MHz): 
 -----------------------------------
                 0.7207               0.2240               0.0011
                 0.2239              -0.0056              -0.0002
                 0.0011              -0.0002               0.1191

 A(FC)           0.2781               0.2781               0.2781
 A(SD)          -0.3472              -0.1590               0.5062
 A(ORB+DIA)      0.0000              -0.0000              -0.0001    A(PC) =  -0.0000
 A(ORB)         -0.0001              -0.0002              -0.0002    A(PC) =  -0.0001
 A(DIA)          0.0001               0.0002               0.0000    A(PC) =   0.0001
             ----------           ----------           ----------
 A(Tot)         -0.0691               0.1191               0.7842    A(iso)=    0.2781
 Orientation: 
  X           0.2728769            0.0007980            0.9620486
  Y          -0.9620459            0.0027709            0.2728738
  Z          -0.0024480           -0.9999958            0.0015238

Notes:  (1) The A matrix conforms to the "SAI" spin Hamiltonian convention.
        (2) Tensor is right-handed.

 -----------------------------------------------------------
 Nucleus  46H : A:ISTP=    1 I=  0.5 P=533.5514 MHz/au**3
                Q:ISTP=    2 I=  1.0 Q=  0.0029 barn     
 -----------------------------------------------------------
 Solving for nuclear perturbation:
Forming RHS of the CP-SCF equations         ... 
Calc. nucleus orbit integrals (SHARK)       ... done

------------------------------------------------------------------------------
                           ORCA CP-SCF CALCULATION
------------------------------------------------------------------------------

Input orbitals are from        ... cc-pVDZ_i.gbw
Input Perturbation             ... cc-pVDZ_i.pin.tmp
Wavefunction output            ... cc-pVDZ_i.pout.tmp
Perturbation mode              ... Imaginary perturbation
Solver                         ... POPLE
Max. number of iterations      ... 64
Convergence tolerance          ... 1.000e-03
Integral handling              ... Direct
DFT GridXC                     ... 1
COSX GridX                     ... 1
COSX IntAccX                   ... 3.067
COSX Algorithm                 ... Auto
Number of perturbations        ... 3
Number of operators            ... 2
Orbital ranges used for CP-SCF:
 Operator 0:  Orbitals   0... 78  to  79...432
 Operator 1:  Orbitals   0... 77  to  78...432
Variables per perturbation     ... 55656
DFT calculation                         ... on
XC functional terms                     ... off
Hybrid DFT                              ... on
   Exchange mixing (SCF)                ...  0.200
   Exchange mixing (CP-SCF)             ...  0.200
   GGA exch. scaling(SCF)               ...  0.720
   GGA exch. scaling (CP-SCF)           ...  0.720
   GGA corr. scaling (SCF)              ...  0.810
   GGA corr. scaling (CP-SCF)           ...  0.810

CP-SCF GRID
-----------

General Integration Accuracy     IntAcc      ... 3.467
Radial Grid Type                 RadialGrid  ... OptM3 with GC (2021)
Angular Grid (max. ang.)         AngularGrid ... 1 (Lebedev-50)
Angular grid pruning method      GridPruning ... 4 (adaptive)
Weight generation scheme         WeightScheme... Becke
Basis function cutoff            BFCut       ... 1.0000e-10
Integration weight cutoff        WCut        ... 1.0000e-14
Angular grids for H and He will be reduced by one unit
Partially contracted basis set               ... off
Rotationally invariant grid construction     ... off

Total number of grid points                  ...    30031
Total number of batches                      ...      490
Average number of points per batch           ...       61
Average number of grid points per atom       ...      639

CP-SCF GRIDX
------------

General Integration Accuracy     IntAcc      ... 3.067
Radial Grid Type                 RadialGrid  ... OptM3 with GC (2021)
Angular Grid (max. ang.)         AngularGrid ... 1 (Lebedev-50)
Angular grid pruning method      GridPruning ... 4 (adaptive)
Weight generation scheme         WeightScheme... Becke
Basis function cutoff            BFCut       ... 1.0000e-10
Integration weight cutoff        WCut        ... 1.0000e-14
Angular grids for H and He will be reduced by one unit
Partially contracted basis set               ... on
Rotationally invariant grid construction     ... off

Total number of grid points                  ...    14122
Total number of batches                      ...      250
Average number of points per batch           ...       56
Average number of grid points per atom       ...      300

Memory available               ... 884.9 MB
Memory needed per perturbation ...  11.8 MB
Perturbations treated per batch... 3
Number of batches              ... 1
     CP-SCF ITERATION   0:   4.1518e-02 (   1.5 sec   0/  3 done)
     CP-SCF ITERATION   1:   1.6687e-03 (   1.7 sec   2/  3 done)
     CP-SCF ITERATION   2:   7.3785e-05 (   1.1 sec   3/  3 done)
                    *** THE CP-SCF HAS CONVERGED ***

Forming final perturbed densities           ... done
Transforming perturbed density to AO basis  ... done

 Raw HFC matrix (all values in MHz): 
 -----------------------------------
                -0.0041              -0.0902              -0.0002
                -0.0901              -0.1701              -0.0001
                -0.0002              -0.0001              -0.1574

 A(FC)          -0.1106              -0.1106              -0.1106
 A(SD)           0.1460              -0.0468              -0.0992
 A(ORB+DIA)      0.0000               0.0000               0.0001    A(PC) =   0.0000
 A(ORB)         -0.0000              -0.0001              -0.0000    A(PC) =  -0.0000
 A(DIA)          0.0000               0.0001               0.0001    A(PC) =   0.0001
             ----------           ----------           ----------
 A(Tot)          0.0354              -0.1574              -0.2096    A(iso)=   -0.1105
 Orientation: 
  X           0.9157635            0.0007017            0.4017172
  Y          -0.4017171            0.0035525            0.9157569
  Z          -0.0007845           -0.9999934            0.0035351

Notes:  (1) The A matrix conforms to the "SAI" spin Hamiltonian convention.
        (2) Tensor is right-handed.


--------------------------------------------------------------------------------
----------------------------------------------------------------------------
                           ORCA EULER ANGLE PROGRAM
----------------------------------------------------------------------------

Only g-tensor available        -->  using g-tensor as reference tensor

Reference tensor               ...  g

g-tensor ordering              ...  |g_min> --> |gx>
                                    |g_mid> --> |gy>
                                    |g_max> --> |gz>

A- and EFG-tensor ordering     ...  the axes |Ax>, |Qx>, |Ay>, etc. are assigned
                                    such that the Euler rotation is minimal. You
                                    can find the respective eigenvalues as Ax,
                                    EFGx, Ay, etc. in the tables below.
                                    The relation of |Ax>, |Ay>,  etc. to Amin, Amid, etc.
                                    (as printed in the ORCA EPR/NMR CALCULATION Output)
                                    is obtained in the detailed printout.

Euler rotation around          ...  z - y - z
   First rotation              -->  by alpha around z
   Second rotation             -->  by beta around y'
   Third rotation              -->  by gamma around z''
   Positive / Negative angle   -->  clockwise / counterclockwise rotation

Plot EFG-tensors                    (-)
Plot HFC-tensors                    (-)
Detailed Printout                   (-)

-------------------------------------------------------------------------
          Euler rotation of hyperfine tensor to g-tensor
-------------------------------------------------------------------------

-------------------------------------------------------------------
 Atom  |   Alpha    Beta    Gamma   |   Ax       Ay       Az 
       |          [degrees]         |           [MHz]         
-------------------------------------------------------------------
  7H       43.6      0.0      0.0      25.35    17.61    16.98
  8H       -6.6      0.0      0.0      59.32    41.20    40.38
 10H     -129.3     35.4    112.7       3.19    -6.53    -7.79
 11H       50.7     35.6    -67.3       3.16    -6.54    -7.79
 13H     -157.9     15.6    178.2       2.16    -0.76    -1.03
 14H       21.8     15.4     -1.4       2.15    -0.76    -1.03
 16H       60.9     22.7    -68.6       1.09    -0.55    -0.62
 17H     -119.2     22.8    111.4       1.09    -0.56    -0.62
 19H      -68.3     23.2     84.4       0.52    -0.28    -0.30
 20H      112.0     23.2    -95.9       0.52    -0.28    -0.30
 22H     -140.9     29.4   -177.9       2.39     5.76     3.04
 23H       39.2     29.2      2.0       2.39     5.76     3.03
 25H      -49.9     22.0     36.4       2.29    -0.55    -0.72
 26H      130.3     22.0   -143.9       2.29    -0.55    -0.73
 28H     -157.8     11.1    126.9       0.68    -0.35    -0.37
 29H       22.4     11.0    -53.3       0.68    -0.35    -0.37
 31H      136.9     11.1   -145.9       0.53    -0.25    -0.27
 32H      -43.3     11.1     34.3       0.53    -0.25    -0.27
 34H        2.5      0.0      0.0       0.49    -0.13    -0.15
 35H      -17.5      0.0      0.0       0.32    -0.18    -0.19
 42H      151.4      0.1   -150.8       0.43     0.23     0.24
 43H     -174.0      0.1   -161.3      -0.21     0.03    -0.16
 44H      129.4      0.1   -144.6      -0.08     0.80     0.11
 45H       18.9      0.0      0.0      -0.07     0.78     0.12
 46H      146.2      0.1   -166.9      -0.21     0.04    -0.16
-------------------------------------------------------------------


Maximum memory used throughout the entire EPRNMR-calculation: 201.3 MB

Timings for individual modules:

Sum of individual times         ...     3990.150 sec (=  66.503 min)
GTO integral calculation        ...        4.562 sec (=   0.076 min)   0.1 %
Spin-Orbit-Coupling Matrices    ...        8.418 sec (=   0.140 min)   0.2 %
SCF iterations                  ...       25.852 sec (=   0.431 min)   0.6 %
EPR/NMR calculation             ...     3951.318 sec (=  65.855 min)  99.0 %
                             ****ORCA TERMINATED NORMALLY****
TOTAL RUN TIME: 0 days 1 hours 6 minutes 34 seconds 207 msec
