
                                 *****************
                                 * O   R   C   A *
                                 *****************

                                            #,                                       
                                            ###                                      
                                            ####                                     
                                            #####                                    
                                            ######                                   
                                           ########,                                 
                                     ,,################,,,,,                         
                               ,,#################################,,                 
                          ,,##########################################,,             
                       ,#########################################, ''#####,          
                    ,#############################################,,   '####,        
                  ,##################################################,,,,####,       
                ,###########''''           ''''###############################       
              ,#####''   ,,,,##########,,,,          '''####'''          '####       
            ,##' ,,,,###########################,,,                        '##       
           ' ,,###''''                  '''############,,,                           
         ,,##''                                '''############,,,,        ,,,,,,###''
      ,#''                                            '''#######################'''  
     '                                                          ''''####''''         
             ,#######,   #######,   ,#######,      ##                                
            ,#'     '#,  ##    ##  ,#'     '#,    #''#        ######   ,####,        
            ##       ##  ##   ,#'  ##            #'  '#       #        #'  '#        
            ##       ##  #######   ##           ,######,      #####,   #    #        
            '#,     ,#'  ##    ##  '#,     ,#' ,#      #,         ##   #,  ,#        
             '#######'   ##     ##  '#######'  #'      '#     #####' # '####'        



                  #######################################################
                  #                        -***-                        #
                  #          Department of theory and spectroscopy      #
                  #    Directorship and core code : Frank Neese         #
                  #        Max Planck Institute fuer Kohlenforschung    #
                  #                Kaiser Wilhelm Platz 1               #
                  #                 D-45470 Muelheim/Ruhr               #
                  #                      Germany                        #
                  #                                                     #
                  #                  All rights reserved                #
                  #                        -***-                        #
                  #######################################################


                         Program Version 5.0.4 -  RELEASE  -


 With contributions from (in alphabetic order):
   Daniel Aravena         : Magnetic Suceptibility
   Michael Atanasov       : Ab Initio Ligand Field Theory (pilot matlab implementation)
   Alexander A. Auer      : GIAO ZORA, VPT2 properties, NMR spectrum
   Ute Becker             : Parallelization
   Giovanni Bistoni       : ED, misc. LED, open-shell LED, HFLD
   Martin Brehm           : Molecular dynamics
   Dmytro Bykov           : SCF Hessian
   Vijay G. Chilkuri      : MRCI spin determinant printing, contributions to CSF-ICE
   Dipayan Datta          : RHF DLPNO-CCSD density
   Achintya Kumar Dutta   : EOM-CC, STEOM-CC
   Dmitry Ganyushin       : Spin-Orbit,Spin-Spin,Magnetic field MRCI
   Miquel Garcia          : C-PCM and meta-GGA Hessian, CC/C-PCM, Gaussian charge scheme
   Yang Guo               : DLPNO-NEVPT2, F12-NEVPT2, CIM, IAO-localization
   Andreas Hansen         : Spin unrestricted coupled pair/coupled cluster methods
   Benjamin Helmich-Paris : MC-RPA, TRAH-SCF, COSX integrals
   Lee Huntington         : MR-EOM, pCC
   Robert Izsak           : Overlap fitted RIJCOSX, COSX-SCS-MP3, EOM
   Marcus Kettner         : VPT2
   Christian Kollmar      : KDIIS, OOCD, Brueckner-CCSD(T), CCSD density, CASPT2, CASPT2-K
   Simone Kossmann        : Meta GGA functionals, TD-DFT gradient, OOMP2, MP2 Hessian
   Martin Krupicka        : Initial AUTO-CI
   Lucas Lang             : DCDCAS
   Marvin Lechner         : AUTO-CI (C++ implementation), FIC-MRCC
   Dagmar Lenk            : GEPOL surface, SMD
   Dimitrios Liakos       : Extrapolation schemes; Compound Job, initial MDCI parallelization
   Dimitrios Manganas     : Further ROCIS development; embedding schemes
   Dimitrios Pantazis     : SARC Basis sets
   Anastasios Papadopoulos: AUTO-CI, single reference methods and gradients
   Taras Petrenko         : DFT Hessian,TD-DFT gradient, ASA, ECA, R-Raman, ABS, FL, XAS/XES, NRVS
   Peter Pinski           : DLPNO-MP2, DLPNO-MP2 Gradient
   Christoph Reimann      : Effective Core Potentials
   Marius Retegan         : Local ZFS, SOC
   Christoph Riplinger    : Optimizer, TS searches, QM/MM, DLPNO-CCSD(T), (RO)-DLPNO pert. Triples
   Tobias Risthaus        : Range-separated hybrids, TD-DFT gradient, RPA, STAB
   Michael Roemelt        : Original ROCIS implementation
   Masaaki Saitow         : Open-shell DLPNO-CCSD energy and density
   Barbara Sandhoefer     : DKH picture change effects
   Avijit Sen             : IP-ROCIS
   Kantharuban Sivalingam : CASSCF convergence, NEVPT2, FIC-MRCI
   Bernardo de Souza      : ESD, SOC TD-DFT
   Georgi Stoychev        : AutoAux, RI-MP2 NMR, DLPNO-MP2 response
   Willem Van den Heuvel  : Paramagnetic NMR
   Boris Wezisla          : Elementary symmetry handling
   Frank Wennmohs         : Technical directorship


 We gratefully acknowledge several colleagues who have allowed us to
 interface, adapt or use parts of their codes:
   Stefan Grimme, W. Hujo, H. Kruse, P. Pracht,  : VdW corrections, initial TS optimization,
                  C. Bannwarth, S. Ehlert          DFT functionals, gCP, sTDA/sTD-DF
   Ed Valeev, F. Pavosevic, A. Kumar             : LibInt (2-el integral package), F12 methods
   Garnet Chan, S. Sharma, J. Yang, R. Olivares  : DMRG
   Ulf Ekstrom                                   : XCFun DFT Library
   Mihaly Kallay                                 : mrcc  (arbitrary order and MRCC methods)
   Jiri Pittner, Ondrej Demel                    : Mk-CCSD
   Frank Weinhold                                : gennbo (NPA and NBO analysis)
   Christopher J. Cramer and Donald G. Truhlar   : smd solvation model
   Lars Goerigk                                  : TD-DFT with DH, B97 family of functionals
   V. Asgeirsson, H. Jonsson                     : NEB implementation
   FAccTs GmbH                                   : IRC, NEB, NEB-TS, DLPNO-Multilevel, CI-OPT
                                                   MM, QMMM, 2- and 3-layer-ONIOM, Crystal-QMMM,
                                                   LR-CPCM, SF, NACMEs, symmetry and pop. for TD-DFT,
                                                   nearIR, NL-DFT gradient (VV10), updates on ESD,
                                                   ML-optimized integration grids
   S Lehtola, MJT Oliveira, MAL Marques          : LibXC Library
   Liviu Ungur et al                             : ANISO software


 Your calculation uses the libint2 library for the computation of 2-el integrals
 For citations please refer to: http://libint.valeyev.net

 Your ORCA version has been built with support for libXC version: 5.1.0
 For citations please refer to: https://tddft.org/programs/libxc/

 This ORCA versions uses:
   CBLAS   interface :  Fast vector & matrix operations
   LAPACKE interface :  Fast linear algebra routines
   SCALAPACK package :  Parallel linear algebra routines
   Shared memory     :  Shared parallel matrices
   BLAS/LAPACK       :  OpenBLAS 0.3.15  USE64BITINT DYNAMIC_ARCH NO_AFFINITY SkylakeX SINGLE_THREADED
        Core in use  :  SkylakeX
   Copyright (c) 2011-2014, The OpenBLAS Project




***************************************
The coordinates will be read from file: opt_cc-pVDZ.xyz
***************************************


================================================================================

----- Orbital basis set information -----
Your calculation utilizes the basis: cc-pVDZ 
       H, B-Ne : Obtained from the ccRepo (grant-hill.group.shef.ac.uk/ccrepo) Feb. 2017
                 T. H. Dunning, Jr., J. Chem. Phys. 90, 1007 (1989)
            He : Obtained from the ccRepo (grant-hill.group.shef.ac.uk/ccrepo) Feb. 2017
                 D. E. Woon, T. H. Dunning, Jr., J. Chem. Phys. 100, 2975 (1994)
  Li-Be, Na-Mg : Obtained from the ccRepo (grant-hill.group.shef.ac.uk/ccrepo) Feb. 2017
                 B. P. Prascher, D. E. Woon, K. A. Peterson, T. H. Dunning, Jr., A. K. Wilson, Theor. Chem. Acc. 128, 69 (2011)
         Al-Ar : Obtained from the ccRepo (grant-hill.group.shef.ac.uk/ccrepo) Feb. 2017
                 D. E. Woon, T. H. Dunning, Jr., J. Chem. Phys. 98, 1358 (1993)
            Ca : Obtained from the Peterson Research Group Website (tyr0.chem.wsu.edu/~kipeters) Feb. 2017
                 J. Koput, K. A. Peterson, J. Phys. Chem. 106, 9595 (2002)
         Sc-Zn : Obtained from the ccRepo (grant-hill.group.shef.ac.uk/ccrepo) Feb. 2017
                 N. B. Balabanov, K. A. Peterson, J. Chem. Phys. 123, 064107 (2005)
                 N. B. Balabanov, K. A. Peterson, J. Chem. Phys. 125, 074110 (2006)
         Ga-Kr : Obtained from the ccRepo (grant-hill.group.shef.ac.uk/ccrepo) Feb. 2017
                 A. K. Wilson, D. E. Woon, K. A. Peterson, T. H. Dunning, Jr., J. Chem. Phys. 110, 7667 (1999)

----- AuxJ basis set information -----
Your calculation utilizes the AutoAux generation procedure.
  G. L. Stoychev, A. A. Auer, F. Neese, J. Chem. Theory Comput. 13, 554 (2017)

----- AuxC basis set information -----
Your calculation utilizes the AutoAux generation procedure.
  G. L. Stoychev, A. A. Auer, F. Neese, J. Chem. Theory Comput. 13, 554 (2017)

----- AuxJK basis set information -----
Your calculation utilizes the AutoAux generation procedure.
  G. L. Stoychev, A. A. Auer, F. Neese, J. Chem. Theory Comput. 13, 554 (2017)

================================================================================
                                        WARNINGS
                       Please study these warnings very carefully!
================================================================================

WARNING: Old DensityContainer found on disk!
         Will remove this file - 
         If you want to keep old densities, please start your calculation with a different basename. 


WARNING: your system is open-shell and RHF/RKS was chosen
  ===> : WILL SWITCH to UHF/UKS


INFO   : the flag for use of the SHARK integral package has been found!

================================================================================
                                       INPUT FILE
================================================================================
NAME = cc-pVDZ.inp
|  1> ! B3LYP cc-pVDZ AUTOAUX
|  2> %pal nprocs 16 end
|  3> *XYZFile 0 2 opt_cc-pVDZ.xyz
|  4> %EPRNMR
|  5>         GTENSOR   TRUE
|  6>         NUCLEI    = ALL H {SHIFT, AISO, ADIP, AORB}
|  7>         ORI       CenterOfElCharge
|  8> END
|  9> 
| 10>                          ****END OF INPUT****
================================================================================

                       ****************************
                       * Single Point Calculation *
                       ****************************

---------------------------------
CARTESIAN COORDINATES (ANGSTROEM)
---------------------------------
  C      2.831560   -0.005050   -0.008351
  C     -1.314368   -0.014444   -0.013002
  C     -0.703781   -1.259487   -0.014485
  C      0.699337   -1.202602   -0.012648
  C      1.402122    0.024137   -0.009613
  C      0.708095    1.264372   -0.008018
  C     -0.700161    1.218096   -0.009888
  H      1.284026   -2.124251   -0.013666
  H     -1.286086    2.138909   -0.008885
  C     -1.509013   -2.547945   -0.017590
  H     -2.181527   -2.530547   -0.894723
  H     -2.180202   -2.535583    0.860672
  C     -0.707209   -3.852059   -0.021818
  H     -0.043807   -3.879795   -0.905932
  H     -0.044192   -3.885744    0.862381
  C     -1.601358   -5.097661   -0.026108
  H     -2.267877   -5.070414    0.855980
  H     -2.266636   -5.065212   -0.908957
  C     -0.809194   -6.407509   -0.029431
  H     -0.160822   -6.485890    0.860367
  H     -0.159097   -6.480321   -0.918444
  C      1.482955    2.567860   -0.004606
  H      2.158864    2.564104    0.870565
  H      2.159597    2.568248   -0.879235
  C      0.661643    3.859797   -0.001910
  H     -0.000688    3.885703   -0.886980
  H     -0.002286    3.881001    0.882084
  C      1.539602    5.117171    0.002176
  H      2.204838    5.093143    0.885271
  H      2.206756    5.097530   -0.879578
  C      0.731157    6.416961    0.004549
  H      0.079858    6.482156    0.893279
  H      0.082162    6.486851   -0.885508
  C      4.053049   -0.040501   -0.009430
  H     -1.477612   -7.283785   -0.032834
  H      1.388386    7.301667    0.007743
  C      5.480881   -0.086180   -0.008637
  C      6.160755   -1.323809   -0.010717
  C      7.554788   -1.364056   -0.009920
  C      8.296935   -0.177568   -0.007087
  C      7.633420    1.054720   -0.005057
  C      6.239755    1.104680   -0.005839
  H      9.388871   -0.213318   -0.006476
  H      8.206794    1.984947   -0.002851
  H      5.580332   -2.248368   -0.012945
  H      5.720631    2.065028   -0.004274
  H      8.066893   -2.329380   -0.011540

----------------------------
CARTESIAN COORDINATES (A.U.)
----------------------------
  NO LB      ZA    FRAG     MASS         X           Y           Z
   0 C     6.0000    0    12.011    5.350873   -0.009544   -0.015780
   1 C     6.0000    0    12.011   -2.483795   -0.027296   -0.024570
   2 C     6.0000    0    12.011   -1.329953   -2.380085   -0.027373
   3 C     6.0000    0    12.011    1.321555   -2.272588   -0.023902
   4 C     6.0000    0    12.011    2.649627    0.045613   -0.018166
   5 C     6.0000    0    12.011    1.338106    2.389317   -0.015151
   6 C     6.0000    0    12.011   -1.323113    2.301867   -0.018685
   7 H     1.0000    0     1.008    2.426457   -4.014253   -0.025825
   8 H     1.0000    0     1.008   -2.430351    4.041952   -0.016790
   9 C     6.0000    0    12.011   -2.851621   -4.814919   -0.033241
  10 H     1.0000    0     1.008   -4.122488   -4.782041   -1.690782
  11 H     1.0000    0     1.008   -4.119984   -4.791557    1.626435
  12 C     6.0000    0    12.011   -1.336432   -7.279336   -0.041229
  13 H     1.0000    0     1.008   -0.082783   -7.331749   -1.711963
  14 H     1.0000    0     1.008   -0.083510   -7.342992    1.629664
  15 C     6.0000    0    12.011   -3.026129   -9.633184   -0.049337
  16 H     1.0000    0     1.008   -4.285667   -9.581693    1.617568
  17 H     1.0000    0     1.008   -4.283322   -9.571863   -1.717679
  18 C     6.0000    0    12.011   -1.529155  -12.108438   -0.055616
  19 H     1.0000    0     1.008   -0.303909  -12.256555    1.625857
  20 H     1.0000    0     1.008   -0.300651  -12.246033   -1.735607
  21 C     6.0000    0    12.011    2.802378    4.852553   -0.008704
  22 H     1.0000    0     1.008    4.079661    4.845455    1.645129
  23 H     1.0000    0     1.008    4.081048    4.853286   -1.661514
  24 C     6.0000    0    12.011    1.250324    7.293960   -0.003609
  25 H     1.0000    0     1.008   -0.001300    7.342914   -1.676148
  26 H     1.0000    0     1.008   -0.004320    7.334029    1.666898
  27 C     6.0000    0    12.011    2.909426    9.670052    0.004112
  28 H     1.0000    0     1.008    4.166541    9.624645    1.672920
  29 H     1.0000    0     1.008    4.170165    9.632937   -1.662162
  30 C     6.0000    0    12.011    1.381687   12.126299    0.008597
  31 H     1.0000    0     1.008    0.150909   12.249499    1.688053
  32 H     1.0000    0     1.008    0.155263   12.258372   -1.673367
  33 C     6.0000    0    12.011    7.659154   -0.076535   -0.017819
  34 H     1.0000    0     1.008   -2.792282  -13.764359   -0.062046
  35 H     1.0000    0     1.008    2.623670   13.798152    0.014632
  36 C     6.0000    0    12.011   10.357364   -0.162857   -0.016322
  37 C     6.0000    0    12.011   11.642139   -2.501636   -0.020253
  38 C     6.0000    0    12.011   14.276481   -2.577692   -0.018746
  39 C     6.0000    0    12.011   15.678934   -0.335556   -0.013393
  40 C     6.0000    0    12.011   14.425073    1.993132   -0.009556
  41 C     6.0000    0    12.011   11.791428    2.087542   -0.011035
  42 H     1.0000    0     1.008   17.742395   -0.403112   -0.012238
  43 H     1.0000    0     1.008   15.508593    3.751006   -0.005388
  44 H     1.0000    0     1.008   10.545300   -4.248801   -0.024463
  45 H     1.0000    0     1.008   10.810427    3.902337   -0.008077
  46 H     1.0000    0     1.008   15.244218   -4.401891   -0.021807

--------------------------------
INTERNAL COORDINATES (ANGSTROEM)
--------------------------------
 C      0   0   0     0.000000000000     0.00000000     0.00000000
 C      1   0   0     4.145941020743     0.00000000     0.00000000
 C      2   1   0     1.386704475450    64.00593856     0.00000000
 C      3   2   1     1.404271499425   113.80226803     0.00000000
 C      4   3   2     1.413791099141   122.12959542     0.00000000
 C      5   4   3     1.421217296596   120.96107379     0.00000000
 C      2   1   3     1.377103256385    63.38185304   179.98680015
 H      4   3   2     1.091466678760   120.06907045   180.00507675
 H      7   2   1     1.091424237414   121.04267751   179.99039335
 C      3   2   1     1.519385852711   121.87240845   179.99836877
 H     10   3   2     1.105413807229   108.10142896    56.52558279
 H     10   3   2     1.105437307423   108.09997364   303.22446657
 C     10   3   2     1.530888427502   116.41223320   179.88085830
 H     13  10   3     1.105680858668   109.74439874   301.89148137
 H     13  10   3     1.105682629546   109.74344540    58.22765725
 C     13  10   3     1.533312319810   112.74351393   180.05536245
 H     16  13  10     1.105925018700   109.22057231   302.36104984
 H     16  13  10     1.105924684113   109.21997472    57.71628904
 C     16  13  10     1.530763569172   113.16323333   180.03767357
 H     19  16  13     1.103752718867   111.28484628    59.87821182
 H     19  16  13     1.103753154461   111.28420045   300.15996819
 C      6   5   4     1.516410052131   120.03959793   179.99314807
 H     22   6   5     1.105799133960   108.13122710   303.68991831
 H     22   6   5     1.105812695164   108.13100725    56.40845832
 C     22   6   5     1.530902214049   116.82574980   180.04813920
 H     25  22   6     1.105758506872   109.85914560   301.70002162
 H     25  22   6     1.105756019678   109.85948490    58.23588975
 C     25  22   6     1.533564032909   112.63057492   179.97011146
 H     28  25  22     1.105881534894   109.18952902   302.32517850
 H     28  25  22     1.105880277341   109.18921533    57.64446034
 C     28  25  22     1.530699648887   113.19470498   179.98554474
 H     31  28  25     1.103757998347   111.28790341    59.84493692
 H     31  28  25     1.103757995437   111.28856788   300.12541957
 C      1   2   3     1.222004026323   178.20410714     3.56728346
 H     19  16  13     1.102112944354   111.49955741   180.01997062
 H     31  28  25     1.102118703407   111.51148254   179.98457001
 C     34   1   5     1.428562117808   179.81110750   322.54187830
 C     37  34   1     1.412075865169   120.61385645    25.96888014
 C     38  37  34     1.394614463181   120.43518750   180.00072472
 C     39  38  37     1.399478881056   120.37221546     0.00000000
 C     40  39  38     1.399567917415   119.67431827     0.00000000
 C     41  40  39     1.394560287019   120.35279884     0.00000000
 H     40  39  38     1.092522028727   120.15077002   180.00029277
 H     41  40  39     1.092742172466   120.05136926   180.00058487
 H     38  37  34     1.091652734084   119.09862534     0.00000000
 H     42  41  40     1.091677819134   120.44672494   180.00098301
 H     39  38  37     1.092751276441   119.59956131   179.99914421

---------------------------
INTERNAL COORDINATES (A.U.)
---------------------------
 C      0   0   0     0.000000000000     0.00000000     0.00000000
 C      1   0   0     7.834693096594     0.00000000     0.00000000
 C      2   1   0     2.620491687284    64.00593856     0.00000000
 C      3   2   1     2.653688551584   113.80226803     0.00000000
 C      4   3   2     2.671677987952   122.12959542     0.00000000
 C      5   4   3     2.685711467358   120.96107379     0.00000000
 C      2   1   3     2.602348012699    63.38185304   179.98680015
 H      4   3   2     2.062573107157   120.06907045   180.00507675
 H      7   2   1     2.062492904636   121.04267751   179.99039335
 C      3   2   1     2.871223153379   121.87240845   179.99836877
 H     10   3   2     2.088929360318   108.10142896    56.52558279
 H     10   3   2     2.088973769249   108.09997364   303.22446657
 C     10   3   2     2.892959869568   116.41223320   179.88085830
 H     13  10   3     2.089434014401   109.74439874   301.89148137
 H     13  10   3     2.089437360875   109.74344540    58.22765725
 C     13  10   3     2.897540362208   112.74351393   180.05536245
 H     16  13  10     2.089895409995   109.22057231   302.36104984
 H     16  13  10     2.089894777717   109.21997472    57.71628904
 C     16  13  10     2.892723921519   113.16323333   180.03767357
 H     19  16  13     2.085790358230   111.28484628    59.87821182
 H     19  16  13     2.085791181384   111.28420045   300.15996819
 C      6   5   4     2.865599705253   120.03959793   179.99314807
 H     22   6   5     2.089657522312   108.13122710   303.68991831
 H     22   6   5     2.089683149274   108.13100725    56.40845832
 C     22   6   5     2.892985922367   116.82574980   180.04813920
 H     25  22   6     2.089580748243   109.85914560   301.70002162
 H     25  22   6     2.089576048126   109.85948490    58.23588975
 C     25  22   6     2.898016031031   112.63057492   179.97011146
 H     28  25  22     2.089813237511   109.18952902   302.32517850
 H     28  25  22     2.089810861080   109.18921533    57.64446034
 C     28  25  22     2.892603129685   113.19470498   179.98554474
 H     31  28  25     2.085800335002   111.28790341    59.84493692
 H     31  28  25     2.085800329502   111.28856788   300.12541957
 C      1   2   3     2.309252944299   178.20410714     3.56728346
 H     19  16  13     2.082691633478   111.49955741   180.01997062
 H     31  28  25     2.082702516511   111.51148254   179.98457001
 C     34   1   5     2.699591167952   179.81110750   322.54187830
 C     37  34   1     2.668436665490   120.61385645    25.96888014
 C     38  37  34     2.635439397817   120.43518750   180.00072472
 C     39  38  37     2.644631815402   120.37221546     0.00000000
 C     40  39  38     2.644800069737   119.67431827     0.00000000
 C     41  40  39     2.635337019709   120.35279884     0.00000000
 H     40  39  38     2.064567429570   120.15077002   180.00029277
 H     41  40  39     2.064983440946   120.05136926   180.00058487
 H     38  37  34     2.062924700766   119.09862534     0.00000000
 H     42  41  40     2.062972104639   120.44672494   180.00098301
 H     39  38  37     2.065000644966   119.59956131   179.99914421

---------------------
BASIS SET INFORMATION
---------------------
There are 2 groups of distinct atoms

 Group   1 Type C   : 17s4p1d contracted to 3s2p1d pattern {881/31/1}
 Group   2 Type H   : 4s1p contracted to 2s1p pattern {31/1}

Atom   0C    basis set group =>   1
Atom   1C    basis set group =>   1
Atom   2C    basis set group =>   1
Atom   3C    basis set group =>   1
Atom   4C    basis set group =>   1
Atom   5C    basis set group =>   1
Atom   6C    basis set group =>   1
Atom   7H    basis set group =>   2
Atom   8H    basis set group =>   2
Atom   9C    basis set group =>   1
Atom  10H    basis set group =>   2
Atom  11H    basis set group =>   2
Atom  12C    basis set group =>   1
Atom  13H    basis set group =>   2
Atom  14H    basis set group =>   2
Atom  15C    basis set group =>   1
Atom  16H    basis set group =>   2
Atom  17H    basis set group =>   2
Atom  18C    basis set group =>   1
Atom  19H    basis set group =>   2
Atom  20H    basis set group =>   2
Atom  21C    basis set group =>   1
Atom  22H    basis set group =>   2
Atom  23H    basis set group =>   2
Atom  24C    basis set group =>   1
Atom  25H    basis set group =>   2
Atom  26H    basis set group =>   2
Atom  27C    basis set group =>   1
Atom  28H    basis set group =>   2
Atom  29H    basis set group =>   2
Atom  30C    basis set group =>   1
Atom  31H    basis set group =>   2
Atom  32H    basis set group =>   2
Atom  33C    basis set group =>   1
Atom  34H    basis set group =>   2
Atom  35H    basis set group =>   2
Atom  36C    basis set group =>   1
Atom  37C    basis set group =>   1
Atom  38C    basis set group =>   1
Atom  39C    basis set group =>   1
Atom  40C    basis set group =>   1
Atom  41C    basis set group =>   1
Atom  42H    basis set group =>   2
Atom  43H    basis set group =>   2
Atom  44H    basis set group =>   2
Atom  45H    basis set group =>   2
Atom  46H    basis set group =>   2
---------------------------------
AUXILIARY/J BASIS SET INFORMATION
---------------------------------
There are 2 groups of distinct atoms

 Group   1 Type C   : 14s11p10d2f contracted to 14s11p10d2f pattern {11111111111111/11111111111/1111111111/11}
 Group   2 Type H   : 9s2p1d contracted to 9s2p1d pattern {111111111/11/1}

Atom   0C    basis set group =>   1
Atom   1C    basis set group =>   1
Atom   2C    basis set group =>   1
Atom   3C    basis set group =>   1
Atom   4C    basis set group =>   1
Atom   5C    basis set group =>   1
Atom   6C    basis set group =>   1
Atom   7H    basis set group =>   2
Atom   8H    basis set group =>   2
Atom   9C    basis set group =>   1
Atom  10H    basis set group =>   2
Atom  11H    basis set group =>   2
Atom  12C    basis set group =>   1
Atom  13H    basis set group =>   2
Atom  14H    basis set group =>   2
Atom  15C    basis set group =>   1
Atom  16H    basis set group =>   2
Atom  17H    basis set group =>   2
Atom  18C    basis set group =>   1
Atom  19H    basis set group =>   2
Atom  20H    basis set group =>   2
Atom  21C    basis set group =>   1
Atom  22H    basis set group =>   2
Atom  23H    basis set group =>   2
Atom  24C    basis set group =>   1
Atom  25H    basis set group =>   2
Atom  26H    basis set group =>   2
Atom  27C    basis set group =>   1
Atom  28H    basis set group =>   2
Atom  29H    basis set group =>   2
Atom  30C    basis set group =>   1
Atom  31H    basis set group =>   2
Atom  32H    basis set group =>   2
Atom  33C    basis set group =>   1
Atom  34H    basis set group =>   2
Atom  35H    basis set group =>   2
Atom  36C    basis set group =>   1
Atom  37C    basis set group =>   1
Atom  38C    basis set group =>   1
Atom  39C    basis set group =>   1
Atom  40C    basis set group =>   1
Atom  41C    basis set group =>   1
Atom  42H    basis set group =>   2
Atom  43H    basis set group =>   2
Atom  44H    basis set group =>   2
Atom  45H    basis set group =>   2
Atom  46H    basis set group =>   2
---------------------------------
AUXILIARY/C BASIS SET INFORMATION
---------------------------------
There are 2 groups of distinct atoms

 Group   1 Type C   : 14s11p10d2f contracted to 14s11p10d2f pattern {11111111111111/11111111111/1111111111/11}
 Group   2 Type H   : 9s2p1d contracted to 9s2p1d pattern {111111111/11/1}

Atom   0C    basis set group =>   1
Atom   1C    basis set group =>   1
Atom   2C    basis set group =>   1
Atom   3C    basis set group =>   1
Atom   4C    basis set group =>   1
Atom   5C    basis set group =>   1
Atom   6C    basis set group =>   1
Atom   7H    basis set group =>   2
Atom   8H    basis set group =>   2
Atom   9C    basis set group =>   1
Atom  10H    basis set group =>   2
Atom  11H    basis set group =>   2
Atom  12C    basis set group =>   1
Atom  13H    basis set group =>   2
Atom  14H    basis set group =>   2
Atom  15C    basis set group =>   1
Atom  16H    basis set group =>   2
Atom  17H    basis set group =>   2
Atom  18C    basis set group =>   1
Atom  19H    basis set group =>   2
Atom  20H    basis set group =>   2
Atom  21C    basis set group =>   1
Atom  22H    basis set group =>   2
Atom  23H    basis set group =>   2
Atom  24C    basis set group =>   1
Atom  25H    basis set group =>   2
Atom  26H    basis set group =>   2
Atom  27C    basis set group =>   1
Atom  28H    basis set group =>   2
Atom  29H    basis set group =>   2
Atom  30C    basis set group =>   1
Atom  31H    basis set group =>   2
Atom  32H    basis set group =>   2
Atom  33C    basis set group =>   1
Atom  34H    basis set group =>   2
Atom  35H    basis set group =>   2
Atom  36C    basis set group =>   1
Atom  37C    basis set group =>   1
Atom  38C    basis set group =>   1
Atom  39C    basis set group =>   1
Atom  40C    basis set group =>   1
Atom  41C    basis set group =>   1
Atom  42H    basis set group =>   2
Atom  43H    basis set group =>   2
Atom  44H    basis set group =>   2
Atom  45H    basis set group =>   2
Atom  46H    basis set group =>   2
----------------------------------
AUXILIARY/JK BASIS SET INFORMATION
----------------------------------
There are 2 groups of distinct atoms

 Group   1 Type C   : 14s11p10d2f contracted to 14s11p10d2f pattern {11111111111111/11111111111/1111111111/11}
 Group   2 Type H   : 9s2p1d contracted to 9s2p1d pattern {111111111/11/1}

Atom   0C    basis set group =>   1
Atom   1C    basis set group =>   1
Atom   2C    basis set group =>   1
Atom   3C    basis set group =>   1
Atom   4C    basis set group =>   1
Atom   5C    basis set group =>   1
Atom   6C    basis set group =>   1
Atom   7H    basis set group =>   2
Atom   8H    basis set group =>   2
Atom   9C    basis set group =>   1
Atom  10H    basis set group =>   2
Atom  11H    basis set group =>   2
Atom  12C    basis set group =>   1
Atom  13H    basis set group =>   2
Atom  14H    basis set group =>   2
Atom  15C    basis set group =>   1
Atom  16H    basis set group =>   2
Atom  17H    basis set group =>   2
Atom  18C    basis set group =>   1
Atom  19H    basis set group =>   2
Atom  20H    basis set group =>   2
Atom  21C    basis set group =>   1
Atom  22H    basis set group =>   2
Atom  23H    basis set group =>   2
Atom  24C    basis set group =>   1
Atom  25H    basis set group =>   2
Atom  26H    basis set group =>   2
Atom  27C    basis set group =>   1
Atom  28H    basis set group =>   2
Atom  29H    basis set group =>   2
Atom  30C    basis set group =>   1
Atom  31H    basis set group =>   2
Atom  32H    basis set group =>   2
Atom  33C    basis set group =>   1
Atom  34H    basis set group =>   2
Atom  35H    basis set group =>   2
Atom  36C    basis set group =>   1
Atom  37C    basis set group =>   1
Atom  38C    basis set group =>   1
Atom  39C    basis set group =>   1
Atom  40C    basis set group =>   1
Atom  41C    basis set group =>   1
Atom  42H    basis set group =>   2
Atom  43H    basis set group =>   2
Atom  44H    basis set group =>   2
Atom  45H    basis set group =>   2
Atom  46H    basis set group =>   2

Checking for AutoStart:
The File: cc-pVDZ.gbw exists
Trying to determine its content:
     ... Fine, the file contains calculation information
     ... Fine, the calculation information was read
     ... Fine, the file contains a basis set
     ... Fine, the basis set was read
     ... Fine, the file contains a geometry
     ... Fine, the geometry was read
     ... Fine, the file contains a set of orbitals
     ... Fine, the orbitals can be read
     => possible old guess file was deleted
     => GBW file was renamed to GES file
     => GES file is set as startup file
     => Guess is set to MORead
     ... now leaving AutoStart



           ************************************************************
           *        Program running with 16 parallel MPI-processes    *
           *              working on a common directory               *
           ************************************************************
------------------------------------------------------------------------------
                           ORCA GTO INTEGRAL CALCULATION
                           -- RI-GTO INTEGRALS CHOSEN --
------------------------------------------------------------------------------
------------------------------------------------------------------------------
                   ___                                                        
                  /   \      - P O W E R E D   B Y -                         
                 /     \                                                     
                 |  |  |   _    _      __       _____    __    __             
                 |  |  |  | |  | |    /  \     |  _  \  |  |  /  |          
                  \  \/   | |  | |   /    \    | | | |  |  | /  /          
                 / \  \   | |__| |  /  /\  \   | |_| |  |  |/  /          
                |  |  |   |  __  | /  /__\  \  |    /   |      \           
                |  |  |   | |  | | |   __   |  |    \   |  |\   \          
                \     /   | |  | | |  |  |  |  | |\  \  |  | \   \       
                 \___/    |_|  |_| |__|  |__|  |_| \__\ |__|  \__/        
                                                                              
                      - O R C A' S   B I G   F R I E N D -                    
                                      &                                       
                       - I N T E G R A L  F E E D E R -                       
                                                                              
 v1 FN, 2020, v2 2021                                                         
------------------------------------------------------------------------------


Reading SHARK input file cc-pVDZ.SHARKINP.tmp ... ok
----------------------
SHARK INTEGRAL PACKAGE
----------------------

Number of atoms                             ...     47
Number of basis functions                   ...    565
Number of shells                            ...    339
Maximum angular momentum                    ...      2
Integral batch strategy                     ... SHARK/LIBINT Hybrid
RI-J (if used) integral strategy            ... SPLIT-RIJ (Revised 2003 algorithm where possible)
Printlevel                                  ...      1
Contraction scheme used                     ... PARTIAL GENERAL contraction
Coulomb Range Separation                    ... NOT USED
Exchange Range Separation                   ... NOT USED
Finite Nucleus Model                        ... NOT USED
Auxiliary Coulomb fitting basis             ... AVAILABLE
   # of basis functions in Aux-J            ...   2942
   # of shells in Aux-J                     ...   1114
   Maximum angular momentum in Aux-J        ...      3
Auxiliary J/K fitting basis                 ... AVAILABLE
   # of basis functions in Aux-JK           ...   2942
   # of shells in Aux-JK                    ...   1114
   Maximum angular momentum in Aux-JK       ...      3
Auxiliary Correlation fitting basis         ... AVAILABLE
   # of basis functions in Aux-C            ...   2942
   # of shells in Aux-C                     ...   1114
   Maximum angular momentum in Aux-C        ...      3
Auxiliary 'external' fitting basis          ... NOT available
Integral threshold                          ...     1.000000e-10
Primitive cut-off                           ...     1.000000e-11
Primitive pair pre-selection threshold      ...     1.000000e-11

Calculating pre-screening integrals         ... done (  0.0 sec) Dimension = 339
Calculating pre-screening integrals (ORCA)  ... done (  0.1 sec) Dimension = 207
Organizing shell pair data                  ... done (  0.2 sec)
Shell pair information
Total number of shell pairs                 ...     57630
Shell pairs after pre-screening             ...     22988
Total number of primitive shell pairs       ...     94102
Primitive shell pairs kept                  ...     31329
          la=0 lb=0:  10050 shell pairs
          la=1 lb=0:   8098 shell pairs
          la=1 lb=1:   1439 shell pairs
          la=2 lb=0:   2401 shell pairs
          la=2 lb=1:    861 shell pairs
          la=2 lb=2:    139 shell pairs

Calculating one electron integrals          ... done (  0.0 sec)
Calculating RI/J V-Matrix + Cholesky decomp.... done (  0.5 sec)
Calculating RI/JK V-Matrix + Cholesky decomp... done (  0.5 sec)
Calculating RI/C V-Matrix + Cholesky decomp.... done (  0.5 sec)
Calculating Nuclear repulsion               ... done (  0.0 sec) ENN=   1524.464363794194 Eh

SHARK setup successfully completed in   2.2 seconds

Maximum memory used throughout the entire GTOINT-calculation: 37.1 MB


           ************************************************************
           *        Program running with 16 parallel MPI-processes    *
           *              working on a common directory               *
           ************************************************************
-------------------------------------------------------------------------------
                                 ORCA SCF
-------------------------------------------------------------------------------

------------
SCF SETTINGS
------------
Hamiltonian:
 Density Functional     Method          .... DFT(GTOs)
 Exchange Functional    Exchange        .... B88
   X-Alpha parameter    XAlpha          ....  0.666667
   Becke's b parameter  XBeta           ....  0.004200
 Correlation Functional Correlation     .... LYP
 LDA part of GGA corr.  LDAOpt          .... VWN-5
 Gradients option       PostSCFGGA      .... off
 Hybrid DFT is turned on
   Fraction HF Exchange ScalHFX         ....  0.200000
   Scaling of DF-GGA-X  ScalDFX         ....  0.720000
   Scaling of DF-GGA-C  ScalDFC         ....  0.810000
   Scaling of DF-LDA-C  ScalLDAC        ....  1.000000
   Perturbative correction              ....  0.000000
   Density functional embedding theory  .... OFF
   NL short-range parameter             ....  4.800000
 RI-approximation to the Coulomb term is turned on
   Number of AuxJ basis functions       .... 2942
   RIJ-COSX (HFX calculated with COS-X)).... on


General Settings:
 Integral files         IntName         .... cc-pVDZ
 Hartree-Fock type      HFTyp           .... UHF
 Total Charge           Charge          ....    0
 Multiplicity           Mult            ....    2
 Number of Electrons    NEL             ....  157
 Basis Dimension        Dim             ....  433
 Nuclear Repulsion      ENuc            ....   1524.4643637942 Eh

Convergence Acceleration:
 DIIS                   CNVDIIS         .... on
   Start iteration      DIISMaxIt       ....    12
   Startup error        DIISStart       ....  0.200000
   # of expansion vecs  DIISMaxEq       ....     5
   Bias factor          DIISBfac        ....   1.050
   Max. coefficient     DIISMaxC        ....  10.000
 Trust-Rad. Augm. Hess. CNVTRAH         .... auto
   Auto Start mean grad. ratio tolernc. ....  1.125000
   Auto Start start iteration           ....     1
   Auto Start num. interpolation iter.  ....    10
   Max. Number of Micro iterations      ....    16
   Max. Number of Macro iterations      .... Maxiter - #DIIS iter
   Number of Davidson start vectors     ....     2
   Converg. threshold I  (grad. norm)   ....   5.000e-05
   Converg. threshold II (energy diff.) ....   1.000e-06
   Grad. Scal. Fac. for Micro threshold ....   0.100
   Minimum threshold for Micro iter.    ....   0.010
   NR start threshold (gradient norm)   ....   0.001
   Initial trust radius                 ....   0.400
   Minimum AH scaling param. (alpha)    ....   1.000
   Maximum AH scaling param. (alpha)    .... 1000.000
   Orbital update algorithm             .... Taylor
   White noise on init. David. guess    .... on
   Maximum white noise                  ....   0.010
   Quad. conv. algorithm                .... NR
 SOSCF                  CNVSOSCF        .... off
 Level Shifting         CNVShift        .... on
   Level shift para.    LevelShift      ....    0.2500
   Turn off err/grad.   ShiftErr        ....    0.0010
 Zerner damping         CNVZerner       .... off
 Static damping         CNVDamp         .... on
   Fraction old density DampFac         ....    0.7000
   Max. Damping (<1)    DampMax         ....    0.9800
   Min. Damping (>=0)   DampMin         ....    0.0000
   Turn off err/grad.   DampErr         ....    0.1000
 Fernandez-Rico         CNVRico         .... off

SCF Procedure:
 Maximum # iterations   MaxIter         ....   125
 SCF integral mode      SCFMode         .... Direct
   Integral package                     .... SHARK and LIBINT hybrid scheme
 Reset frequency        DirectResetFreq ....    20
 Integral Threshold     Thresh          ....  1.000e-10 Eh
 Primitive CutOff       TCut            ....  1.000e-11 Eh

Convergence Tolerance:
 Convergence Check Mode ConvCheckMode   .... Total+1el-Energy
 Convergence forced     ConvForced      .... 0
 Energy Change          TolE            ....  1.000e-06 Eh
 1-El. energy change                    ....  1.000e-03 Eh
 DIIS Error             TolErr          ....  1.000e-06


Diagonalization of the overlap matrix:
Smallest eigenvalue                        ... 5.295e-05
Time for diagonalization                   ...    0.034 sec
Threshold for overlap eigenvalues          ... 1.000e-08
Number of eigenvalues below threshold      ... 0
Time for construction of square roots      ...    0.040 sec
Total time needed                          ...    0.075 sec

---------------------
INITIAL GUESS: MOREAD
---------------------
Guess MOs are being read from file: cc-pVDZ.ges
Input geometry compatible with but different from current geometry
Input basis set matches current basis set (good)
MOs were renormalized
MOs were reorthogonalized (Cholesky)
                      ------------------
                      INITIAL GUESS DONE (   0.2 sec)
                      ------------------
-------------------
DFT GRID GENERATION
-------------------

General Integration Accuracy     IntAcc      ... 4.388
Radial Grid Type                 RadialGrid  ... OptM3 with GC (2021)
Angular Grid (max. ang.)         AngularGrid ... 4 (Lebedev-302)
Angular grid pruning method      GridPruning ... 4 (adaptive)
Weight generation scheme         WeightScheme... Becke
Basis function cutoff            BFCut       ... 1.0000e-10
Integration weight cutoff        WCut        ... 1.0000e-14
Angular grids for H and He will be reduced by one unit
Partially contracted basis set               ... off
Rotationally invariant grid construction     ... off

Total number of grid points                  ...   211212
Total number of batches                      ...     3324
Average number of points per batch           ...       63
Average number of grid points per atom       ...     4494
Time for grid setup =    1.289 sec

--------------------
COSX GRID GENERATION
--------------------

GRIDX 1
-------
General Integration Accuracy     IntAcc      ... 3.816
Radial Grid Type                 RadialGrid  ... OptM3 with GC (2021)
Angular Grid (max. ang.)         AngularGrid ... 1 (Lebedev-50)
Angular grid pruning method      GridPruning ... 4 (adaptive)
Weight generation scheme         WeightScheme... Becke
Basis function cutoff            BFCut       ... 1.0000e-10
Integration weight cutoff        WCut        ... 1.0000e-14
Angular grids for H and He will be reduced by one unit
Partially contracted basis set               ... on
Rotationally invariant grid construction     ... off

Total number of grid points                  ...    26939
Total number of batches                      ...      446
Average number of points per batch           ...       60
Average number of grid points per atom       ...      573
UseSFitting                                  ... on

GRIDX 2
-------
General Integration Accuracy     IntAcc      ... 4.020
Radial Grid Type                 RadialGrid  ... OptM3 with GC (2021)
Angular Grid (max. ang.)         AngularGrid ... 2 (Lebedev-110)
Angular grid pruning method      GridPruning ... 4 (adaptive)
Weight generation scheme         WeightScheme... Becke
Basis function cutoff            BFCut       ... 1.0000e-10
Integration weight cutoff        WCut        ... 1.0000e-14
Angular grids for H and He will be reduced by one unit
Partially contracted basis set               ... on
Rotationally invariant grid construction     ... off

Total number of grid points                  ...    57173
Total number of batches                      ...      916
Average number of points per batch           ...       62
Average number of grid points per atom       ...     1216
UseSFitting                                  ... on

GRIDX 3
-------
General Integration Accuracy     IntAcc      ... 4.338
Radial Grid Type                 RadialGrid  ... OptM3 with GC (2021)
Angular Grid (max. ang.)         AngularGrid ... 3 (Lebedev-194)
Angular grid pruning method      GridPruning ... 4 (adaptive)
Weight generation scheme         WeightScheme... Becke
Basis function cutoff            BFCut       ... 1.0000e-10
Integration weight cutoff        WCut        ... 1.0000e-14
Angular grids for H and He will be reduced by one unit
Partially contracted basis set               ... on
Rotationally invariant grid construction     ... off

Total number of grid points                  ...   125075
Total number of batches                      ...     1980
Average number of points per batch           ...       63
Average number of grid points per atom       ...     2661
UseSFitting                                  ... on

Time for X-Grid setup             =    2.255 sec

 re-compute Schwartz prescreening matrix in partically contracted basis (1) ...done (   0.110 sec)
--------------
SCF ITERATIONS
--------------
ITER       Energy         Delta-E        Max-DP      RMS-DP      [F,P]     Damp
               ***  Starting incremental Fock matrix formation  ***
  0   -852.7515529959   0.000000000000 0.00006039  0.00000147  0.0003202 0.7000
  1   -852.7515545051  -0.000001509260 0.00005748  0.00000126  0.0002567 0.7000
                               ***Turning on DIIS***
  2   -852.7515556730  -0.000001167810 0.00016223  0.00000331  0.0001952 0.0000
               *** Restarting incremental Fock matrix formation ***
                                   *** Resetting DIIS ***
  3   -852.7515587709  -0.000003097978 0.00002753  0.00000045  0.0000229 0.0000
                 **** Energy Check signals convergence ****

               *****************************************************
               *                     SUCCESS                       *
               *           SCF CONVERGED AFTER   4 CYCLES          *
               *****************************************************

Old exchange energy                            =    -24.574454587 Eh
New exchange energy                            =    -24.574562849 Eh
Exchange energy change after final integration =     -0.000108262 Eh
Total energy after final integration           =   -852.751667038 Eh
Final COS-X integration done in                =     6.482 sec

----------------
TOTAL SCF ENERGY
----------------

Total Energy       :         -852.75166704 Eh          -23204.55256 eV

Components:
Nuclear Repulsion  :         1524.46436379 Eh           41482.78428 eV
Electronic Energy  :        -2377.21603083 Eh          -64687.33684 eV
One Electron Energy:        -4176.83644954 Eh         -113657.49803 eV
Two Electron Energy:         1799.62041870 Eh           48970.16119 eV
Max COSX asymmetry :            0.00000055 Eh               0.00002 eV

Virial components:
Potential Energy   :        -1699.51389827 Eh          -46246.12428 eV
Kinetic Energy     :          846.76223123 Eh           23041.57172 eV
Virial Ratio       :            2.00707334


DFT components:
N(Alpha)           :       79.000191634524 electrons
N(Beta)            :       78.000189182591 electrons
N(Total)           :      157.000380817115 electrons
E(X)               :      -97.443810864527 Eh       
E(C)               :       -6.088270314285 Eh       
E(XC)              :     -103.532081178812 Eh       
DFET-embed. en.    :        0.000000000000 Eh       

---------------
SCF CONVERGENCE
---------------

  Last Energy change         ...   -4.5939e-09  Tolerance :   1.0000e-06
  Last MAX-Density change    ...    0.0000e+00  Tolerance :   1.0000e-05
  Last RMS-Density change    ...    0.0000e+00  Tolerance :   1.0000e-06
  Last DIIS Error            ...    7.9555e-06  Tolerance :   1.0000e-06

             **** THE GBW FILE WAS UPDATED (cc-pVDZ.gbw) ****
             **** DENSITY cc-pVDZ.scfp WAS UPDATED ****
             **** ENERGY FILE WAS UPDATED (cc-pVDZ.en.tmp) ****
----------------------
UHF SPIN CONTAMINATION
----------------------

Warning: in a DFT calculation there is little theoretical justification to 
         calculate <S**2> as in Hartree-Fock theory. We will do it anyways
         but you should keep in mind that the values have only limited relevance

Expectation value of <S**2>     :     0.759068
Ideal value S*(S+1) for S=0.5   :     0.750000
Deviation                       :     0.009068

             **** THE GBW FILE WAS UPDATED (cc-pVDZ.gbw) ****
             **** DENSITY cc-pVDZ.scfp WAS UPDATED ****
----------------
ORBITAL ENERGIES
----------------
                 SPIN UP ORBITALS
  NO   OCC          E(Eh)            E(eV) 
   0   1.0000     -10.213992      -277.9369 
   1   1.0000     -10.206987      -277.7462 
   2   1.0000     -10.203564      -277.6531 
   3   1.0000     -10.203407      -277.6488 
   4   1.0000     -10.199732      -277.5488 
   5   1.0000     -10.194598      -277.4091 
   6   1.0000     -10.194446      -277.4050 
   7   1.0000     -10.194363      -277.4027 
   8   1.0000     -10.193618      -277.3824 
   9   1.0000     -10.193279      -277.3732 
  10   1.0000     -10.192969      -277.3648 
  11   1.0000     -10.191428      -277.3229 
  12   1.0000     -10.190040      -277.2851 
  13   1.0000     -10.186692      -277.1940 
  14   1.0000     -10.186075      -277.1772 
  15   1.0000     -10.183854      -277.1167 
  16   1.0000     -10.182772      -277.0873 
  17   1.0000     -10.182604      -277.0827 
  18   1.0000     -10.182419      -277.0777 
  19   1.0000     -10.182247      -277.0730 
  20   1.0000     -10.176327      -276.9119 
  21   1.0000     -10.176160      -276.9074 
  22   1.0000      -0.870698       -23.6929 
  23   1.0000      -0.860722       -23.4214 
  24   1.0000      -0.813851       -22.1460 
  25   1.0000      -0.795861       -21.6565 
  26   1.0000      -0.786781       -21.4094 
  27   1.0000      -0.769845       -20.9485 
  28   1.0000      -0.760147       -20.6847 
  29   1.0000      -0.748582       -20.3699 
  30   1.0000      -0.732257       -19.9257 
  31   1.0000      -0.712421       -19.3860 
  32   1.0000      -0.698270       -19.0009 
  33   1.0000      -0.652727       -17.7616 
  34   1.0000      -0.630624       -17.1601 
  35   1.0000      -0.617618       -16.8062 
  36   1.0000      -0.606746       -16.5104 
  37   1.0000      -0.605570       -16.4784 
  38   1.0000      -0.582028       -15.8378 
  39   1.0000      -0.577100       -15.7037 
  40   1.0000      -0.563193       -15.3253 
  41   1.0000      -0.534627       -14.5479 
  42   1.0000      -0.506513       -13.7829 
  43   1.0000      -0.477798       -13.0015 
  44   1.0000      -0.471875       -12.8404 
  45   1.0000      -0.471408       -12.8277 
  46   1.0000      -0.470325       -12.7982 
  47   1.0000      -0.455212       -12.3870 
  48   1.0000      -0.441082       -12.0025 
  49   1.0000      -0.434782       -11.8310 
  50   1.0000      -0.427545       -11.6341 
  51   1.0000      -0.423904       -11.5350 
  52   1.0000      -0.422488       -11.4965 
  53   1.0000      -0.421920       -11.4810 
  54   1.0000      -0.417057       -11.3487 
  55   1.0000      -0.413688       -11.2570 
  56   1.0000      -0.411813       -11.2060 
  57   1.0000      -0.381149       -10.3716 
  58   1.0000      -0.378461       -10.2984 
  59   1.0000      -0.372643       -10.1401 
  60   1.0000      -0.366054        -9.9608 
  61   1.0000      -0.364275        -9.9124 
  62   1.0000      -0.357995        -9.7415 
  63   1.0000      -0.357000        -9.7145 
  64   1.0000      -0.348156        -9.4738 
  65   1.0000      -0.341177        -9.2839 
  66   1.0000      -0.334040        -9.0897 
  67   1.0000      -0.331757        -9.0276 
  68   1.0000      -0.327314        -8.9067 
  69   1.0000      -0.324794        -8.8381 
  70   1.0000      -0.322879        -8.7860 
  71   1.0000      -0.322855        -8.7853 
  72   1.0000      -0.312214        -8.4958 
  73   1.0000      -0.268055        -7.2942 
  74   1.0000      -0.265663        -7.2291 
  75   1.0000      -0.256396        -6.9769 
  76   1.0000      -0.242173        -6.5899 
  77   1.0000      -0.235958        -6.4207 
  78   1.0000      -0.209128        -5.6907 
  79   0.0000      -0.049494        -1.3468 
  80   0.0000      -0.008127        -0.2212 
  81   0.0000      -0.003228        -0.0878 
  82   0.0000       0.006370         0.1733 
  83   0.0000       0.048474         1.3190 
  84   0.0000       0.055911         1.5214 
  85   0.0000       0.061327         1.6688 
  86   0.0000       0.064300         1.7497 
  87   0.0000       0.079645         2.1673 
  88   0.0000       0.083932         2.2839 
  89   0.0000       0.084184         2.2908 
  90   0.0000       0.089528         2.4362 
  91   0.0000       0.092800         2.5252 
  92   0.0000       0.094690         2.5766 
  93   0.0000       0.102385         2.7860 
  94   0.0000       0.105453         2.8695 
  95   0.0000       0.114506         3.1159 
  96   0.0000       0.126352         3.4382 
  97   0.0000       0.128853         3.5063 
  98   0.0000       0.137986         3.7548 
  99   0.0000       0.142528         3.8784 
 100   0.0000       0.142894         3.8883 
 101   0.0000       0.145005         3.9458 
 102   0.0000       0.153386         4.1738 
 103   0.0000       0.156713         4.2644 
 104   0.0000       0.158944         4.3251 
 105   0.0000       0.161172         4.3857 
 106   0.0000       0.161905         4.4057 
 107   0.0000       0.165867         4.5135 
 108   0.0000       0.173492         4.7210 
 109   0.0000       0.176276         4.7967 
 110   0.0000       0.184771         5.0279 
 111   0.0000       0.206104         5.6084 
 112   0.0000       0.208620         5.6768 
 113   0.0000       0.212661         5.7868 
 114   0.0000       0.213949         5.8218 
 115   0.0000       0.223415         6.0794 
 116   0.0000       0.225001         6.1226 
 117   0.0000       0.233797         6.3619 
 118   0.0000       0.239302         6.5117 
 119   0.0000       0.267139         7.2692 
 120   0.0000       0.273381         7.4391 
 121   0.0000       0.281143         7.6503 
 122   0.0000       0.285860         7.7787 
 123   0.0000       0.292625         7.9627 
 124   0.0000       0.309527         8.4226 
 125   0.0000       0.314279         8.5520 
 126   0.0000       0.332741         9.0543 
 127   0.0000       0.346043         9.4163 
 128   0.0000       0.354270         9.6402 
 129   0.0000       0.366746         9.9797 
 130   0.0000       0.381666        10.3857 
 131   0.0000       0.401699        10.9308 
 132   0.0000       0.403651        10.9839 
 133   0.0000       0.411666        11.2020 
 134   0.0000       0.412197        11.2164 
 135   0.0000       0.419490        11.4149 
 136   0.0000       0.420231        11.4351 
 137   0.0000       0.428962        11.6726 
 138   0.0000       0.433449        11.7948 
 139   0.0000       0.441847        12.0233 
 140   0.0000       0.446630        12.1534 
 141   0.0000       0.453930        12.3521 
 142   0.0000       0.454938        12.3795 
 143   0.0000       0.471417        12.8279 
 144   0.0000       0.474639        12.9156 
 145   0.0000       0.481464        13.1013 
 146   0.0000       0.482569        13.1314 
 147   0.0000       0.488205        13.2847 
 148   0.0000       0.490688        13.3523 
 149   0.0000       0.493692        13.4341 
 150   0.0000       0.506811        13.7910 
 151   0.0000       0.509133        13.8542 
 152   0.0000       0.512016        13.9327 
 153   0.0000       0.512059        13.9338 
 154   0.0000       0.516720        14.0607 
 155   0.0000       0.517110        14.0713 
 156   0.0000       0.519583        14.1386 
 157   0.0000       0.524607        14.2753 
 158   0.0000       0.528560        14.3828 
 159   0.0000       0.541471        14.7342 
 160   0.0000       0.548943        14.9375 
 161   0.0000       0.549866        14.9626 
 162   0.0000       0.566443        15.4137 
 163   0.0000       0.571509        15.5516 
 164   0.0000       0.581394        15.8205 
 165   0.0000       0.587272        15.9805 
 166   0.0000       0.593699        16.1554 
 167   0.0000       0.597247        16.2519 
 168   0.0000       0.601773        16.3751 
 169   0.0000       0.616560        16.7775 
 170   0.0000       0.616613        16.7789 
 171   0.0000       0.622029        16.9263 
 172   0.0000       0.623244        16.9593 
 173   0.0000       0.629788        17.1374 
 174   0.0000       0.634473        17.2649 
 175   0.0000       0.637889        17.3578 
 176   0.0000       0.640400        17.4262 
 177   0.0000       0.641771        17.4635 
 178   0.0000       0.643299        17.5051 
 179   0.0000       0.653383        17.7795 
 180   0.0000       0.653843        17.7920 
 181   0.0000       0.659109        17.9353 
 182   0.0000       0.659264        17.9395 
 183   0.0000       0.660895        17.9839 
 184   0.0000       0.661629        18.0038 
 185   0.0000       0.670306        18.2400 
 186   0.0000       0.672399        18.2969 
 187   0.0000       0.675592        18.3838 
 188   0.0000       0.676571        18.4104 
 189   0.0000       0.681117        18.5341 
 190   0.0000       0.683223        18.5914 
 191   0.0000       0.687729        18.7140 
 192   0.0000       0.691567        18.8185 
 193   0.0000       0.691915        18.8280 
 194   0.0000       0.698128        18.9970 
 195   0.0000       0.703105        19.1325 
 196   0.0000       0.704925        19.1820 
 197   0.0000       0.707345        19.2478 
 198   0.0000       0.715780        19.4774 
 199   0.0000       0.722703        19.6657 
 200   0.0000       0.725524        19.7425 
 201   0.0000       0.735004        20.0005 
 202   0.0000       0.736328        20.0365 
 203   0.0000       0.746196        20.3050 
 204   0.0000       0.751320        20.4445 
 205   0.0000       0.765431        20.8284 
 206   0.0000       0.777290        21.1511 
 207   0.0000       0.794276        21.6134 
 208   0.0000       0.810365        22.0512 
 209   0.0000       0.815099        22.1800 
 210   0.0000       0.824322        22.4309 
 211   0.0000       0.833890        22.6913 
 212   0.0000       0.838516        22.8172 
 213   0.0000       0.839775        22.8514 
 214   0.0000       0.857100        23.3229 
 215   0.0000       0.866170        23.5697 
 216   0.0000       0.873413        23.7668 
 217   0.0000       0.891651        24.2631 
 218   0.0000       0.893439        24.3117 
 219   0.0000       0.903695        24.5908 
 220   0.0000       0.913512        24.8579 
 221   0.0000       0.923738        25.1362 
 222   0.0000       0.939847        25.5745 
 223   0.0000       0.939910        25.5763 
 224   0.0000       0.948417        25.8077 
 225   0.0000       0.966126        26.2896 
 226   0.0000       0.972566        26.4649 
 227   0.0000       0.983076        26.7509 
 228   0.0000       0.984518        26.7901 
 229   0.0000       1.002396        27.2766 
 230   0.0000       1.008919        27.4541 
 231   0.0000       1.013303        27.5734 
 232   0.0000       1.016348        27.6562 
 233   0.0000       1.024372        27.8746 
 234   0.0000       1.041047        28.3283 
 235   0.0000       1.042526        28.3686 
 236   0.0000       1.046568        28.4786 
 237   0.0000       1.054368        28.6908 
 238   0.0000       1.060852        28.8673 
 239   0.0000       1.075644        29.2698 
 240   0.0000       1.079810        29.3831 
 241   0.0000       1.098337        29.8873 
 242   0.0000       1.115601        30.3570 
 243   0.0000       1.118350        30.4318 
 244   0.0000       1.124939        30.6111 
 245   0.0000       1.147702        31.2305 
 246   0.0000       1.152306        31.3558 
 247   0.0000       1.175503        31.9871 
 248   0.0000       1.192790        32.4575 
 249   0.0000       1.198679        32.6177 
 250   0.0000       1.204993        32.7895 
 251   0.0000       1.206093        32.8195 
 252   0.0000       1.209891        32.9228 
 253   0.0000       1.218264        33.1507 
 254   0.0000       1.220997        33.2250 
 255   0.0000       1.221212        33.2309 
 256   0.0000       1.223394        33.2902 
 257   0.0000       1.232585        33.5403 
 258   0.0000       1.273713        34.6595 
 259   0.0000       1.287969        35.0474 
 260   0.0000       1.296237        35.2724 
 261   0.0000       1.301977        35.4286 
 262   0.0000       1.310644        35.6644 
 263   0.0000       1.318715        35.8840 
 264   0.0000       1.332638        36.2629 
 265   0.0000       1.348155        36.6852 
 266   0.0000       1.353422        36.8285 
 267   0.0000       1.370134        37.2832 
 268   0.0000       1.395083        37.9621 
 269   0.0000       1.405978        38.2586 
 270   0.0000       1.422828        38.7171 
 271   0.0000       1.425902        38.8008 
 272   0.0000       1.426729        38.8233 
 273   0.0000       1.430477        38.9253 
 274   0.0000       1.437816        39.1250 
 275   0.0000       1.446970        39.3741 
 276   0.0000       1.473898        40.1068 
 277   0.0000       1.476477        40.1770 
 278   0.0000       1.476745        40.1843 
 279   0.0000       1.485234        40.4153 
 280   0.0000       1.485511        40.4228 
 281   0.0000       1.492285        40.6071 
 282   0.0000       1.499698        40.8089 
 283   0.0000       1.514922        41.2231 
 284   0.0000       1.531781        41.6819 
 285   0.0000       1.533873        41.7388 
 286   0.0000       1.544516        42.0284 
 287   0.0000       1.545047        42.0429 
 288   0.0000       1.569835        42.7174 
 289   0.0000       1.586959        43.1833 
 290   0.0000       1.593603        43.3641 
 291   0.0000       1.600344        43.5476 
 292   0.0000       1.601307        43.5738 
 293   0.0000       1.603778        43.6410 
 294   0.0000       1.608582        43.7718 
 295   0.0000       1.615395        43.9571 
 296   0.0000       1.615770        43.9673 
 297   0.0000       1.626068        44.2476 
 298   0.0000       1.628410        44.3113 
 299   0.0000       1.629010        44.3276 
 300   0.0000       1.632633        44.4262 
 301   0.0000       1.638617        44.5890 
 302   0.0000       1.640650        44.6444 
 303   0.0000       1.645608        44.7793 
 304   0.0000       1.646913        44.8148 
 305   0.0000       1.647950        44.8430 
 306   0.0000       1.652519        44.9673 
 307   0.0000       1.657725        45.1090 
 308   0.0000       1.669997        45.4429 
 309   0.0000       1.672426        45.5090 
 310   0.0000       1.680836        45.7379 
 311   0.0000       1.684095        45.8266 
 312   0.0000       1.685839        45.8740 
 313   0.0000       1.686259        45.8855 
 314   0.0000       1.694429        46.1078 
 315   0.0000       1.695824        46.1457 
 316   0.0000       1.697173        46.1824 
 317   0.0000       1.702813        46.3359 
 318   0.0000       1.708222        46.4831 
 319   0.0000       1.714653        46.6581 
 320   0.0000       1.720082        46.8058 
 321   0.0000       1.721338        46.8400 
 322   0.0000       1.729488        47.0618 
 323   0.0000       1.729596        47.0647 
 324   0.0000       1.742387        47.4128 
 325   0.0000       1.750740        47.6401 
 326   0.0000       1.763122        47.9770 
 327   0.0000       1.765740        48.0482 
 328   0.0000       1.770734        48.1841 
 329   0.0000       1.774911        48.2978 
 330   0.0000       1.779012        48.4094 
 331   0.0000       1.788345        48.6633 
 332   0.0000       1.790478        48.7214 
 333   0.0000       1.797750        48.9193 
 334   0.0000       1.801903        49.0323 
 335   0.0000       1.801996        49.0348 
 336   0.0000       1.817683        49.4617 
 337   0.0000       1.831255        49.8310 
 338   0.0000       1.837743        50.0075 
 339   0.0000       1.839992        50.0687 
 340   0.0000       1.841706        50.1154 
 341   0.0000       1.847420        50.2709 
 342   0.0000       1.849621        50.3308 
 343   0.0000       1.857245        50.5382 
 344   0.0000       1.860847        50.6362 
 345   0.0000       1.865276        50.7568 
 346   0.0000       1.876427        51.0602 
 347   0.0000       1.897568        51.6354 
 348   0.0000       1.914644        52.1001 
 349   0.0000       1.923020        52.3280 
 350   0.0000       1.928298        52.4717 
 351   0.0000       1.934318        52.6355 
 352   0.0000       1.937742        52.7286 
 353   0.0000       1.939218        52.7688 
 354   0.0000       1.963634        53.4332 
 355   0.0000       1.965131        53.4739 
 356   0.0000       1.974969        53.7416 
 357   0.0000       1.975090        53.7449 
 358   0.0000       1.987050        54.0704 
 359   0.0000       1.994680        54.2780 
 360   0.0000       1.999760        54.4162 
 361   0.0000       2.012686        54.7680 
 362   0.0000       2.021872        55.0179 
 363   0.0000       2.033390        55.3314 
 364   0.0000       2.059035        56.0292 
 365   0.0000       2.078091        56.5477 
 366   0.0000       2.089232        56.8509 
 367   0.0000       2.106868        57.3308 
 368   0.0000       2.109305        57.3971 
 369   0.0000       2.129290        57.9409 
 370   0.0000       2.131100        57.9902 
 371   0.0000       2.161561        58.8191 
 372   0.0000       2.167058        58.9686 
 373   0.0000       2.190823        59.6153 
 374   0.0000       2.195417        59.7403 
 375   0.0000       2.202487        59.9327 
 376   0.0000       2.207405        60.0665 
 377   0.0000       2.209605        60.1264 
 378   0.0000       2.211639        60.1817 
 379   0.0000       2.222453        60.4760 
 380   0.0000       2.228697        60.6459 
 381   0.0000       2.239270        60.9336 
 382   0.0000       2.245691        61.1084 
 383   0.0000       2.271883        61.8211 
 384   0.0000       2.279462        62.0273 
 385   0.0000       2.302533        62.6551 
 386   0.0000       2.302638        62.6580 
 387   0.0000       2.310179        62.8632 
 388   0.0000       2.316339        63.0308 
 389   0.0000       2.318276        63.0835 
 390   0.0000       2.325647        63.2841 
 391   0.0000       2.350316        63.9553 
 392   0.0000       2.363435        64.3123 
 393   0.0000       2.396023        65.1991 
 394   0.0000       2.399596        65.2963 
 395   0.0000       2.411242        65.6132 
 396   0.0000       2.412162        65.6383 
 397   0.0000       2.412755        65.6544 
 398   0.0000       2.417053        65.7713 
 399   0.0000       2.419541        65.8391 
 400   0.0000       2.422279        65.9136 
 401   0.0000       2.428725        66.0890 
 402   0.0000       2.443055        66.4789 
 403   0.0000       2.456075        66.8332 
 404   0.0000       2.476349        67.3849 
 405   0.0000       2.495828        67.9149 
 406   0.0000       2.516304        68.4721 
 407   0.0000       2.531813        68.8941 
 408   0.0000       2.533434        68.9382 
 409   0.0000       2.541942        69.1698 
 410   0.0000       2.551954        69.4422 
 411   0.0000       2.581548        70.2475 
 412   0.0000       2.588869        70.4467 
 413   0.0000       2.602910        70.8288 
 414   0.0000       2.619434        71.2784 
 415   0.0000       2.628359        71.5213 
 416   0.0000       2.651680        72.1559 
 417   0.0000       2.664477        72.5041 
 418   0.0000       2.710514        73.7568 
 419   0.0000       2.711696        73.7890 
 420   0.0000       2.713257        73.8315 
 421   0.0000       2.716342        73.9154 
 422   0.0000       2.720581        74.0308 
 423   0.0000       2.725702        74.1701 
 424   0.0000       2.747080        74.7519 
 425   0.0000       2.788660        75.8833 
 426   0.0000       2.824902        76.8695 
 427   0.0000       2.839911        77.2779 
 428   0.0000       2.882184        78.4282 
 429   0.0000       3.066519        83.4442 
 430   0.0000       3.084097        83.9226 
 431   0.0000       3.258175        88.6594 
 432   0.0000       3.586032        97.5809 

                 SPIN DOWN ORBITALS
  NO   OCC          E(Eh)            E(eV) 
   0   1.0000     -10.213925      -277.9350 
   1   1.0000     -10.207582      -277.7624 
   2   1.0000     -10.202183      -277.6155 
   3   1.0000     -10.199813      -277.5510 
   4   1.0000     -10.194664      -277.4109 
   5   1.0000     -10.194512      -277.4068 
   6   1.0000     -10.193644      -277.3831 
   7   1.0000     -10.193252      -277.3725 
   8   1.0000     -10.193146      -277.3696 
   9   1.0000     -10.192981      -277.3651 
  10   1.0000     -10.191677      -277.3296 
  11   1.0000     -10.189588      -277.2728 
  12   1.0000     -10.188055      -277.2311 
  13   1.0000     -10.186560      -277.1904 
  14   1.0000     -10.186023      -277.1758 
  15   1.0000     -10.183968      -277.1199 
  16   1.0000     -10.182767      -277.0872 
  17   1.0000     -10.182599      -277.0826 
  18   1.0000     -10.182411      -277.0775 
  19   1.0000     -10.182238      -277.0728 
  20   1.0000     -10.176323      -276.9118 
  21   1.0000     -10.176160      -276.9074 
  22   1.0000      -0.865004       -23.5380 
  23   1.0000      -0.860470       -23.4146 
  24   1.0000      -0.812109       -22.0986 
  25   1.0000      -0.795656       -21.6509 
  26   1.0000      -0.784506       -21.3475 
  27   1.0000      -0.768026       -20.8991 
  28   1.0000      -0.756233       -20.5782 
  29   1.0000      -0.748645       -20.3717 
  30   1.0000      -0.730395       -19.8751 
  31   1.0000      -0.709976       -19.3194 
  32   1.0000      -0.696247       -18.9458 
  33   1.0000      -0.651573       -17.7302 
  34   1.0000      -0.628749       -17.1091 
  35   1.0000      -0.615233       -16.7413 
  36   1.0000      -0.606726       -16.5098 
  37   1.0000      -0.600884       -16.3509 
  38   1.0000      -0.580519       -15.7967 
  39   1.0000      -0.572014       -15.5653 
  40   1.0000      -0.560980       -15.2650 
  41   1.0000      -0.533893       -14.5280 
  42   1.0000      -0.505034       -13.7427 
  43   1.0000      -0.477403       -12.9908 
  44   1.0000      -0.471321       -12.8253 
  45   1.0000      -0.470242       -12.7959 
  46   1.0000      -0.466773       -12.7016 
  47   1.0000      -0.455142       -12.3851 
  48   1.0000      -0.434713       -11.8291 
  49   1.0000      -0.433424       -11.7941 
  50   1.0000      -0.425351       -11.5744 
  51   1.0000      -0.422463       -11.4958 
  52   1.0000      -0.422027       -11.4839 
  53   1.0000      -0.421897       -11.4804 
  54   1.0000      -0.416945       -11.3457 
  55   1.0000      -0.411818       -11.2061 
  56   1.0000      -0.406900       -11.0723 
  57   1.0000      -0.381219       -10.3735 
  58   1.0000      -0.374398       -10.1879 
  59   1.0000      -0.371686       -10.1141 
  60   1.0000      -0.365020        -9.9327 
  61   1.0000      -0.361405        -9.8343 
  62   1.0000      -0.357600        -9.7308 
  63   1.0000      -0.356818        -9.7095 
  64   1.0000      -0.348164        -9.4740 
  65   1.0000      -0.340711        -9.2712 
  66   1.0000      -0.333386        -9.0719 
  67   1.0000      -0.330447        -8.9919 
  68   1.0000      -0.326770        -8.8919 
  69   1.0000      -0.324577        -8.8322 
  70   1.0000      -0.322788        -8.7835 
  71   1.0000      -0.321107        -8.7378 
  72   1.0000      -0.310630        -8.4527 
  73   1.0000      -0.265339        -7.2202 
  74   1.0000      -0.265130        -7.2146 
  75   1.0000      -0.256575        -6.9818 
  76   1.0000      -0.242243        -6.5918 
  77   1.0000      -0.205474        -5.5912 
  78   0.0000      -0.077386        -2.1058 
  79   0.0000      -0.045336        -1.2337 
  80   0.0000      -0.008284        -0.2254 
  81   0.0000      -0.003588        -0.0976 
  82   0.0000       0.011123         0.3027 
  83   0.0000       0.048575         1.3218 
  84   0.0000       0.055963         1.5228 
  85   0.0000       0.061348         1.6694 
  86   0.0000       0.064370         1.7516 
  87   0.0000       0.079814         2.1718 
  88   0.0000       0.085445         2.3251 
  89   0.0000       0.085542         2.3277 
  90   0.0000       0.089879         2.4457 
  91   0.0000       0.093344         2.5400 
  92   0.0000       0.094707         2.5771 
  93   0.0000       0.102432         2.7873 
  94   0.0000       0.106847         2.9075 
  95   0.0000       0.114587         3.1181 
  96   0.0000       0.127044         3.4570 
  97   0.0000       0.129677         3.5287 
  98   0.0000       0.138212         3.7609 
  99   0.0000       0.142946         3.8897 
 100   0.0000       0.143388         3.9018 
 101   0.0000       0.145048         3.9470 
 102   0.0000       0.153511         4.1772 
 103   0.0000       0.156800         4.2667 
 104   0.0000       0.159169         4.3312 
 105   0.0000       0.161180         4.3859 
 106   0.0000       0.162622         4.4252 
 107   0.0000       0.166256         4.5241 
 108   0.0000       0.173603         4.7240 
 109   0.0000       0.176879         4.8131 
 110   0.0000       0.187383         5.0990 
 111   0.0000       0.207562         5.6480 
 112   0.0000       0.210254         5.7213 
 113   0.0000       0.212995         5.7959 
 114   0.0000       0.215105         5.8533 
 115   0.0000       0.224524         6.1096 
 116   0.0000       0.227433         6.1888 
 117   0.0000       0.234512         6.3814 
 118   0.0000       0.239849         6.5266 
 119   0.0000       0.268624         7.3096 
 120   0.0000       0.275531         7.4976 
 121   0.0000       0.281138         7.6502 
 122   0.0000       0.286591         7.7985 
 123   0.0000       0.294098         8.0028 
 124   0.0000       0.312751         8.5104 
 125   0.0000       0.314807         8.5663 
 126   0.0000       0.337134         9.1739 
 127   0.0000       0.353379         9.6159 
 128   0.0000       0.357703         9.7336 
 129   0.0000       0.368684        10.0324 
 130   0.0000       0.382484        10.4079 
 131   0.0000       0.402487        10.9522 
 132   0.0000       0.411756        11.2045 
 133   0.0000       0.412220        11.2171 
 134   0.0000       0.416096        11.3225 
 135   0.0000       0.419532        11.4160 
 136   0.0000       0.420319        11.4375 
 137   0.0000       0.431402        11.7390 
 138   0.0000       0.436294        11.8722 
 139   0.0000       0.446108        12.1392 
 140   0.0000       0.449764        12.2387 
 141   0.0000       0.453815        12.3489 
 142   0.0000       0.458150        12.4669 
 143   0.0000       0.472796        12.8654 
 144   0.0000       0.474774        12.9193 
 145   0.0000       0.482327        13.1248 
 146   0.0000       0.484046        13.1715 
 147   0.0000       0.489971        13.3328 
 148   0.0000       0.492928        13.4132 
 149   0.0000       0.494969        13.4688 
 150   0.0000       0.507007        13.7964 
 151   0.0000       0.510066        13.8796 
 152   0.0000       0.512167        13.9368 
 153   0.0000       0.514750        14.0071 
 154   0.0000       0.517025        14.0690 
 155   0.0000       0.517451        14.0806 
 156   0.0000       0.522995        14.2314 
 157   0.0000       0.528496        14.3811 
 158   0.0000       0.530095        14.4246 
 159   0.0000       0.546858        14.8808 
 160   0.0000       0.550060        14.9679 
 161   0.0000       0.555186        15.1074 
 162   0.0000       0.573529        15.6065 
 163   0.0000       0.573845        15.6151 
 164   0.0000       0.583079        15.8664 
 165   0.0000       0.587432        15.9848 
 166   0.0000       0.596641        16.2354 
 167   0.0000       0.597712        16.2646 
 168   0.0000       0.602597        16.3975 
 169   0.0000       0.616944        16.7879 
 170   0.0000       0.618727        16.8364 
 171   0.0000       0.625040        17.0082 
 172   0.0000       0.625362        17.0170 
 173   0.0000       0.630317        17.1518 
 174   0.0000       0.635108        17.2822 
 175   0.0000       0.637948        17.3595 
 176   0.0000       0.641863        17.4660 
 177   0.0000       0.643680        17.5154 
 178   0.0000       0.643872        17.5206 
 179   0.0000       0.653783        17.7903 
 180   0.0000       0.655401        17.8344 
 181   0.0000       0.659284        17.9400 
 182   0.0000       0.659965        17.9586 
 183   0.0000       0.661110        17.9897 
 184   0.0000       0.661955        18.0127 
 185   0.0000       0.670874        18.2554 
 186   0.0000       0.672816        18.3083 
 187   0.0000       0.675597        18.3839 
 188   0.0000       0.676518        18.4090 
 189   0.0000       0.681145        18.5349 
 190   0.0000       0.685521        18.6540 
 191   0.0000       0.688281        18.7291 
 192   0.0000       0.693194        18.8628 
 193   0.0000       0.694079        18.8868 
 194   0.0000       0.699685        19.0394 
 195   0.0000       0.704446        19.1689 
 196   0.0000       0.706407        19.2223 
 197   0.0000       0.709829        19.3154 
 198   0.0000       0.716238        19.4898 
 199   0.0000       0.724332        19.7101 
 200   0.0000       0.725669        19.7465 
 201   0.0000       0.738001        20.0820 
 202   0.0000       0.739729        20.1291 
 203   0.0000       0.747273        20.3343 
 204   0.0000       0.752023        20.4636 
 205   0.0000       0.769130        20.9291 
 206   0.0000       0.778300        21.1786 
 207   0.0000       0.795208        21.6387 
 208   0.0000       0.812194        22.1009 
 209   0.0000       0.815884        22.2013 
 210   0.0000       0.826810        22.4987 
 211   0.0000       0.835189        22.7266 
 212   0.0000       0.839521        22.8445 
 213   0.0000       0.840020        22.8581 
 214   0.0000       0.857813        23.3423 
 215   0.0000       0.866248        23.5718 
 216   0.0000       0.873897        23.7799 
 217   0.0000       0.892548        24.2875 
 218   0.0000       0.897121        24.4119 
 219   0.0000       0.903650        24.5896 
 220   0.0000       0.913624        24.8610 
 221   0.0000       0.925373        25.1807 
 222   0.0000       0.940161        25.5831 
 223   0.0000       0.942892        25.6574 
 224   0.0000       0.950497        25.8643 
 225   0.0000       0.967749        26.3338 
[...]
  Y          -0.3899329           -0.0019516            0.9208412
  Z          -0.0013459            0.9999979            0.0015495

Notes:  (1) The A matrix conforms to the "SAI" spin Hamiltonian convention.
        (2) Tensor is right-handed.

 -----------------------------------------------------------
 Nucleus  44H : A:ISTP=    1 I=  0.5 P=533.5514 MHz/au**3
                Q:ISTP=    2 I=  1.0 Q=  0.0029 barn     
 -----------------------------------------------------------
 Solving for nuclear perturbation:
Forming RHS of the CP-SCF equations         ... 
Calc. nucleus orbit integrals (SHARK)       ... done

------------------------------------------------------------------------------
                           ORCA CP-SCF CALCULATION
------------------------------------------------------------------------------

Input orbitals are from        ... cc-pVDZ.gbw
Input Perturbation             ... cc-pVDZ.pin.tmp
Wavefunction output            ... cc-pVDZ.pout.tmp
Perturbation mode              ... Imaginary perturbation
Solver                         ... POPLE
Max. number of iterations      ... 64
Convergence tolerance          ... 1.000e-03
Integral handling              ... Direct
DFT GridXC                     ... 1
COSX GridX                     ... 1
COSX IntAccX                   ... 3.067
COSX Algorithm                 ... Auto
Number of perturbations        ... 3
Number of operators            ... 2
Orbital ranges used for CP-SCF:
 Operator 0:  Orbitals   0... 78  to  79...432
 Operator 1:  Orbitals   0... 77  to  78...432
Variables per perturbation     ... 55656
DFT calculation                         ... on
XC functional terms                     ... off
Hybrid DFT                              ... on
   Exchange mixing (SCF)                ...  0.200
   Exchange mixing (CP-SCF)             ...  0.200
   GGA exch. scaling(SCF)               ...  0.720
   GGA exch. scaling (CP-SCF)           ...  0.720
   GGA corr. scaling (SCF)              ...  0.810
   GGA corr. scaling (CP-SCF)           ...  0.810

CP-SCF GRID
-----------

General Integration Accuracy     IntAcc      ... 3.467
Radial Grid Type                 RadialGrid  ... OptM3 with GC (2021)
Angular Grid (max. ang.)         AngularGrid ... 1 (Lebedev-50)
Angular grid pruning method      GridPruning ... 4 (adaptive)
Weight generation scheme         WeightScheme... Becke
Basis function cutoff            BFCut       ... 1.0000e-10
Integration weight cutoff        WCut        ... 1.0000e-14
Angular grids for H and He will be reduced by one unit
Partially contracted basis set               ... off
Rotationally invariant grid construction     ... off

Total number of grid points                  ...    30031
Total number of batches                      ...      489
Average number of points per batch           ...       61
Average number of grid points per atom       ...      639

CP-SCF GRIDX
------------

General Integration Accuracy     IntAcc      ... 3.067
Radial Grid Type                 RadialGrid  ... OptM3 with GC (2021)
Angular Grid (max. ang.)         AngularGrid ... 1 (Lebedev-50)
Angular grid pruning method      GridPruning ... 4 (adaptive)
Weight generation scheme         WeightScheme... Becke
Basis function cutoff            BFCut       ... 1.0000e-10
Integration weight cutoff        WCut        ... 1.0000e-14
Angular grids for H and He will be reduced by one unit
Partially contracted basis set               ... on
Rotationally invariant grid construction     ... off

Total number of grid points                  ...    14122
Total number of batches                      ...      250
Average number of points per batch           ...       56
Average number of grid points per atom       ...      300

Memory available               ... 886.1 MB
Memory needed per perturbation ...  11.8 MB
Perturbations treated per batch... 3
Number of batches              ... 1
     CP-SCF ITERATION   0:   4.5251e-02 (   1.6 sec   0/  3 done)
     CP-SCF ITERATION   1:   1.8842e-03 (   1.7 sec   0/  3 done)
     CP-SCF ITERATION   2:   1.3131e-04 (   1.8 sec   3/  3 done)
                    *** THE CP-SCF HAS CONVERGED ***

Forming final perturbed densities           ... done
Transforming perturbed density to AO basis  ... done

 Raw HFC matrix (all values in MHz): 
 -----------------------------------
                 0.7369              -0.2681              -0.0002
                -0.2680               0.0244              -0.0004
                -0.0002              -0.0004               0.1345

 A(FC)           0.2986               0.2986               0.2986
 A(SD)          -0.3639              -0.1642               0.5280
 A(ORB+DIA)      0.0001               0.0000              -0.0001    A(PC) =  -0.0000
 A(ORB)         -0.0000              -0.0002              -0.0002    A(PC) =  -0.0001
 A(DIA)          0.0001               0.0002               0.0000    A(PC) =   0.0001
             ----------           ----------           ----------
 A(Tot)         -0.0652               0.1345               0.8265    A(iso)=    0.2986
 Orientation: 
  X          -0.3169961           -0.0005324           -0.9484267
  Y          -0.9484245           -0.0020396            0.3169965
  Z          -0.0021032            0.9999978            0.0001416

Notes:  (1) The A matrix conforms to the "SAI" spin Hamiltonian convention.
        (2) Tensor is right-handed.

 -----------------------------------------------------------
 Nucleus  45H : A:ISTP=    1 I=  0.5 P=533.5514 MHz/au**3
                Q:ISTP=    2 I=  1.0 Q=  0.0029 barn     
 -----------------------------------------------------------
 Solving for nuclear perturbation:
Forming RHS of the CP-SCF equations         ... 
Calc. nucleus orbit integrals (SHARK)       ... done

------------------------------------------------------------------------------
                           ORCA CP-SCF CALCULATION
------------------------------------------------------------------------------

Input orbitals are from        ... cc-pVDZ.gbw
Input Perturbation             ... cc-pVDZ.pin.tmp
Wavefunction output            ... cc-pVDZ.pout.tmp
Perturbation mode              ... Imaginary perturbation
Solver                         ... POPLE
Max. number of iterations      ... 64
Convergence tolerance          ... 1.000e-03
Integral handling              ... Direct
DFT GridXC                     ... 1
COSX GridX                     ... 1
COSX IntAccX                   ... 3.067
COSX Algorithm                 ... Auto
Number of perturbations        ... 3
Number of operators            ... 2
Orbital ranges used for CP-SCF:
 Operator 0:  Orbitals   0... 78  to  79...432
 Operator 1:  Orbitals   0... 77  to  78...432
Variables per perturbation     ... 55656
DFT calculation                         ... on
XC functional terms                     ... off
Hybrid DFT                              ... on
   Exchange mixing (SCF)                ...  0.200
   Exchange mixing (CP-SCF)             ...  0.200
   GGA exch. scaling(SCF)               ...  0.720
   GGA exch. scaling (CP-SCF)           ...  0.720
   GGA corr. scaling (SCF)              ...  0.810
   GGA corr. scaling (CP-SCF)           ...  0.810

CP-SCF GRID
-----------

General Integration Accuracy     IntAcc      ... 3.467
Radial Grid Type                 RadialGrid  ... OptM3 with GC (2021)
Angular Grid (max. ang.)         AngularGrid ... 1 (Lebedev-50)
Angular grid pruning method      GridPruning ... 4 (adaptive)
Weight generation scheme         WeightScheme... Becke
Basis function cutoff            BFCut       ... 1.0000e-10
Integration weight cutoff        WCut        ... 1.0000e-14
Angular grids for H and He will be reduced by one unit
Partially contracted basis set               ... off
Rotationally invariant grid construction     ... off

Total number of grid points                  ...    30031
Total number of batches                      ...      489
Average number of points per batch           ...       61
Average number of grid points per atom       ...      639

CP-SCF GRIDX
------------

General Integration Accuracy     IntAcc      ... 3.067
Radial Grid Type                 RadialGrid  ... OptM3 with GC (2021)
Angular Grid (max. ang.)         AngularGrid ... 1 (Lebedev-50)
Angular grid pruning method      GridPruning ... 4 (adaptive)
Weight generation scheme         WeightScheme... Becke
Basis function cutoff            BFCut       ... 1.0000e-10
Integration weight cutoff        WCut        ... 1.0000e-14
Angular grids for H and He will be reduced by one unit
Partially contracted basis set               ... on
Rotationally invariant grid construction     ... off

Total number of grid points                  ...    14122
Total number of batches                      ...      250
Average number of points per batch           ...       56
Average number of grid points per atom       ...      300

Memory available               ... 885.6 MB
Memory needed per perturbation ...  11.8 MB
Perturbations treated per batch... 3
Number of batches              ... 1
     CP-SCF ITERATION   0:   4.5419e-02 (   1.7 sec   0/  3 done)
     CP-SCF ITERATION   1:   1.8960e-03 (   1.8 sec   0/  3 done)
     CP-SCF ITERATION   2:   1.3639e-04 (   1.8 sec   3/  3 done)
                    *** THE CP-SCF HAS CONVERGED ***

Forming final perturbed densities           ... done
Transforming perturbed density to AO basis  ... done

 Raw HFC matrix (all values in MHz): 
 -----------------------------------
                 0.7476               0.2294               0.0008
                 0.2293               0.0113              -0.0001
                 0.0008              -0.0001               0.1427

 A(FC)           0.3006               0.3006               0.3006
 A(SD)          -0.3549              -0.1579               0.5128
 A(ORB+DIA)      0.0000              -0.0000              -0.0001    A(PC) =  -0.0000
 A(ORB)         -0.0001              -0.0002              -0.0002    A(PC) =  -0.0001
 A(DIA)          0.0001               0.0002               0.0000    A(PC) =   0.0001
             ----------           ----------           ----------
 A(Tot)         -0.0543               0.1427               0.8132    A(iso)=    0.3005
 Orientation: 
  X           0.2750558            0.0005382            0.9614281
  Y          -0.9614266            0.0020376            0.2750542
  Z          -0.0018109           -0.9999978            0.0010779

Notes:  (1) The A matrix conforms to the "SAI" spin Hamiltonian convention.
        (2) Tensor is right-handed.

 -----------------------------------------------------------
 Nucleus  46H : A:ISTP=    1 I=  0.5 P=533.5514 MHz/au**3
                Q:ISTP=    2 I=  1.0 Q=  0.0029 barn     
 -----------------------------------------------------------
 Solving for nuclear perturbation:
Forming RHS of the CP-SCF equations         ... 
Calc. nucleus orbit integrals (SHARK)       ... done

------------------------------------------------------------------------------
                           ORCA CP-SCF CALCULATION
------------------------------------------------------------------------------

Input orbitals are from        ... cc-pVDZ.gbw
Input Perturbation             ... cc-pVDZ.pin.tmp
Wavefunction output            ... cc-pVDZ.pout.tmp
Perturbation mode              ... Imaginary perturbation
Solver                         ... POPLE
Max. number of iterations      ... 64
Convergence tolerance          ... 1.000e-03
Integral handling              ... Direct
DFT GridXC                     ... 1
COSX GridX                     ... 1
COSX IntAccX                   ... 3.067
COSX Algorithm                 ... Auto
Number of perturbations        ... 3
Number of operators            ... 2
Orbital ranges used for CP-SCF:
 Operator 0:  Orbitals   0... 78  to  79...432
 Operator 1:  Orbitals   0... 77  to  78...432
Variables per perturbation     ... 55656
DFT calculation                         ... on
XC functional terms                     ... off
Hybrid DFT                              ... on
   Exchange mixing (SCF)                ...  0.200
   Exchange mixing (CP-SCF)             ...  0.200
   GGA exch. scaling(SCF)               ...  0.720
   GGA exch. scaling (CP-SCF)           ...  0.720
   GGA corr. scaling (SCF)              ...  0.810
   GGA corr. scaling (CP-SCF)           ...  0.810

CP-SCF GRID
-----------

General Integration Accuracy     IntAcc      ... 3.467
Radial Grid Type                 RadialGrid  ... OptM3 with GC (2021)
Angular Grid (max. ang.)         AngularGrid ... 1 (Lebedev-50)
Angular grid pruning method      GridPruning ... 4 (adaptive)
Weight generation scheme         WeightScheme... Becke
Basis function cutoff            BFCut       ... 1.0000e-10
Integration weight cutoff        WCut        ... 1.0000e-14
Angular grids for H and He will be reduced by one unit
Partially contracted basis set               ... off
Rotationally invariant grid construction     ... off

Total number of grid points                  ...    30031
Total number of batches                      ...      489
Average number of points per batch           ...       61
Average number of grid points per atom       ...      639

CP-SCF GRIDX
------------

General Integration Accuracy     IntAcc      ... 3.067
Radial Grid Type                 RadialGrid  ... OptM3 with GC (2021)
Angular Grid (max. ang.)         AngularGrid ... 1 (Lebedev-50)
Angular grid pruning method      GridPruning ... 4 (adaptive)
Weight generation scheme         WeightScheme... Becke
Basis function cutoff            BFCut       ... 1.0000e-10
Integration weight cutoff        WCut        ... 1.0000e-14
Angular grids for H and He will be reduced by one unit
Partially contracted basis set               ... on
Rotationally invariant grid construction     ... off

Total number of grid points                  ...    14122
Total number of batches                      ...      250
Average number of points per batch           ...       56
Average number of grid points per atom       ...      300

Memory available               ... 885.1 MB
Memory needed per perturbation ...  11.8 MB
Perturbations treated per batch... 3
Number of batches              ... 1
     CP-SCF ITERATION   0:   4.1518e-02 (   1.7 sec   0/  3 done)
     CP-SCF ITERATION   1:   1.6687e-03 (   1.8 sec   2/  3 done)
     CP-SCF ITERATION   2:   7.3788e-05 (   1.2 sec   3/  3 done)
                    *** THE CP-SCF HAS CONVERGED ***

Forming final perturbed densities           ... done
Transforming perturbed density to AO basis  ... done

 Raw HFC matrix (all values in MHz): 
 -----------------------------------
                -0.0270              -0.0953              -0.0001
                -0.0953              -0.1856              -0.0001
                -0.0001              -0.0001              -0.1760

 A(FC)          -0.1296              -0.1296              -0.1296
 A(SD)           0.1473              -0.0464              -0.1008
 A(ORB+DIA)      0.0000               0.0000               0.0001    A(PC) =   0.0000
 A(ORB)         -0.0000              -0.0001               0.0000    A(PC) =  -0.0000
 A(DIA)          0.0000               0.0001               0.0001    A(PC) =   0.0001
             ----------           ----------           ----------
 A(Tot)          0.0177              -0.1760              -0.2303    A(iso)=   -0.1295
 Orientation: 
  X           0.9054568            0.0004906            0.4244381
  Y          -0.4244382            0.0018926            0.9054549
  Z          -0.0003591           -0.9999981            0.0019219

Notes:  (1) The A matrix conforms to the "SAI" spin Hamiltonian convention.
        (2) Tensor is right-handed.


--------------------------------------------------------------------------------
----------------------------------------------------------------------------
                           ORCA EULER ANGLE PROGRAM
----------------------------------------------------------------------------

Only g-tensor available        -->  using g-tensor as reference tensor

Reference tensor               ...  g

g-tensor ordering              ...  |g_min> --> |gx>
                                    |g_mid> --> |gy>
                                    |g_max> --> |gz>

A- and EFG-tensor ordering     ...  the axes |Ax>, |Qx>, |Ay>, etc. are assigned
                                    such that the Euler rotation is minimal. You
                                    can find the respective eigenvalues as Ax,
                                    EFGx, Ay, etc. in the tables below.
                                    The relation of |Ax>, |Ay>,  etc. to Amin, Amid, etc.
                                    (as printed in the ORCA EPR/NMR CALCULATION Output)
                                    is obtained in the detailed printout.

Euler rotation around          ...  z - y - z
   First rotation              -->  by alpha around z
   Second rotation             -->  by beta around y'
   Third rotation              -->  by gamma around z''
   Positive / Negative angle   -->  clockwise / counterclockwise rotation

Plot EFG-tensors                    (-)
Plot HFC-tensors                    (-)
Detailed Printout                   (-)

-------------------------------------------------------------------------
          Euler rotation of hyperfine tensor to g-tensor
-------------------------------------------------------------------------

-------------------------------------------------------------------
 Atom  |   Alpha    Beta    Gamma   |   Ax       Ay       Az 
       |          [degrees]         |           [MHz]         
-------------------------------------------------------------------
  7H       41.2      0.0      0.0      25.35    17.59    16.97
  8H       -8.9      0.0      0.0      59.34    41.22    40.40
 10H     -129.3     35.4    110.4       3.17    -6.54    -7.80
 11H       50.7     35.6    -69.7       3.15    -6.55    -7.80
 13H     -157.8     15.5    175.9       2.16    -0.75    -1.03
 14H       21.9     15.4     -3.9       2.15    -0.75    -1.03
 16H       60.9     22.7    -70.9       1.09    -0.55    -0.62
 17H     -119.2     22.8    109.1       1.09    -0.56    -0.62
 19H      -68.3     23.2     82.0       0.52    -0.28    -0.30
 20H      112.0     23.2    -98.2       0.52    -0.28    -0.30
 22H     -141.0     29.3    179.9       2.41     5.78     3.06
 23H       39.2     29.2     -0.3       2.41     5.77     3.05
 25H      -49.9     22.0     34.1       2.29    -0.55    -0.73
 26H      130.3     22.0   -146.1       2.29    -0.55    -0.73
 28H     -157.4     11.1    124.2       0.68    -0.35    -0.37
 29H       22.8     11.0    -56.0       0.68    -0.35    -0.37
 31H      137.0     11.1   -148.3       0.53    -0.25    -0.27
 32H      -43.2     11.0     31.9       0.53    -0.25    -0.27
 34H        0.2      0.0      0.0       0.49    -0.13    -0.15
 35H      -19.8      0.0      0.0       0.32    -0.18    -0.19
 42H       -1.8      0.0      0.0       0.46     0.24     0.26
 43H       23.6      0.0      0.0      -0.23     0.02    -0.18
 44H      -17.8      0.0      0.0      -0.07     0.83     0.13
 45H       16.7      0.0      0.0      -0.05     0.81     0.14
 46H      -24.4      0.0      0.0      -0.23     0.02    -0.18
-------------------------------------------------------------------


Maximum memory used throughout the entire EPRNMR-calculation: 201.1 MB

Timings for individual modules:

Sum of individual times         ...     3967.408 sec (=  66.123 min)
GTO integral calculation        ...        4.534 sec (=   0.076 min)   0.1 %
Spin-Orbit-Coupling Matrices    ...        8.371 sec (=   0.140 min)   0.2 %
SCF iterations                  ...       41.284 sec (=   0.688 min)   1.0 %
EPR/NMR calculation             ...     3913.218 sec (=  65.220 min)  98.6 %
                             ****ORCA TERMINATED NORMALLY****
TOTAL RUN TIME: 0 days 1 hours 6 minutes 11 seconds 565 msec
