
                                 *****************
                                 * O   R   C   A *
                                 *****************

                                            #,                                       
                                            ###                                      
                                            ####                                     
                                            #####                                    
                                            ######                                   
                                           ########,                                 
                                     ,,################,,,,,                         
                               ,,#################################,,                 
                          ,,##########################################,,             
                       ,#########################################, ''#####,          
                    ,#############################################,,   '####,        
                  ,##################################################,,,,####,       
                ,###########''''           ''''###############################       
              ,#####''   ,,,,##########,,,,          '''####'''          '####       
            ,##' ,,,,###########################,,,                        '##       
           ' ,,###''''                  '''############,,,                           
         ,,##''                                '''############,,,,        ,,,,,,###''
      ,#''                                            '''#######################'''  
     '                                                          ''''####''''         
             ,#######,   #######,   ,#######,      ##                                
            ,#'     '#,  ##    ##  ,#'     '#,    #''#        ######   ,####,        
            ##       ##  ##   ,#'  ##            #'  '#       #        #'  '#        
            ##       ##  #######   ##           ,######,      #####,   #    #        
            '#,     ,#'  ##    ##  '#,     ,#' ,#      #,         ##   #,  ,#        
             '#######'   ##     ##  '#######'  #'      '#     #####' # '####'        



                  #######################################################
                  #                        -***-                        #
                  #          Department of theory and spectroscopy      #
                  #    Directorship and core code : Frank Neese         #
                  #        Max Planck Institute fuer Kohlenforschung    #
                  #                Kaiser Wilhelm Platz 1               #
                  #                 D-45470 Muelheim/Ruhr               #
                  #                      Germany                        #
                  #                                                     #
                  #                  All rights reserved                #
                  #                        -***-                        #
                  #######################################################


                         Program Version 5.0.4 -  RELEASE  -


 With contributions from (in alphabetic order):
   Daniel Aravena         : Magnetic Suceptibility
   Michael Atanasov       : Ab Initio Ligand Field Theory (pilot matlab implementation)
   Alexander A. Auer      : GIAO ZORA, VPT2 properties, NMR spectrum
   Ute Becker             : Parallelization
   Giovanni Bistoni       : ED, misc. LED, open-shell LED, HFLD
   Martin Brehm           : Molecular dynamics
   Dmytro Bykov           : SCF Hessian
   Vijay G. Chilkuri      : MRCI spin determinant printing, contributions to CSF-ICE
   Dipayan Datta          : RHF DLPNO-CCSD density
   Achintya Kumar Dutta   : EOM-CC, STEOM-CC
   Dmitry Ganyushin       : Spin-Orbit,Spin-Spin,Magnetic field MRCI
   Miquel Garcia          : C-PCM and meta-GGA Hessian, CC/C-PCM, Gaussian charge scheme
   Yang Guo               : DLPNO-NEVPT2, F12-NEVPT2, CIM, IAO-localization
   Andreas Hansen         : Spin unrestricted coupled pair/coupled cluster methods
   Benjamin Helmich-Paris : MC-RPA, TRAH-SCF, COSX integrals
   Lee Huntington         : MR-EOM, pCC
   Robert Izsak           : Overlap fitted RIJCOSX, COSX-SCS-MP3, EOM
   Marcus Kettner         : VPT2
   Christian Kollmar      : KDIIS, OOCD, Brueckner-CCSD(T), CCSD density, CASPT2, CASPT2-K
   Simone Kossmann        : Meta GGA functionals, TD-DFT gradient, OOMP2, MP2 Hessian
   Martin Krupicka        : Initial AUTO-CI
   Lucas Lang             : DCDCAS
   Marvin Lechner         : AUTO-CI (C++ implementation), FIC-MRCC
   Dagmar Lenk            : GEPOL surface, SMD
   Dimitrios Liakos       : Extrapolation schemes; Compound Job, initial MDCI parallelization
   Dimitrios Manganas     : Further ROCIS development; embedding schemes
   Dimitrios Pantazis     : SARC Basis sets
   Anastasios Papadopoulos: AUTO-CI, single reference methods and gradients
   Taras Petrenko         : DFT Hessian,TD-DFT gradient, ASA, ECA, R-Raman, ABS, FL, XAS/XES, NRVS
   Peter Pinski           : DLPNO-MP2, DLPNO-MP2 Gradient
   Christoph Reimann      : Effective Core Potentials
   Marius Retegan         : Local ZFS, SOC
   Christoph Riplinger    : Optimizer, TS searches, QM/MM, DLPNO-CCSD(T), (RO)-DLPNO pert. Triples
   Tobias Risthaus        : Range-separated hybrids, TD-DFT gradient, RPA, STAB
   Michael Roemelt        : Original ROCIS implementation
   Masaaki Saitow         : Open-shell DLPNO-CCSD energy and density
   Barbara Sandhoefer     : DKH picture change effects
   Avijit Sen             : IP-ROCIS
   Kantharuban Sivalingam : CASSCF convergence, NEVPT2, FIC-MRCI
   Bernardo de Souza      : ESD, SOC TD-DFT
   Georgi Stoychev        : AutoAux, RI-MP2 NMR, DLPNO-MP2 response
   Willem Van den Heuvel  : Paramagnetic NMR
   Boris Wezisla          : Elementary symmetry handling
   Frank Wennmohs         : Technical directorship


 We gratefully acknowledge several colleagues who have allowed us to
 interface, adapt or use parts of their codes:
   Stefan Grimme, W. Hujo, H. Kruse, P. Pracht,  : VdW corrections, initial TS optimization,
                  C. Bannwarth, S. Ehlert          DFT functionals, gCP, sTDA/sTD-DF
   Ed Valeev, F. Pavosevic, A. Kumar             : LibInt (2-el integral package), F12 methods
   Garnet Chan, S. Sharma, J. Yang, R. Olivares  : DMRG
   Ulf Ekstrom                                   : XCFun DFT Library
   Mihaly Kallay                                 : mrcc  (arbitrary order and MRCC methods)
   Jiri Pittner, Ondrej Demel                    : Mk-CCSD
   Frank Weinhold                                : gennbo (NPA and NBO analysis)
   Christopher J. Cramer and Donald G. Truhlar   : smd solvation model
   Lars Goerigk                                  : TD-DFT with DH, B97 family of functionals
   V. Asgeirsson, H. Jonsson                     : NEB implementation
   FAccTs GmbH                                   : IRC, NEB, NEB-TS, DLPNO-Multilevel, CI-OPT
                                                   MM, QMMM, 2- and 3-layer-ONIOM, Crystal-QMMM,
                                                   LR-CPCM, SF, NACMEs, symmetry and pop. for TD-DFT,
                                                   nearIR, NL-DFT gradient (VV10), updates on ESD,
                                                   ML-optimized integration grids
   S Lehtola, MJT Oliveira, MAL Marques          : LibXC Library
   Liviu Ungur et al                             : ANISO software


 Your calculation uses the libint2 library for the computation of 2-el integrals
 For citations please refer to: http://libint.valeyev.net

 Your ORCA version has been built with support for libXC version: 5.1.0
 For citations please refer to: https://tddft.org/programs/libxc/

 This ORCA versions uses:
   CBLAS   interface :  Fast vector & matrix operations
   LAPACKE interface :  Fast linear algebra routines
   SCALAPACK package :  Parallel linear algebra routines
   Shared memory     :  Shared parallel matrices
   BLAS/LAPACK       :  OpenBLAS 0.3.15  USE64BITINT DYNAMIC_ARCH NO_AFFINITY SkylakeX SINGLE_THREADED
        Core in use  :  SkylakeX
   Copyright (c) 2011-2014, The OpenBLAS Project




***************************************
The coordinates will be read from file: opt.xyz
***************************************


================================================================================

----- Orbital basis set information -----
Your calculation utilizes the basis: cc-pVDZ 
       H, B-Ne : Obtained from the ccRepo (grant-hill.group.shef.ac.uk/ccrepo) Feb. 2017
                 T. H. Dunning, Jr., J. Chem. Phys. 90, 1007 (1989)
            He : Obtained from the ccRepo (grant-hill.group.shef.ac.uk/ccrepo) Feb. 2017
                 D. E. Woon, T. H. Dunning, Jr., J. Chem. Phys. 100, 2975 (1994)
  Li-Be, Na-Mg : Obtained from the ccRepo (grant-hill.group.shef.ac.uk/ccrepo) Feb. 2017
                 B. P. Prascher, D. E. Woon, K. A. Peterson, T. H. Dunning, Jr., A. K. Wilson, Theor. Chem. Acc. 128, 69 (2011)
         Al-Ar : Obtained from the ccRepo (grant-hill.group.shef.ac.uk/ccrepo) Feb. 2017
                 D. E. Woon, T. H. Dunning, Jr., J. Chem. Phys. 98, 1358 (1993)
            Ca : Obtained from the Peterson Research Group Website (tyr0.chem.wsu.edu/~kipeters) Feb. 2017
                 J. Koput, K. A. Peterson, J. Phys. Chem. 106, 9595 (2002)
         Sc-Zn : Obtained from the ccRepo (grant-hill.group.shef.ac.uk/ccrepo) Feb. 2017
                 N. B. Balabanov, K. A. Peterson, J. Chem. Phys. 123, 064107 (2005)
                 N. B. Balabanov, K. A. Peterson, J. Chem. Phys. 125, 074110 (2006)
         Ga-Kr : Obtained from the ccRepo (grant-hill.group.shef.ac.uk/ccrepo) Feb. 2017
                 A. K. Wilson, D. E. Woon, K. A. Peterson, T. H. Dunning, Jr., J. Chem. Phys. 110, 7667 (1999)

----- AuxJ basis set information -----
Your calculation utilizes the AutoAux generation procedure.
  G. L. Stoychev, A. A. Auer, F. Neese, J. Chem. Theory Comput. 13, 554 (2017)

----- AuxC basis set information -----
Your calculation utilizes the AutoAux generation procedure.
  G. L. Stoychev, A. A. Auer, F. Neese, J. Chem. Theory Comput. 13, 554 (2017)

----- AuxJK basis set information -----
Your calculation utilizes the AutoAux generation procedure.
  G. L. Stoychev, A. A. Auer, F. Neese, J. Chem. Theory Comput. 13, 554 (2017)

================================================================================
                                        WARNINGS
                       Please study these warnings very carefully!
================================================================================

WARNING: Old DensityContainer found on disk!
         Will remove this file - 
         If you want to keep old densities, please start your calculation with a different basename. 


WARNING: your system is open-shell and RHF/RKS was chosen
  ===> : WILL SWITCH to UHF/UKS


INFO   : the flag for use of the SHARK integral package has been found!

================================================================================
                                       INPUT FILE
================================================================================
NAME = cc-pVDZ_i.inp
|  1> ! B3LYP cc-pVDZ AUTOAUX
|  2> %pal nprocs 16 end
|  3> *XYZFile 0 2 opt.xyz
|  4> %EPRNMR
|  5>         GTENSOR   TRUE
|  6>         NUCLEI    = ALL H {SHIFT, AISO, ADIP, AORB}
|  7>         ORI       GIAO
|  8> END
|  9> 
| 10>                          ****END OF INPUT****
================================================================================

                       ****************************
                       * Single Point Calculation *
                       ****************************

---------------------------------
CARTESIAN COORDINATES (ANGSTROEM)
---------------------------------
  C      2.831806   -0.006236   -0.008272
  C     -1.314139   -0.014773   -0.012929
  C     -0.703841   -1.259958   -0.014279
  C      0.699293   -1.203568   -0.012429
  C      1.402358    0.023007   -0.009542
  C      0.708612    1.263431   -0.008102
  C     -0.699666    1.217589   -0.009942
  H      1.283513   -2.125515   -0.013363
  H     -1.285093    2.138713   -0.009038
  C     -1.509688   -2.548043   -0.017242
  H     -2.182378   -2.530206   -0.894243
  H     -2.180594   -2.535322    0.861245
  C     -0.708611   -3.852555   -0.021718
  H     -0.045377   -3.880501   -0.905977
  H     -0.045441   -3.886600    0.862377
  C     -1.603186   -5.097748   -0.025923
  H     -2.269586   -5.070311    0.856270
  H     -2.268554   -5.065066   -0.908715
  C     -0.811642   -6.407882   -0.029365
  H     -0.163127   -6.486668    0.860305
  H     -0.161649   -6.481086   -0.918435
  C      1.483960    2.566701   -0.004836
  H      2.159953    2.562804    0.870276
  H      2.160515    2.566853   -0.879537
  C      0.662999    3.858831   -0.002137
  H      0.000591    3.884733   -0.887173
  H     -0.000881    3.880108    0.881917
  C      1.540854    5.116159    0.001806
  H      2.206133    5.092323    0.884894
  H      2.207958    5.096581   -0.880007
  C      0.732381    6.415841    0.004122
  H      0.081081    6.481192    0.892854
  H      0.083265    6.485731   -0.885860
  C      4.053310   -0.041189   -0.009378
  H     -1.480462   -7.283854   -0.032687
  H      1.389551    7.300598    0.007195
  C      5.481187   -0.085650   -0.008586
  C      6.162322   -1.322563   -0.012255
  C      7.556386   -1.361278   -0.011394
  C      8.297343   -0.174069   -0.006934
  C      7.632552    1.057518   -0.003328
  C      6.238850    1.105969   -0.004137
  H      9.389310   -0.208771   -0.006270
  H      8.204901    1.988374    0.000175
  H      5.582883   -2.247731   -0.015759
  H      5.718665    2.065740   -0.001296
  H      8.069533   -2.326054   -0.014261

----------------------------
CARTESIAN COORDINATES (A.U.)
----------------------------
  NO LB      ZA    FRAG     MASS         X           Y           Z
   0 C     6.0000    0    12.011    5.351338   -0.011785   -0.015631
   1 C     6.0000    0    12.011   -2.483364   -0.027917   -0.024431
   2 C     6.0000    0    12.011   -1.330066   -2.380976   -0.026983
   3 C     6.0000    0    12.011    1.321473   -2.274413   -0.023487
   4 C     6.0000    0    12.011    2.650073    0.043478   -0.018032
   5 C     6.0000    0    12.011    1.339083    2.387539   -0.015311
   6 C     6.0000    0    12.011   -1.322177    2.300909   -0.018788
   7 H     1.0000    0     1.008    2.425488   -4.016642   -0.025253
   8 H     1.0000    0     1.008   -2.428474    4.041583   -0.017079
   9 C     6.0000    0    12.011   -2.852898   -4.815103   -0.032583
  10 H     1.0000    0     1.008   -4.124097   -4.781396   -1.689874
  11 H     1.0000    0     1.008   -4.120726   -4.791064    1.627518
  12 C     6.0000    0    12.011   -1.339080   -7.280273   -0.041042
  13 H     1.0000    0     1.008   -0.085750   -7.333084   -1.712048
  14 H     1.0000    0     1.008   -0.085871   -7.344609    1.629656
  15 C     6.0000    0    12.011   -3.029583   -9.633348   -0.048987
  16 H     1.0000    0     1.008   -4.288897   -9.581498    1.618115
  17 H     1.0000    0     1.008   -4.286946   -9.571588   -1.717223
  18 C     6.0000    0    12.011   -1.533781  -12.109141   -0.055493
  19 H     1.0000    0     1.008   -0.308266  -12.258027    1.625740
  20 H     1.0000    0     1.008   -0.305472  -12.247478   -1.735591
  21 C     6.0000    0    12.011    2.804278    4.850361   -0.009138
  22 H     1.0000    0     1.008    4.081720    4.842998    1.644584
  23 H     1.0000    0     1.008    4.082782    4.850648   -1.662084
  24 C     6.0000    0    12.011    1.252887    7.292135   -0.004038
  25 H     1.0000    0     1.008    0.001116    7.341081   -1.676515
  26 H     1.0000    0     1.008   -0.001665    7.332341    1.666581
  27 C     6.0000    0    12.011    2.911791    9.668140    0.003413
  28 H     1.0000    0     1.008    4.168988    9.623096    1.672208
  29 H     1.0000    0     1.008    4.172435    9.631142   -1.662972
  30 C     6.0000    0    12.011    1.384000   12.124183    0.007789
  31 H     1.0000    0     1.008    0.153221   12.247679    1.687249
  32 H     1.0000    0     1.008    0.157348   12.256256   -1.674034
  33 C     6.0000    0    12.011    7.659646   -0.077837   -0.017722
  34 H     1.0000    0     1.008   -2.797668  -13.764489   -0.061769
  35 H     1.0000    0     1.008    2.625870   13.796131    0.013597
  36 C     6.0000    0    12.011   10.357943   -0.161856   -0.016225
  37 C     6.0000    0    12.011   11.645101   -2.499282   -0.023159
  38 C     6.0000    0    12.011   14.279499   -2.572442   -0.021531
  39 C     6.0000    0    12.011   15.679706   -0.328942   -0.013103
  40 C     6.0000    0    12.011   14.423433    1.998419   -0.006290
  41 C     6.0000    0    12.011   11.789718    2.089978   -0.007818
  42 H     1.0000    0     1.008   17.743224   -0.394519   -0.011848
  43 H     1.0000    0     1.008   15.505016    3.757482    0.000330
  44 H     1.0000    0     1.008   10.550119   -4.247595   -0.029780
  45 H     1.0000    0     1.008   10.806712    3.903684   -0.002449
  46 H     1.0000    0     1.008   15.249208   -4.395604   -0.026950

--------------------------------
INTERNAL COORDINATES (ANGSTROEM)
--------------------------------
 C      0   0   0     0.000000000000     0.00000000     0.00000000
 C      1   0   0     4.145956972330     0.00000000     0.00000000
 C      2   1   0     1.386705572751    64.00736294     0.00000000
 C      3   2   1     1.404267951800   113.80917769     0.00000000
 C      4   3   2     1.413787197441   122.12254984     0.00000000
 C      5   4   3     1.421244947863   120.96152510     0.00000000
 C      2   1   3     1.377062606787    63.38045054   179.98672725
 H      4   3   2     1.091467392313   120.06006875   180.00610204
 H      7   2   1     1.091419179036   121.06025554   179.99031170
 C      3   2   1     1.519395131551   121.85854189   179.99808656
 H     10   3   2     1.105422690072   108.09656554    56.50943260
 H     10   3   2     1.105448549626   108.09435705   303.20586723
 C     10   3   2     1.530848508559   116.41604721   179.86468520
 H     13  10   3     1.105700237225   109.74058441   301.89712942
 H     13  10   3     1.105702136890   109.74013782    58.23028527
 C     13  10   3     1.533228643071   112.75261366   180.05856701
 H     16  13  10     1.105940861893   109.22236151   302.36419181
 H     16  13  10     1.105940819044   109.22117694    57.72338683
 C     16  13  10     1.530687250755   113.16674899   180.04284764
 H     19  16  13     1.103762615619   111.29155407    59.87662583
 H     19  16  13     1.103764246698   111.29080235   300.15912779
 C      6   5   4     1.516471559442   120.03309389   179.99259452
 H     22   6   5     1.105804072622   108.13345201   303.69586697
 H     22   6   5     1.105816078214   108.13311618    56.41713002
 C     22   6   5     1.530877596450   116.82062797   180.05506339
 H     25  22   6     1.105778211995   109.85295917   301.70259723
 H     25  22   6     1.105776140534   109.85320595    58.23059783
 C     25  22   6     1.533465937956   112.64776606   179.96973985
 H     28  25  22     1.105898182379   109.19355319   302.31931063
 H     28  25  22     1.105895613498   109.19346700    57.64583295
 C     28  25  22     1.530622738703   113.19389718   179.98322094
 H     31  28  25     1.103769590186   111.29474515    59.84551868
 H     31  28  25     1.103768522177   111.29528239   300.12698471
 C      1   2   3     1.222004700144   178.23912351     3.69132463
 H     19  16  13     1.102115396255   111.49874449   180.01907338
 H     31  28  25     1.102123287121   111.51248324   179.98555342
 C     34   1   5     1.428569279574   179.83309015   317.50147920
 C     37  34   1     1.412059114205   120.62367126    30.27733087
 C     38  37  34     1.394601310200   120.43094264   180.00345416
 C     39  38  37     1.399465157304   120.37816545     0.00000000
 C     40  39  38     1.399559028655   119.67181994     0.00000000
 C     41  40  39     1.394544231546   120.35030040     0.00000000
 H     40  39  38     1.092518596414   120.14873255   179.99977903
 H     41  40  39     1.092743427941   120.05497762   179.99924884
 H     38  37  34     1.091649007667   119.10064703     0.00000000
 H     42  41  40     1.091678109648   120.44798239   179.99797555
 H     39  38  37     1.092758465741   119.59829225   179.99953192

---------------------------
INTERNAL COORDINATES (A.U.)
---------------------------
 C      0   0   0     0.000000000000     0.00000000     0.00000000
 C      1   0   0     7.834723240724     0.00000000     0.00000000
 C      2   1   0     2.620493760881    64.00736294     0.00000000
 C      3   2   1     2.653681847544   113.80917769     0.00000000
 C      4   3   2     2.671670614808   122.12254984     0.00000000
 C      5   4   3     2.685763720680   120.96152510     0.00000000
 C      2   1   3     2.602271196091    63.38045054   179.98672725
 H      4   3   2     2.062574455578   120.06006875   180.00610204
 H      7   2   1     2.062483345686   121.06025554   179.99031170
 C      3   2   1     2.871240687844   121.85854189   179.99808656
 H     10   3   2     2.088946146458   108.09656554    56.50943260
 H     10   3   2     2.088995013933   108.09435705   303.20586723
 C     10   3   2     2.892884433698   116.41604721   179.86468520
 H     13  10   3     2.089470634567   109.74058441   301.89712942
 H     13  10   3     2.089474224414   109.74013782    58.23028527
 C     13  10   3     2.897382236087   112.75261366   180.05856701
 H     16  13  10     2.089925349290   109.22236151   302.36419181
 H     16  13  10     2.089925268318   109.22117694    57.72338683
 C     16  13  10     2.892579700612   113.16674899   180.04284764
 H     19  16  13     2.085809060381   111.29155407    59.87662583
 H     19  16  13     2.085812142674   111.29080235   300.15912779
 C      6   5   4     2.865715937226   120.03309389   179.99259452
 H     22   6   5     2.089666855030   108.13345201   303.69586697
 H     22   6   5     2.089689542312   108.13311618    56.41713002
 C     22   6   5     2.892939401846   116.82062797   180.05506339
 H     25  22   6     2.089617985527   109.85295917   301.70259723
 H     25  22   6     2.089614071033   109.85320595    58.23059783
 C     25  22   6     2.897830658434   112.64776606   179.96973985
 H     28  25  22     2.089844696697   109.19355319   302.31931063
 H     28  25  22     2.089839842217   109.19346700    57.64583295
 C     28  25  22     2.892457790501   113.19389718   179.98322094
 H     31  28  25     2.085822240402   111.29474515    59.84551868
 H     31  28  25     2.085820222158   111.29528239   300.12698471
 C      1   2   3     2.309254217638   178.23912351     3.69132463
 H     19  16  13     2.082696266900   111.49874449   180.01907338
 H     31  28  25     2.082711178476   111.51248324   179.98555342
 C     34   1   5     2.699604701728   179.83309015   317.50147920
 C     37  34   1     2.668405010756   120.62367126    30.27733087
 C     38  37  34     2.635414542286   120.43094264   180.00345416
 C     39  38  37     2.644605881270   120.37816545     0.00000000
 C     40  39  38     2.644783272414   119.67181994     0.00000000
 C     41  40  39     2.635306679262   120.35030040     0.00000000
 H     40  39  38     2.064560943438   120.14873255   179.99977903
 H     41  40  39     2.064985813450   120.05497762   179.99924884
 H     38  37  34     2.062917658858   119.10064703     0.00000000
 H     42  41  40     2.062972653632   120.44798239   179.99797555
 H     39  38  37     2.065014230774   119.59829225   179.99953192

---------------------
BASIS SET INFORMATION
---------------------
There are 2 groups of distinct atoms

 Group   1 Type C   : 17s4p1d contracted to 3s2p1d pattern {881/31/1}
 Group   2 Type H   : 4s1p contracted to 2s1p pattern {31/1}

Atom   0C    basis set group =>   1
Atom   1C    basis set group =>   1
Atom   2C    basis set group =>   1
Atom   3C    basis set group =>   1
Atom   4C    basis set group =>   1
Atom   5C    basis set group =>   1
Atom   6C    basis set group =>   1
Atom   7H    basis set group =>   2
Atom   8H    basis set group =>   2
Atom   9C    basis set group =>   1
Atom  10H    basis set group =>   2
Atom  11H    basis set group =>   2
Atom  12C    basis set group =>   1
Atom  13H    basis set group =>   2
Atom  14H    basis set group =>   2
Atom  15C    basis set group =>   1
Atom  16H    basis set group =>   2
Atom  17H    basis set group =>   2
Atom  18C    basis set group =>   1
Atom  19H    basis set group =>   2
Atom  20H    basis set group =>   2
Atom  21C    basis set group =>   1
Atom  22H    basis set group =>   2
Atom  23H    basis set group =>   2
Atom  24C    basis set group =>   1
Atom  25H    basis set group =>   2
Atom  26H    basis set group =>   2
Atom  27C    basis set group =>   1
Atom  28H    basis set group =>   2
Atom  29H    basis set group =>   2
Atom  30C    basis set group =>   1
Atom  31H    basis set group =>   2
Atom  32H    basis set group =>   2
Atom  33C    basis set group =>   1
Atom  34H    basis set group =>   2
Atom  35H    basis set group =>   2
Atom  36C    basis set group =>   1
Atom  37C    basis set group =>   1
Atom  38C    basis set group =>   1
Atom  39C    basis set group =>   1
Atom  40C    basis set group =>   1
Atom  41C    basis set group =>   1
Atom  42H    basis set group =>   2
Atom  43H    basis set group =>   2
Atom  44H    basis set group =>   2
Atom  45H    basis set group =>   2
Atom  46H    basis set group =>   2
---------------------------------
AUXILIARY/J BASIS SET INFORMATION
---------------------------------
There are 2 groups of distinct atoms

 Group   1 Type C   : 14s11p10d2f contracted to 14s11p10d2f pattern {11111111111111/11111111111/1111111111/11}
 Group   2 Type H   : 9s2p1d contracted to 9s2p1d pattern {111111111/11/1}

Atom   0C    basis set group =>   1
Atom   1C    basis set group =>   1
Atom   2C    basis set group =>   1
Atom   3C    basis set group =>   1
Atom   4C    basis set group =>   1
Atom   5C    basis set group =>   1
Atom   6C    basis set group =>   1
Atom   7H    basis set group =>   2
Atom   8H    basis set group =>   2
Atom   9C    basis set group =>   1
Atom  10H    basis set group =>   2
Atom  11H    basis set group =>   2
Atom  12C    basis set group =>   1
Atom  13H    basis set group =>   2
Atom  14H    basis set group =>   2
Atom  15C    basis set group =>   1
Atom  16H    basis set group =>   2
Atom  17H    basis set group =>   2
Atom  18C    basis set group =>   1
Atom  19H    basis set group =>   2
Atom  20H    basis set group =>   2
Atom  21C    basis set group =>   1
Atom  22H    basis set group =>   2
Atom  23H    basis set group =>   2
Atom  24C    basis set group =>   1
Atom  25H    basis set group =>   2
Atom  26H    basis set group =>   2
Atom  27C    basis set group =>   1
Atom  28H    basis set group =>   2
Atom  29H    basis set group =>   2
Atom  30C    basis set group =>   1
Atom  31H    basis set group =>   2
Atom  32H    basis set group =>   2
Atom  33C    basis set group =>   1
Atom  34H    basis set group =>   2
Atom  35H    basis set group =>   2
Atom  36C    basis set group =>   1
Atom  37C    basis set group =>   1
Atom  38C    basis set group =>   1
Atom  39C    basis set group =>   1
Atom  40C    basis set group =>   1
Atom  41C    basis set group =>   1
Atom  42H    basis set group =>   2
Atom  43H    basis set group =>   2
Atom  44H    basis set group =>   2
Atom  45H    basis set group =>   2
Atom  46H    basis set group =>   2
---------------------------------
AUXILIARY/C BASIS SET INFORMATION
---------------------------------
There are 2 groups of distinct atoms

 Group   1 Type C   : 14s11p10d2f contracted to 14s11p10d2f pattern {11111111111111/11111111111/1111111111/11}
 Group   2 Type H   : 9s2p1d contracted to 9s2p1d pattern {111111111/11/1}

Atom   0C    basis set group =>   1
Atom   1C    basis set group =>   1
Atom   2C    basis set group =>   1
Atom   3C    basis set group =>   1
Atom   4C    basis set group =>   1
Atom   5C    basis set group =>   1
Atom   6C    basis set group =>   1
Atom   7H    basis set group =>   2
Atom   8H    basis set group =>   2
Atom   9C    basis set group =>   1
Atom  10H    basis set group =>   2
Atom  11H    basis set group =>   2
Atom  12C    basis set group =>   1
Atom  13H    basis set group =>   2
Atom  14H    basis set group =>   2
Atom  15C    basis set group =>   1
Atom  16H    basis set group =>   2
Atom  17H    basis set group =>   2
Atom  18C    basis set group =>   1
Atom  19H    basis set group =>   2
Atom  20H    basis set group =>   2
Atom  21C    basis set group =>   1
Atom  22H    basis set group =>   2
Atom  23H    basis set group =>   2
Atom  24C    basis set group =>   1
Atom  25H    basis set group =>   2
Atom  26H    basis set group =>   2
Atom  27C    basis set group =>   1
Atom  28H    basis set group =>   2
Atom  29H    basis set group =>   2
Atom  30C    basis set group =>   1
Atom  31H    basis set group =>   2
Atom  32H    basis set group =>   2
Atom  33C    basis set group =>   1
Atom  34H    basis set group =>   2
Atom  35H    basis set group =>   2
Atom  36C    basis set group =>   1
Atom  37C    basis set group =>   1
Atom  38C    basis set group =>   1
Atom  39C    basis set group =>   1
Atom  40C    basis set group =>   1
Atom  41C    basis set group =>   1
Atom  42H    basis set group =>   2
Atom  43H    basis set group =>   2
Atom  44H    basis set group =>   2
Atom  45H    basis set group =>   2
Atom  46H    basis set group =>   2
----------------------------------
AUXILIARY/JK BASIS SET INFORMATION
----------------------------------
There are 2 groups of distinct atoms

 Group   1 Type C   : 14s11p10d2f contracted to 14s11p10d2f pattern {11111111111111/11111111111/1111111111/11}
 Group   2 Type H   : 9s2p1d contracted to 9s2p1d pattern {111111111/11/1}

Atom   0C    basis set group =>   1
Atom   1C    basis set group =>   1
Atom   2C    basis set group =>   1
Atom   3C    basis set group =>   1
Atom   4C    basis set group =>   1
Atom   5C    basis set group =>   1
Atom   6C    basis set group =>   1
Atom   7H    basis set group =>   2
Atom   8H    basis set group =>   2
Atom   9C    basis set group =>   1
Atom  10H    basis set group =>   2
Atom  11H    basis set group =>   2
Atom  12C    basis set group =>   1
Atom  13H    basis set group =>   2
Atom  14H    basis set group =>   2
Atom  15C    basis set group =>   1
Atom  16H    basis set group =>   2
Atom  17H    basis set group =>   2
Atom  18C    basis set group =>   1
Atom  19H    basis set group =>   2
Atom  20H    basis set group =>   2
Atom  21C    basis set group =>   1
Atom  22H    basis set group =>   2
Atom  23H    basis set group =>   2
Atom  24C    basis set group =>   1
Atom  25H    basis set group =>   2
Atom  26H    basis set group =>   2
Atom  27C    basis set group =>   1
Atom  28H    basis set group =>   2
Atom  29H    basis set group =>   2
Atom  30C    basis set group =>   1
Atom  31H    basis set group =>   2
Atom  32H    basis set group =>   2
Atom  33C    basis set group =>   1
Atom  34H    basis set group =>   2
Atom  35H    basis set group =>   2
Atom  36C    basis set group =>   1
Atom  37C    basis set group =>   1
Atom  38C    basis set group =>   1
Atom  39C    basis set group =>   1
Atom  40C    basis set group =>   1
Atom  41C    basis set group =>   1
Atom  42H    basis set group =>   2
Atom  43H    basis set group =>   2
Atom  44H    basis set group =>   2
Atom  45H    basis set group =>   2
Atom  46H    basis set group =>   2

Checking for AutoStart:
The File: cc-pVDZ_i.gbw exists
Trying to determine its content:
     ... Fine, the file contains calculation information
     ... Fine, the calculation information was read
     ... Fine, the file contains a basis set
     ... Fine, the basis set was read
     ... Fine, the file contains a geometry
     ... Fine, the geometry was read
     ... Fine, the file contains a set of orbitals
     ... Fine, the orbitals can be read
     => possible old guess file was deleted
     => GBW file was renamed to GES file
     => GES file is set as startup file
     => Guess is set to MORead
     ... now leaving AutoStart



           ************************************************************
           *        Program running with 16 parallel MPI-processes    *
           *              working on a common directory               *
           ************************************************************
------------------------------------------------------------------------------
                           ORCA GTO INTEGRAL CALCULATION
                           -- RI-GTO INTEGRALS CHOSEN --
------------------------------------------------------------------------------
------------------------------------------------------------------------------
                   ___                                                        
                  /   \      - P O W E R E D   B Y -                         
                 /     \                                                     
                 |  |  |   _    _      __       _____    __    __             
                 |  |  |  | |  | |    /  \     |  _  \  |  |  /  |          
                  \  \/   | |  | |   /    \    | | | |  |  | /  /          
                 / \  \   | |__| |  /  /\  \   | |_| |  |  |/  /          
                |  |  |   |  __  | /  /__\  \  |    /   |      \           
                |  |  |   | |  | | |   __   |  |    \   |  |\   \          
                \     /   | |  | | |  |  |  |  | |\  \  |  | \   \       
                 \___/    |_|  |_| |__|  |__|  |_| \__\ |__|  \__/        
                                                                              
                      - O R C A' S   B I G   F R I E N D -                    
                                      &                                       
                       - I N T E G R A L  F E E D E R -                       
                                                                              
 v1 FN, 2020, v2 2021                                                         
------------------------------------------------------------------------------


Reading SHARK input file cc-pVDZ_i.SHARKINP.tmp ... ok
----------------------
SHARK INTEGRAL PACKAGE
----------------------

Number of atoms                             ...     47
Number of basis functions                   ...    565
Number of shells                            ...    339
Maximum angular momentum                    ...      2
Integral batch strategy                     ... SHARK/LIBINT Hybrid
RI-J (if used) integral strategy            ... SPLIT-RIJ (Revised 2003 algorithm where possible)
Printlevel                                  ...      1
Contraction scheme used                     ... PARTIAL GENERAL contraction
Coulomb Range Separation                    ... NOT USED
Exchange Range Separation                   ... NOT USED
Finite Nucleus Model                        ... NOT USED
Auxiliary Coulomb fitting basis             ... AVAILABLE
   # of basis functions in Aux-J            ...   2942
   # of shells in Aux-J                     ...   1114
   Maximum angular momentum in Aux-J        ...      3
Auxiliary J/K fitting basis                 ... AVAILABLE
   # of basis functions in Aux-JK           ...   2942
   # of shells in Aux-JK                    ...   1114
   Maximum angular momentum in Aux-JK       ...      3
Auxiliary Correlation fitting basis         ... AVAILABLE
   # of basis functions in Aux-C            ...   2942
   # of shells in Aux-C                     ...   1114
   Maximum angular momentum in Aux-C        ...      3
Auxiliary 'external' fitting basis          ... NOT available
Integral threshold                          ...     1.000000e-10
Primitive cut-off                           ...     1.000000e-11
Primitive pair pre-selection threshold      ...     1.000000e-11

Calculating pre-screening integrals         ... done (  0.0 sec) Dimension = 339
Calculating pre-screening integrals (ORCA)  ... done (  0.1 sec) Dimension = 207
Organizing shell pair data                  ... done (  0.1 sec)
Shell pair information
Total number of shell pairs                 ...     57630
Shell pairs after pre-screening             ...     22994
Total number of primitive shell pairs       ...     94102
Primitive shell pairs kept                  ...     31334
          la=0 lb=0:  10053 shell pairs
          la=1 lb=0:   8098 shell pairs
          la=1 lb=1:   1439 shell pairs
          la=2 lb=0:   2404 shell pairs
          la=2 lb=1:    861 shell pairs
          la=2 lb=2:    139 shell pairs

Calculating one electron integrals          ... done (  0.0 sec)
Calculating RI/J V-Matrix + Cholesky decomp.... done (  0.7 sec)
Calculating RI/JK V-Matrix + Cholesky decomp... done (  0.5 sec)
Calculating RI/C V-Matrix + Cholesky decomp.... done (  0.5 sec)
Calculating Nuclear repulsion               ... done (  0.0 sec) ENN=   1524.480174178007 Eh

SHARK setup successfully completed in   2.5 seconds

Maximum memory used throughout the entire GTOINT-calculation: 37.1 MB


           ************************************************************
           *        Program running with 16 parallel MPI-processes    *
           *              working on a common directory               *
           ************************************************************
-------------------------------------------------------------------------------
                                 ORCA SCF
-------------------------------------------------------------------------------

------------
SCF SETTINGS
------------
Hamiltonian:
 Density Functional     Method          .... DFT(GTOs)
 Exchange Functional    Exchange        .... B88
   X-Alpha parameter    XAlpha          ....  0.666667
   Becke's b parameter  XBeta           ....  0.004200
 Correlation Functional Correlation     .... LYP
 LDA part of GGA corr.  LDAOpt          .... VWN-5
 Gradients option       PostSCFGGA      .... off
 Hybrid DFT is turned on
   Fraction HF Exchange ScalHFX         ....  0.200000
   Scaling of DF-GGA-X  ScalDFX         ....  0.720000
   Scaling of DF-GGA-C  ScalDFC         ....  0.810000
   Scaling of DF-LDA-C  ScalLDAC        ....  1.000000
   Perturbative correction              ....  0.000000
   Density functional embedding theory  .... OFF
   NL short-range parameter             ....  4.800000
 RI-approximation to the Coulomb term is turned on
   Number of AuxJ basis functions       .... 2942
   RIJ-COSX (HFX calculated with COS-X)).... on


General Settings:
 Integral files         IntName         .... cc-pVDZ_i
 Hartree-Fock type      HFTyp           .... UHF
 Total Charge           Charge          ....    0
 Multiplicity           Mult            ....    2
 Number of Electrons    NEL             ....  157
 Basis Dimension        Dim             ....  433
 Nuclear Repulsion      ENuc            ....   1524.4801741780 Eh

Convergence Acceleration:
 DIIS                   CNVDIIS         .... on
   Start iteration      DIISMaxIt       ....    12
   Startup error        DIISStart       ....  0.200000
   # of expansion vecs  DIISMaxEq       ....     5
   Bias factor          DIISBfac        ....   1.050
   Max. coefficient     DIISMaxC        ....  10.000
 Trust-Rad. Augm. Hess. CNVTRAH         .... auto
   Auto Start mean grad. ratio tolernc. ....  1.125000
   Auto Start start iteration           ....     1
   Auto Start num. interpolation iter.  ....    10
   Max. Number of Micro iterations      ....    16
   Max. Number of Macro iterations      .... Maxiter - #DIIS iter
   Number of Davidson start vectors     ....     2
   Converg. threshold I  (grad. norm)   ....   5.000e-05
   Converg. threshold II (energy diff.) ....   1.000e-06
   Grad. Scal. Fac. for Micro threshold ....   0.100
   Minimum threshold for Micro iter.    ....   0.010
   NR start threshold (gradient norm)   ....   0.001
   Initial trust radius                 ....   0.400
   Minimum AH scaling param. (alpha)    ....   1.000
   Maximum AH scaling param. (alpha)    .... 1000.000
   Orbital update algorithm             .... Taylor
   White noise on init. David. guess    .... on
   Maximum white noise                  ....   0.010
   Quad. conv. algorithm                .... NR
 SOSCF                  CNVSOSCF        .... off
 Level Shifting         CNVShift        .... on
   Level shift para.    LevelShift      ....    0.2500
   Turn off err/grad.   ShiftErr        ....    0.0010
 Zerner damping         CNVZerner       .... off
 Static damping         CNVDamp         .... on
   Fraction old density DampFac         ....    0.7000
   Max. Damping (<1)    DampMax         ....    0.9800
   Min. Damping (>=0)   DampMin         ....    0.0000
   Turn off err/grad.   DampErr         ....    0.1000
 Fernandez-Rico         CNVRico         .... off

SCF Procedure:
 Maximum # iterations   MaxIter         ....   125
 SCF integral mode      SCFMode         .... Direct
   Integral package                     .... SHARK and LIBINT hybrid scheme
 Reset frequency        DirectResetFreq ....    20
 Integral Threshold     Thresh          ....  1.000e-10 Eh
 Primitive CutOff       TCut            ....  1.000e-11 Eh

Convergence Tolerance:
 Convergence Check Mode ConvCheckMode   .... Total+1el-Energy
 Convergence forced     ConvForced      .... 0
 Energy Change          TolE            ....  1.000e-06 Eh
 1-El. energy change                    ....  1.000e-03 Eh
 DIIS Error             TolErr          ....  1.000e-06


Diagonalization of the overlap matrix:
Smallest eigenvalue                        ... 5.295e-05
Time for diagonalization                   ...    0.034 sec
Threshold for overlap eigenvalues          ... 1.000e-08
Number of eigenvalues below threshold      ... 0
Time for construction of square roots      ...    0.040 sec
Total time needed                          ...    0.075 sec

---------------------
INITIAL GUESS: MOREAD
---------------------
Guess MOs are being read from file: cc-pVDZ_i.ges
Input Geometry matches current geometry (good)
Input basis set matches current basis set (good)
MOs were renormalized
MOs were reorthogonalized (Cholesky)
                      ------------------
                      INITIAL GUESS DONE (   0.2 sec)
                      ------------------
-------------------
DFT GRID GENERATION
-------------------

General Integration Accuracy     IntAcc      ... 4.388
Radial Grid Type                 RadialGrid  ... OptM3 with GC (2021)
Angular Grid (max. ang.)         AngularGrid ... 4 (Lebedev-302)
Angular grid pruning method      GridPruning ... 4 (adaptive)
Weight generation scheme         WeightScheme... Becke
Basis function cutoff            BFCut       ... 1.0000e-10
Integration weight cutoff        WCut        ... 1.0000e-14
Angular grids for H and He will be reduced by one unit
Partially contracted basis set               ... off
Rotationally invariant grid construction     ... off

Total number of grid points                  ...   211214
Total number of batches                      ...     3326
Average number of points per batch           ...       63
Average number of grid points per atom       ...     4494
Time for grid setup =    1.302 sec

--------------------
COSX GRID GENERATION
--------------------

GRIDX 1
-------
General Integration Accuracy     IntAcc      ... 3.816
Radial Grid Type                 RadialGrid  ... OptM3 with GC (2021)
Angular Grid (max. ang.)         AngularGrid ... 1 (Lebedev-50)
Angular grid pruning method      GridPruning ... 4 (adaptive)
Weight generation scheme         WeightScheme... Becke
Basis function cutoff            BFCut       ... 1.0000e-10
Integration weight cutoff        WCut        ... 1.0000e-14
Angular grids for H and He will be reduced by one unit
Partially contracted basis set               ... on
Rotationally invariant grid construction     ... off

Total number of grid points                  ...    26939
Total number of batches                      ...      446
Average number of points per batch           ...       60
Average number of grid points per atom       ...      573
UseSFitting                                  ... on

GRIDX 2
-------
General Integration Accuracy     IntAcc      ... 4.020
Radial Grid Type                 RadialGrid  ... OptM3 with GC (2021)
Angular Grid (max. ang.)         AngularGrid ... 2 (Lebedev-110)
Angular grid pruning method      GridPruning ... 4 (adaptive)
Weight generation scheme         WeightScheme... Becke
Basis function cutoff            BFCut       ... 1.0000e-10
Integration weight cutoff        WCut        ... 1.0000e-14
Angular grids for H and He will be reduced by one unit
Partially contracted basis set               ... on
Rotationally invariant grid construction     ... off

Total number of grid points                  ...    57171
Total number of batches                      ...      916
Average number of points per batch           ...       62
Average number of grid points per atom       ...     1216
UseSFitting                                  ... on

GRIDX 3
-------
General Integration Accuracy     IntAcc      ... 4.338
Radial Grid Type                 RadialGrid  ... OptM3 with GC (2021)
Angular Grid (max. ang.)         AngularGrid ... 3 (Lebedev-194)
Angular grid pruning method      GridPruning ... 4 (adaptive)
Weight generation scheme         WeightScheme... Becke
Basis function cutoff            BFCut       ... 1.0000e-10
Integration weight cutoff        WCut        ... 1.0000e-14
Angular grids for H and He will be reduced by one unit
Partially contracted basis set               ... on
Rotationally invariant grid construction     ... off

Total number of grid points                  ...   125073
Total number of batches                      ...     1980
Average number of points per batch           ...       63
Average number of grid points per atom       ...     2661
UseSFitting                                  ... on

Time for X-Grid setup             =    2.231 sec

 re-compute Schwartz prescreening matrix in partically contracted basis (1) ...done (   0.122 sec)
--------------
SCF ITERATIONS
--------------
ITER       Energy         Delta-E        Max-DP      RMS-DP      [F,P]     Damp
               ***  Starting incremental Fock matrix formation  ***
  0   -852.7515588891   0.000000000000 0.00001118  0.00000016  0.0000258 0.7000
                 **** Energy Check signals convergence ****

               *****************************************************
               *                     SUCCESS                       *
               *           SCF CONVERGED AFTER   1 CYCLES          *
               *****************************************************

Old exchange energy                            =    -24.574473636 Eh
New exchange energy                            =    -24.574582270 Eh
Exchange energy change after final integration =     -0.000108635 Eh
Total energy after final integration           =   -852.751667523 Eh
Final COS-X integration done in                =     6.370 sec

----------------
TOTAL SCF ENERGY
----------------

Total Energy       :         -852.75166752 Eh          -23204.55257 eV

Components:
Nuclear Repulsion  :         1524.48017418 Eh           41483.21451 eV
Electronic Energy  :        -2377.23184170 Eh          -64687.76708 eV
One Electron Energy:        -4176.86799925 Eh         -113658.35654 eV
Two Electron Energy:         1799.63615755 Eh           48970.58946 eV
Max COSX asymmetry :            0.00000055 Eh               0.00002 eV

Virial components:
Potential Energy   :        -1699.51432430 Eh          -46246.13587 eV
Kinetic Energy     :          846.76265678 Eh           23041.58330 eV
Virial Ratio       :            2.00707283


DFT components:
N(Alpha)           :       79.000191343969 electrons
N(Beta)            :       78.000188924446 electrons
N(Total)           :      157.000380268415 electrons
E(X)               :      -97.443874956714 Eh       
E(C)               :       -6.088277936618 Eh       
E(XC)              :     -103.532152893332 Eh       
DFET-embed. en.    :        0.000000000000 Eh       

---------------
SCF CONVERGENCE
---------------

  Last Energy change         ...    1.0798e-09  Tolerance :   1.0000e-06
  Last MAX-Density change    ...    2.3626e-06  Tolerance :   1.0000e-05
  Last RMS-Density change    ...    4.6755e-08  Tolerance :   1.0000e-06
  Last DIIS Error            ...    2.0914e-05  Tolerance :   1.0000e-06

             **** THE GBW FILE WAS UPDATED (cc-pVDZ_i.gbw) ****
             **** DENSITY cc-pVDZ_i.scfp WAS UPDATED ****
             **** ENERGY FILE WAS UPDATED (cc-pVDZ_i.en.tmp) ****
----------------------
UHF SPIN CONTAMINATION
----------------------

Warning: in a DFT calculation there is little theoretical justification to 
         calculate <S**2> as in Hartree-Fock theory. We will do it anyways
         but you should keep in mind that the values have only limited relevance

Expectation value of <S**2>     :     0.759051
Ideal value S*(S+1) for S=0.5   :     0.750000
Deviation                       :     0.009051

             **** THE GBW FILE WAS UPDATED (cc-pVDZ_i.gbw) ****
             **** DENSITY cc-pVDZ_i.scfp WAS UPDATED ****
----------------
ORBITAL ENERGIES
----------------
                 SPIN UP ORBITALS
  NO   OCC          E(Eh)            E(eV) 
   0   1.0000     -10.214010      -277.9373 
   1   1.0000     -10.207010      -277.7469 
   2   1.0000     -10.203604      -277.6542 
   3   1.0000     -10.203369      -277.6478 
   4   1.0000     -10.199712      -277.5483 
   5   1.0000     -10.194597      -277.4091 
   6   1.0000     -10.194447      -277.4050 
   7   1.0000     -10.194387      -277.4034 
   8   1.0000     -10.193613      -277.3823 
   9   1.0000     -10.193273      -277.3731 
  10   1.0000     -10.192962      -277.3646 
  11   1.0000     -10.191419      -277.3226 
  12   1.0000     -10.190032      -277.2849 
  13   1.0000     -10.186719      -277.1947 
  14   1.0000     -10.186074      -277.1772 
  15   1.0000     -10.183871      -277.1172 
  16   1.0000     -10.182768      -277.0872 
  17   1.0000     -10.182599      -277.0826 
  18   1.0000     -10.182420      -277.0777 
  19   1.0000     -10.182246      -277.0730 
  20   1.0000     -10.176330      -276.9120 
  21   1.0000     -10.176162      -276.9074 
  22   1.0000      -0.870701       -23.6930 
  23   1.0000      -0.860732       -23.4217 
  24   1.0000      -0.813859       -22.1462 
  25   1.0000      -0.795877       -21.6569 
  26   1.0000      -0.786787       -21.4096 
  27   1.0000      -0.769856       -20.9489 
  28   1.0000      -0.760154       -20.6848 
  29   1.0000      -0.748586       -20.3700 
  30   1.0000      -0.732268       -19.9260 
  31   1.0000      -0.712432       -19.3863 
  32   1.0000      -0.698276       -19.0010 
  33   1.0000      -0.652731       -17.7617 
  34   1.0000      -0.630632       -17.1604 
  35   1.0000      -0.617620       -16.8063 
  36   1.0000      -0.606751       -16.5105 
  37   1.0000      -0.605574       -16.4785 
  38   1.0000      -0.582027       -15.8377 
  39   1.0000      -0.577093       -15.7035 
  40   1.0000      -0.563182       -15.3250 
  41   1.0000      -0.534634       -14.5481 
  42   1.0000      -0.506519       -13.7831 
  43   1.0000      -0.477804       -13.0017 
  44   1.0000      -0.471878       -12.8405 
  45   1.0000      -0.471416       -12.8279 
  46   1.0000      -0.470335       -12.7985 
  47   1.0000      -0.455219       -12.3871 
  48   1.0000      -0.441091       -12.0027 
  49   1.0000      -0.434786       -11.8311 
  50   1.0000      -0.427551       -11.6343 
  51   1.0000      -0.423911       -11.5352 
  52   1.0000      -0.422494       -11.4966 
  53   1.0000      -0.421920       -11.4810 
  54   1.0000      -0.417062       -11.3488 
  55   1.0000      -0.413695       -11.2572 
  56   1.0000      -0.411822       -11.2062 
  57   1.0000      -0.381155       -10.3718 
  58   1.0000      -0.378479       -10.2989 
  59   1.0000      -0.372643       -10.1401 
  60   1.0000      -0.366052        -9.9608 
  61   1.0000      -0.364286        -9.9127 
  62   1.0000      -0.358001        -9.7417 
  63   1.0000      -0.356996        -9.7143 
  64   1.0000      -0.348154        -9.4737 
  65   1.0000      -0.341177        -9.2839 
  66   1.0000      -0.334043        -9.0898 
  67   1.0000      -0.331751        -9.0274 
  68   1.0000      -0.327320        -8.9068 
  69   1.0000      -0.324783        -8.8378 
  70   1.0000      -0.322871        -8.7858 
  71   1.0000      -0.322868        -8.7857 
  72   1.0000      -0.312216        -8.4958 
  73   1.0000      -0.268061        -7.2943 
  74   1.0000      -0.265666        -7.2291 
  75   1.0000      -0.256399        -6.9770 
  76   1.0000      -0.242176        -6.5899 
  77   1.0000      -0.235949        -6.4205 
  78   1.0000      -0.209135        -5.6908 
  79   0.0000      -0.049499        -1.3469 
  80   0.0000      -0.008127        -0.2211 
  81   0.0000      -0.003229        -0.0879 
  82   0.0000       0.006368         0.1733 
  83   0.0000       0.048467         1.3188 
  84   0.0000       0.055890         1.5208 
  85   0.0000       0.061330         1.6689 
  86   0.0000       0.064306         1.7499 
  87   0.0000       0.079628         2.1668 
  88   0.0000       0.083930         2.2839 
  89   0.0000       0.084195         2.2911 
  90   0.0000       0.089541         2.4365 
  91   0.0000       0.092804         2.5253 
  92   0.0000       0.094683         2.5765 
  93   0.0000       0.102380         2.7859 
  94   0.0000       0.105451         2.8695 
  95   0.0000       0.114527         3.1164 
  96   0.0000       0.126353         3.4382 
  97   0.0000       0.128844         3.5060 
  98   0.0000       0.137982         3.7547 
  99   0.0000       0.142529         3.8784 
 100   0.0000       0.142893         3.8883 
 101   0.0000       0.145004         3.9458 
 102   0.0000       0.153382         4.1737 
 103   0.0000       0.156708         4.2642 
 104   0.0000       0.158942         4.3250 
 105   0.0000       0.161161         4.3854 
 106   0.0000       0.161904         4.4056 
 107   0.0000       0.165857         4.5132 
 108   0.0000       0.173467         4.7203 
 109   0.0000       0.176275         4.7967 
 110   0.0000       0.184772         5.0279 
 111   0.0000       0.206107         5.6085 
 112   0.0000       0.208623         5.6769 
 113   0.0000       0.212664         5.7869 
 114   0.0000       0.213945         5.8217 
 115   0.0000       0.223429         6.0798 
 116   0.0000       0.225009         6.1228 
 117   0.0000       0.233826         6.3627 
 118   0.0000       0.239320         6.5122 
 119   0.0000       0.267129         7.2690 
 120   0.0000       0.273396         7.4395 
 121   0.0000       0.281142         7.6503 
 122   0.0000       0.285851         7.7784 
 123   0.0000       0.292628         7.9628 
 124   0.0000       0.309518         8.4224 
 125   0.0000       0.314279         8.5520 
 126   0.0000       0.332703         9.0533 
 127   0.0000       0.346050         9.4165 
 128   0.0000       0.354278         9.6404 
 129   0.0000       0.366752         9.9798 
 130   0.0000       0.381652        10.3853 
 131   0.0000       0.401703        10.9309 
 132   0.0000       0.403638        10.9836 
 133   0.0000       0.411669        11.2021 
 134   0.0000       0.412197        11.2165 
 135   0.0000       0.419497        11.4151 
 136   0.0000       0.420230        11.4350 
 137   0.0000       0.428938        11.6720 
 138   0.0000       0.433454        11.7949 
 139   0.0000       0.441845        12.0232 
 140   0.0000       0.446635        12.1535 
 141   0.0000       0.453923        12.3519 
 142   0.0000       0.454913        12.3788 
 143   0.0000       0.471415        12.8279 
 144   0.0000       0.474652        12.9159 
 145   0.0000       0.481475        13.1016 
 146   0.0000       0.482559        13.1311 
 147   0.0000       0.488209        13.2848 
 148   0.0000       0.490681        13.3521 
 149   0.0000       0.493683        13.4338 
 150   0.0000       0.506808        13.7909 
 151   0.0000       0.509135        13.8543 
 152   0.0000       0.512020        13.9328 
 153   0.0000       0.512065        13.9340 
 154   0.0000       0.516715        14.0605 
 155   0.0000       0.517106        14.0712 
 156   0.0000       0.519588        14.1387 
 157   0.0000       0.524642        14.2762 
 158   0.0000       0.528553        14.3827 
 159   0.0000       0.541469        14.7341 
 160   0.0000       0.548948        14.9376 
 161   0.0000       0.549879        14.9630 
 162   0.0000       0.566458        15.4141 
 163   0.0000       0.571505        15.5514 
 164   0.0000       0.581402        15.8207 
 165   0.0000       0.587260        15.9801 
 166   0.0000       0.593729        16.1562 
 167   0.0000       0.597248        16.2519 
 168   0.0000       0.601764        16.3748 
 169   0.0000       0.616576        16.7779 
 170   0.0000       0.616601        16.7786 
 171   0.0000       0.622049        16.9268 
 172   0.0000       0.623248        16.9594 
 173   0.0000       0.629796        17.1376 
 174   0.0000       0.634470        17.2648 
 175   0.0000       0.637885        17.3577 
 176   0.0000       0.640407        17.4264 
 177   0.0000       0.641774        17.4636 
 178   0.0000       0.643294        17.5049 
 179   0.0000       0.653379        17.7794 
 180   0.0000       0.653838        17.7918 
 181   0.0000       0.659101        17.9350 
 182   0.0000       0.659262        17.9394 
 183   0.0000       0.660896        17.9839 
 184   0.0000       0.661627        18.0038 
 185   0.0000       0.670307        18.2400 
 186   0.0000       0.672399        18.2969 
 187   0.0000       0.675587        18.3837 
 188   0.0000       0.676559        18.4101 
 189   0.0000       0.681100        18.5337 
 190   0.0000       0.683262        18.5925 
 191   0.0000       0.687711        18.7136 
 192   0.0000       0.691569        18.8185 
 193   0.0000       0.691919        18.8281 
 194   0.0000       0.698114        18.9966 
 195   0.0000       0.703103        19.1324 
 196   0.0000       0.704939        19.1824 
 197   0.0000       0.707343        19.2478 
 198   0.0000       0.715766        19.4770 
 199   0.0000       0.722681        19.6652 
 200   0.0000       0.725539        19.7429 
 201   0.0000       0.735014        20.0007 
 202   0.0000       0.736350        20.0371 
 203   0.0000       0.746191        20.3049 
 204   0.0000       0.751309        20.4441 
 205   0.0000       0.765435        20.8286 
 206   0.0000       0.777301        21.1514 
 207   0.0000       0.794248        21.6126 
 208   0.0000       0.810339        22.0505 
 209   0.0000       0.815098        22.1800 
 210   0.0000       0.824315        22.4308 
 211   0.0000       0.833891        22.6913 
 212   0.0000       0.838515        22.8172 
 213   0.0000       0.839776        22.8515 
 214   0.0000       0.857140        23.3240 
 215   0.0000       0.866186        23.5701 
 216   0.0000       0.873408        23.7666 
 217   0.0000       0.891641        24.2628 
 218   0.0000       0.893460        24.3123 
 219   0.0000       0.903696        24.5908 
 220   0.0000       0.913526        24.8583 
 221   0.0000       0.923737        25.1362 
 222   0.0000       0.939844        25.5745 
 223   0.0000       0.939905        25.5761 
 224   0.0000       0.948414        25.8077 
 225   0.0000       0.966102        26.2890 
 226   0.0000       0.972555        26.4646 
 227   0.0000       0.983046        26.7500 
 228   0.0000       0.984533        26.7905 
 229   0.0000       1.002402        27.2767 
 230   0.0000       1.008942        27.4547 
 231   0.0000       1.013310        27.5736 
 232   0.0000       1.016347        27.6562 
 233   0.0000       1.024377        27.8747 
 234   0.0000       1.041046        28.3283 
 235   0.0000       1.042540        28.3689 
 236   0.0000       1.046573        28.4787 
 237   0.0000       1.054357        28.6905 
 238   0.0000       1.060849        28.8672 
 239   0.0000       1.075623        29.2692 
 240   0.0000       1.079835        29.3838 
 241   0.0000       1.098333        29.8872 
 242   0.0000       1.115601        30.3570 
 243   0.0000       1.118349        30.4318 
 244   0.0000       1.124957        30.6116 
 245   0.0000       1.147699        31.2305 
 246   0.0000       1.152303        31.3558 
 247   0.0000       1.175511        31.9873 
 248   0.0000       1.192825        32.4584 
 249   0.0000       1.198689        32.6180 
 250   0.0000       1.205004        32.7898 
 251   0.0000       1.206083        32.8192 
 252   0.0000       1.209905        32.9232 
 253   0.0000       1.218294        33.1515 
 254   0.0000       1.220971        33.2243 
 255   0.0000       1.221217        33.2310 
 256   0.0000       1.223404        33.2905 
 257   0.0000       1.232579        33.5402 
 258   0.0000       1.273713        34.6595 
 259   0.0000       1.287913        35.0459 
 260   0.0000       1.296221        35.2720 
 261   0.0000       1.301995        35.4291 
 262   0.0000       1.310636        35.6642 
 263   0.0000       1.318708        35.8839 
 264   0.0000       1.332611        36.2622 
 265   0.0000       1.348156        36.6852 
 266   0.0000       1.353466        36.8297 
 267   0.0000       1.370160        37.2839 
 268   0.0000       1.395081        37.9621 
 269   0.0000       1.405920        38.2570 
 270   0.0000       1.422827        38.7171 
 271   0.0000       1.425928        38.8015 
 272   0.0000       1.426750        38.8238 
 273   0.0000       1.430470        38.9251 
 274   0.0000       1.437828        39.1253 
 275   0.0000       1.446938        39.3732 
 276   0.0000       1.473945        40.1081 
 277   0.0000       1.476473        40.1769 
 278   0.0000       1.476799        40.1858 
 279   0.0000       1.485245        40.4156 
 280   0.0000       1.485501        40.4225 
 281   0.0000       1.492256        40.6064 
 282   0.0000       1.499705        40.8091 
 283   0.0000       1.514933        41.2234 
 284   0.0000       1.531817        41.6829 
 285   0.0000       1.533846        41.7381 
 286   0.0000       1.544516        42.0284 
 287   0.0000       1.545015        42.0420 
 288   0.0000       1.569813        42.7168 
 289   0.0000       1.586954        43.1832 
 290   0.0000       1.593608        43.3643 
 291   0.0000       1.600366        43.5482 
 292   0.0000       1.601303        43.5737 
 293   0.0000       1.603773        43.6409 
 294   0.0000       1.608602        43.7723 
 295   0.0000       1.615405        43.9574 
 296   0.0000       1.615764        43.9672 
 297   0.0000       1.626088        44.2481 
 298   0.0000       1.628410        44.3113 
 299   0.0000       1.629005        44.3275 
 300   0.0000       1.632638        44.4263 
 301   0.0000       1.638614        44.5890 
 302   0.0000       1.640671        44.6449 
 303   0.0000       1.645595        44.7789 
 304   0.0000       1.646889        44.8141 
 305   0.0000       1.647949        44.8430 
 306   0.0000       1.652506        44.9670 
 307   0.0000       1.657718        45.1088 
 308   0.0000       1.669999        45.4430 
 309   0.0000       1.672437        45.5093 
 310   0.0000       1.680858        45.7385 
 311   0.0000       1.684091        45.8265 
 312   0.0000       1.685856        45.8745 
 313   0.0000       1.686263        45.8856 
 314   0.0000       1.694426        46.1077 
 315   0.0000       1.695828        46.1458 
 316   0.0000       1.697207        46.1833 
 317   0.0000       1.702818        46.3360 
 318   0.0000       1.708238        46.4835 
 319   0.0000       1.714665        46.6584 
 320   0.0000       1.720085        46.8059 
 321   0.0000       1.721341        46.8401 
 322   0.0000       1.729491        47.0618 
 323   0.0000       1.729649        47.0661 
 324   0.0000       1.742425        47.4138 
 325   0.0000       1.750764        47.6407 
 326   0.0000       1.763152        47.9778 
 327   0.0000       1.765716        48.0476 
 328   0.0000       1.770768        48.1850 
 329   0.0000       1.774902        48.2975 
 330   0.0000       1.779007        48.4092 
 331   0.0000       1.788318        48.6626 
 332   0.0000       1.790482        48.7215 
 333   0.0000       1.797789        48.9203 
 334   0.0000       1.801908        49.0324 
 335   0.0000       1.802016        49.0353 
 336   0.0000       1.817679        49.4616 
 337   0.0000       1.831252        49.8309 
 338   0.0000       1.837761        50.0080 
 339   0.0000       1.839980        50.0684 
 340   0.0000       1.841696        50.1151 
 341   0.0000       1.847442        50.2715 
 342   0.0000       1.849610        50.3304 
 343   0.0000       1.857253        50.5384 
 344   0.0000       1.860862        50.6366 
 345   0.0000       1.865255        50.7562 
 346   0.0000       1.876444        51.0606 
 347   0.0000       1.897557        51.6352 
 348   0.0000       1.914619        52.0994 
 349   0.0000       1.922991        52.3272 
 350   0.0000       1.928275        52.4710 
 351   0.0000       1.934307        52.6352 
 352   0.0000       1.937753        52.7289 
 353   0.0000       1.939246        52.7696 
 354   0.0000       1.963649        53.4336 
 355   0.0000       1.965147        53.4744 
 356   0.0000       1.974975        53.7418 
 357   0.0000       1.975110        53.7455 
 358   0.0000       1.987052        54.0704 
 359   0.0000       1.994687        54.2782 
 360   0.0000       1.999786        54.4169 
 361   0.0000       2.012680        54.7678 
 362   0.0000       2.021879        55.0181 
 363   0.0000       2.033370        55.3308 
 364   0.0000       2.059043        56.0294 
 365   0.0000       2.078106        56.5482 
 366   0.0000       2.089290        56.8525 
 367   0.0000       2.106849        57.3303 
 368   0.0000       2.109339        57.3980 
 369   0.0000       2.129351        57.9426 
 370   0.0000       2.131090        57.9899 
 371   0.0000       2.161618        58.8206 
 372   0.0000       2.167059        58.9687 
 373   0.0000       2.190823        59.6153 
 374   0.0000       2.195425        59.7405 
 375   0.0000       2.202466        59.9321 
 376   0.0000       2.207407        60.0666 
 377   0.0000       2.209606        60.1264 
 378   0.0000       2.211673        60.1827 
 379   0.0000       2.222444        60.4758 
 380   0.0000       2.228682        60.6455 
 381   0.0000       2.239255        60.9332 
 382   0.0000       2.245674        61.1079 
 383   0.0000       2.271867        61.8206 
 384   0.0000       2.279443        62.0268 
 385   0.0000       2.302527        62.6549 
 386   0.0000       2.302610        62.6572 
 387   0.0000       2.310170        62.8629 
 388   0.0000       2.316329        63.0305 
 389   0.0000       2.318293        63.0840 
 390   0.0000       2.325615        63.2832 
 391   0.0000       2.350368        63.9568 
 392   0.0000       2.363437        64.3124 
 393   0.0000       2.395995        65.1983 
 394   0.0000       2.399574        65.2957 
 395   0.0000       2.411197        65.6120 
 396   0.0000       2.412114        65.6370 
 397   0.0000       2.412724        65.6536 
 398   0.0000       2.417065        65.7717 
 399   0.0000       2.419514        65.8383 
 400   0.0000       2.422292        65.9139 
 401   0.0000       2.428785        66.0906 
 402   0.0000       2.443049        66.4787 
 403   0.0000       2.456079        66.8333 
 404   0.0000       2.476332        67.3844 
 405   0.0000       2.495803        67.9143 
 406   0.0000       2.516287        68.4717 
 407   0.0000       2.531820        68.8943 
 408   0.0000       2.533454        68.9388 
 409   0.0000       2.541957        69.1702 
 410   0.0000       2.551942        69.4419 
 411   0.0000       2.581588        70.2486 
 412   0.0000       2.588894        70.4474 
 413   0.0000       2.602910        70.8288 
 414   0.0000       2.619449        71.2788 
 415   0.0000       2.628336        71.5207 
 416   0.0000       2.651713        72.1568 
 417   0.0000       2.664538        72.5058 
 418   0.0000       2.710551        73.7578 
 419   0.0000       2.711711        73.7894 
 420   0.0000       2.713261        73.8316 
 421   0.0000       2.716391        73.9168 
 422   0.0000       2.720590        74.0310 
 423   0.0000       2.725721        74.1706 
 424   0.0000       2.747093        74.7522 
 425   0.0000       2.788620        75.8822 
 426   0.0000       2.824866        76.8685 
 427   0.0000       2.839916        77.2780 
 428   0.0000       2.882212        78.4290 
 429   0.0000       3.066543        83.4449 
 430   0.0000       3.084051        83.9213 
 431   0.0000       3.258191        88.6599 
 432   0.0000       3.586069        97.5819 

                 SPIN DOWN ORBITALS
  NO   OCC          E(Eh)            E(eV) 
   0   1.0000     -10.213946      -277.9356 
   1   1.0000     -10.207603      -277.7630 
   2   1.0000     -10.202225      -277.6167 
   3   1.0000     -10.199793      -277.5505 
   4   1.0000     -10.194661      -277.4108 
   5   1.0000     -10.194510      -277.4067 
   6   1.0000     -10.193638      -277.3830 
   7   1.0000     -10.193249      -277.3724 
   8   1.0000     -10.193173      -277.3703 
   9   1.0000     -10.192975      -277.3649 
  10   1.0000     -10.191666      -277.3293 
  11   1.0000     -10.189580      -277.2726 
  12   1.0000     -10.188017      -277.2300 
  13   1.0000     -10.186586      -277.1911 
  14   1.0000     -10.186027      -277.1759 
  15   1.0000     -10.183980      -277.1202 
  16   1.0000     -10.182763      -277.0871 
  17   1.0000     -10.182594      -277.0825 
  18   1.0000     -10.182411      -277.0775 
  19   1.0000     -10.182238      -277.0728 
  20   1.0000     -10.176326      -276.9119 
  21   1.0000     -10.176162      -276.9075 
  22   1.0000      -0.865010       -23.5381 
  23   1.0000      -0.860479       -23.4148 
  24   1.0000      -0.812118       -22.0988 
  25   1.0000      -0.795672       -21.6513 
  26   1.0000      -0.784513       -21.3477 
  27   1.0000      -0.768039       -20.8994 
  28   1.0000      -0.756240       -20.5783 
  29   1.0000      -0.748648       -20.3718 
  30   1.0000      -0.730406       -19.8754 
  31   1.0000      -0.709987       -19.3197 
  32   1.0000      -0.696251       -18.9460 
  33   1.0000      -0.651577       -17.7303 
  34   1.0000      -0.628757       -17.1093 
  35   1.0000      -0.615237       -16.7414 
  36   1.0000      -0.606729       -16.5099 
  37   1.0000      -0.600887       -16.3510 
  38   1.0000      -0.580516       -15.7966 
  39   1.0000      -0.572011       -15.5652 
  40   1.0000      -0.560970       -15.2648 
  41   1.0000      -0.533900       -14.5281 
  42   1.0000      -0.505040       -13.7428 
  43   1.0000      -0.477407       -12.9909 
  44   1.0000      -0.471329       -12.8255 
  45   1.0000      -0.470252       -12.7962 
  46   1.0000      -0.466779       -12.7017 
  47   1.0000      -0.455149       -12.3852 
  48   1.0000      -0.434717       -11.8293 
  49   1.0000      -0.433435       -11.7944 
  50   1.0000      -0.425356       -11.5745 
  51   1.0000      -0.422470       -11.4960 
  52   1.0000      -0.422033       -11.4841 
  53   1.0000      -0.421896       -11.4804 
  54   1.0000      -0.416950       -11.3458 
  55   1.0000      -0.411828       -11.2064 
  56   1.0000      -0.406905       -11.0725 
  57   1.0000      -0.381224       -10.3736 
  58   1.0000      -0.374415       -10.1884 
  59   1.0000      -0.371686       -10.1141 
  60   1.0000      -0.365022        -9.9327 
  61   1.0000      -0.361416        -9.8346 
  62   1.0000      -0.357605        -9.7309 
  63   1.0000      -0.356813        -9.7094 
  64   1.0000      -0.348162        -9.4740 
  65   1.0000      -0.340713        -9.2713 
  66   1.0000      -0.333387        -9.0719 
  67   1.0000      -0.330440        -8.9917 
  68   1.0000      -0.326778        -8.8921 
  69   1.0000      -0.324566        -8.8319 
  70   1.0000      -0.322777        -8.7832 
  71   1.0000      -0.321121        -8.7381 
  72   1.0000      -0.310632        -8.4527 
  73   1.0000      -0.265351        -7.2206 
  74   1.0000      -0.265127        -7.2145 
  75   1.0000      -0.256577        -6.9818 
  76   1.0000      -0.242250        -6.5920 
  77   1.0000      -0.205478        -5.5913 
  78   0.0000      -0.077374        -2.1055 
  79   0.0000      -0.045339        -1.2337 
  80   0.0000      -0.008282        -0.2254 
  81   0.0000      -0.003594        -0.0978 
  82   0.0000       0.011121         0.3026 
  83   0.0000       0.048567         1.3216 
  84   0.0000       0.055942         1.5223 
  85   0.0000       0.061351         1.6694 
  86   0.0000       0.064376         1.7518 
  87   0.0000       0.079796         2.1714 
  88   0.0000       0.085443         2.3250 
  89   0.0000       0.085551         2.3280 
  90   0.0000       0.089893         2.4461 
  91   0.0000       0.093347         2.5401 
  92   0.0000       0.094700         2.5769 
  93   0.0000       0.102427         2.7872 
  94   0.0000       0.106846         2.9074 
  95   0.0000       0.114609         3.1187 
  96   0.0000       0.127046         3.4571 
  97   0.0000       0.129669         3.5285 
  98   0.0000       0.138209         3.7609 
  99   0.0000       0.142946         3.8898 
 100   0.0000       0.143386         3.9017 
 101   0.0000       0.145047         3.9469 
 102   0.0000       0.153506         4.1771 
 103   0.0000       0.156795         4.2666 
 104   0.0000       0.159167         4.3312 
 105   0.0000       0.161169         4.3856 
 106   0.0000       0.162621         4.4252 
 107   0.0000       0.166245         4.5238 
 108   0.0000       0.173577         4.7233 
 109   0.0000       0.176877         4.8131 
 110   0.0000       0.187387         5.0991 
 111   0.0000       0.207563         5.6481 
 112   0.0000       0.210254         5.7213 
 113   0.0000       0.212999         5.7960 
 114   0.0000       0.215102         5.8532 
 115   0.0000       0.224527         6.1097 
 116   0.0000       0.227457         6.1894 
 117   0.0000       0.234543         6.3822 
 118   0.0000       0.239867         6.5271 
 119   0.0000       0.268611         7.3093 
 120   0.0000       0.275544         7.4979 
 121   0.0000       0.281137         7.6501 
 122   0.0000       0.286585         7.7984 
 123   0.0000       0.294098         8.0028 
 124   0.0000       0.312755         8.5105 
 125   0.0000       0.314794         8.5660 
 126   0.0000       0.337094         9.1728 
 127   0.0000       0.353379         9.6159 
 128   0.0000       0.357714         9.7339 
 129   0.0000       0.368691        10.0326 
 130   0.0000       0.382469        10.4075 
 131   0.0000       0.402489        10.9523 
 132   0.0000       0.411759        11.2045 
 133   0.0000       0.412220        11.2171 
 134   0.0000       0.416085        11.3222 
 135   0.0000       0.419538        11.4162 
 136   0.0000       0.420318        11.4374 
 137   0.0000       0.431376        11.7383 
 138   0.0000       0.436300        11.8723 
 139   0.0000       0.446127        12.1397 
 140   0.0000       0.449749        12.2383 
 141   0.0000       0.453813        12.3489 
 142   0.0000       0.458122        12.4661 
 143   0.0000       0.472793        12.8653 
 144   0.0000       0.474787        12.9196 
 145   0.0000       0.482334        13.1250 
 146   0.0000       0.484039        13.1714 
 147   0.0000       0.489976        13.3329 
 148   0.0000       0.492911        13.4128 
 149   0.0000       0.494973        13.4689 
 150   0.0000       0.507007        13.7964 
 151   0.0000       0.510068        13.8796 
 152   0.0000       0.512174        13.9370 
 153   0.0000       0.514756        14.0072 
 154   0.0000       0.517022        14.0689 
 155   0.0000       0.517444        14.0804 
 156   0.0000       0.523000        14.2316 
 157   0.0000       0.528525        14.3819 
 158   0.0000       0.530088        14.4244 
 159   0.0000       0.546858        14.8808 
 160   0.0000       0.550064        14.9680 
 161   0.0000       0.555211        15.1080 
 162   0.0000       0.573526        15.6064 
 163   0.0000       0.573864        15.6156 
 164   0.0000       0.583083        15.8665 
 165   0.0000       0.587422        15.9846 
 166   0.0000       0.596670        16.2362 
 167   0.0000       0.597713        16.2646 
 168   0.0000       0.602588        16.3973 
 169   0.0000       0.616930        16.7875 
 170   0.0000       0.618740        16.8368 
 171   0.0000       0.625056        17.0086 
 172   0.0000       0.625365        17.0171 
 173   0.0000       0.630324        17.1520 
 174   0.0000       0.635106        17.2821 
 175   0.0000       0.637944        17.3593 
 176   0.0000       0.641866        17.4661 
 177   0.0000       0.643675        17.5153 
 178   0.0000       0.643873        17.5207 
 179   0.0000       0.653779        17.7902 
 180   0.0000       0.655397        17.8343 
 181   0.0000       0.659276        17.9398 
 182   0.0000       0.659963        17.9585 
 183   0.0000       0.661111        17.9897 
 184   0.0000       0.661954        18.0127 
 185   0.0000       0.670874        18.2554 
 186   0.0000       0.672815        18.3082 
 187   0.0000       0.675593        18.3838 
 188   0.0000       0.676506        18.4087 
 189   0.0000       0.681127        18.5344 
 190   0.0000       0.685572        18.6554 
 191   0.0000       0.688256        18.7284 
 192   0.0000       0.693200        18.8629 
 193   0.0000       0.694080        18.8869 
 194   0.0000       0.699672        19.0391 
 195   0.0000       0.704441        19.1688 
 196   0.0000       0.706419        19.2226 
 197   0.0000       0.709832        19.3155 
 198   0.0000       0.716224        19.4894 
 199   0.0000       0.724310        19.7095 
 200   0.0000       0.725690        19.7470 
 201   0.0000       0.738023        20.0826 
 202   0.0000       0.739742        20.1294 
 203   0.0000       0.747266        20.3341 
 204   0.0000       0.752012        20.4633 
 205   0.0000       0.769125        20.9290 
 206   0.0000       0.778313        21.1790 
 207   0.0000       0.795183        21.6380 
 208   0.0000       0.812167        22.1002 
 209   0.0000       0.815883        22.2013 
 210   0.0000       0.826807        22.4986 
 211   0.0000       0.835188        22.7266 
 212   0.0000       0.839520        22.8445 
 213   0.0000       0.840021        22.8581 
 214   0.0000       0.857861        23.3436 
 215   0.0000       0.866266        23.5723 
 216   0.0000       0.873891        23.7798 
 217   0.0000       0.892537        24.2872 
 218   0.0000       0.897135        24.4123 
 219   0.0000       0.903651        24.5896 
 220   0.0000       0.913637        24.8613 
 221   0.0000       0.925370        25.1806 
 222   0.0000       0.940159        25.5830 
 223   0.0000       0.942883        25.6571 
 224   0.0000       0.950496        25.8643 
 225   0.0000       0.967719        26.3330 
 226   0.0000       0.974157        26.5082 
 227   0.0000       0.983504        26.7625 
 228   0.0000       0.985991        26.8302 
 229   0.0000       1.002435        27.2776 
 230   0.0000       1.011642        27.5282 
 231   0.0000       1.015962        27.6457 
 232   0.0000       1.017361        27.6838 
 233   0.0000       1.024916        27.8894 
 234   0.0000       1.043639        28.3989 
 235   0.0000       1.044040        28.4098 
[...]
  Z           0.0018167           -0.9999936            0.0030681

Notes:  (1) The A matrix conforms to the "SAI" spin Hamiltonian convention.
        (2) Tensor is right-handed.

 -----------------------------------------------------------
 Nucleus  44H : A:ISTP=    1 I=  0.5 P=533.5514 MHz/au**3
                Q:ISTP=    2 I=  1.0 Q=  0.0029 barn     
 -----------------------------------------------------------
 Solving for nuclear perturbation:
Forming RHS of the CP-SCF equations         ... 
Calc. nucleus orbit integrals (SHARK)       ... done

------------------------------------------------------------------------------
                           ORCA CP-SCF CALCULATION
------------------------------------------------------------------------------

Input orbitals are from        ... cc-pVDZ_i.gbw
Input Perturbation             ... cc-pVDZ_i.pin.tmp
Wavefunction output            ... cc-pVDZ_i.pout.tmp
Perturbation mode              ... Imaginary perturbation
Solver                         ... POPLE
Max. number of iterations      ... 64
Convergence tolerance          ... 1.000e-03
Integral handling              ... Direct
DFT GridXC                     ... 1
COSX GridX                     ... 1
COSX IntAccX                   ... 3.067
COSX Algorithm                 ... Auto
Number of perturbations        ... 3
Number of operators            ... 2
Orbital ranges used for CP-SCF:
 Operator 0:  Orbitals   0... 78  to  79...432
 Operator 1:  Orbitals   0... 77  to  78...432
Variables per perturbation     ... 55656
DFT calculation                         ... on
XC functional terms                     ... off
Hybrid DFT                              ... on
   Exchange mixing (SCF)                ...  0.200
   Exchange mixing (CP-SCF)             ...  0.200
   GGA exch. scaling(SCF)               ...  0.720
   GGA exch. scaling (CP-SCF)           ...  0.720
   GGA corr. scaling (SCF)              ...  0.810
   GGA corr. scaling (CP-SCF)           ...  0.810

CP-SCF GRID
-----------

General Integration Accuracy     IntAcc      ... 3.467
Radial Grid Type                 RadialGrid  ... OptM3 with GC (2021)
Angular Grid (max. ang.)         AngularGrid ... 1 (Lebedev-50)
Angular grid pruning method      GridPruning ... 4 (adaptive)
Weight generation scheme         WeightScheme... Becke
Basis function cutoff            BFCut       ... 1.0000e-10
Integration weight cutoff        WCut        ... 1.0000e-14
Angular grids for H and He will be reduced by one unit
Partially contracted basis set               ... off
Rotationally invariant grid construction     ... off

Total number of grid points                  ...    30031
Total number of batches                      ...      490
Average number of points per batch           ...       61
Average number of grid points per atom       ...      639

CP-SCF GRIDX
------------

General Integration Accuracy     IntAcc      ... 3.067
Radial Grid Type                 RadialGrid  ... OptM3 with GC (2021)
Angular Grid (max. ang.)         AngularGrid ... 1 (Lebedev-50)
Angular grid pruning method      GridPruning ... 4 (adaptive)
Weight generation scheme         WeightScheme... Becke
Basis function cutoff            BFCut       ... 1.0000e-10
Integration weight cutoff        WCut        ... 1.0000e-14
Angular grids for H and He will be reduced by one unit
Partially contracted basis set               ... on
Rotationally invariant grid construction     ... off

Total number of grid points                  ...    14122
Total number of batches                      ...      250
Average number of points per batch           ...       56
Average number of grid points per atom       ...      300

Memory available               ... 885.8 MB
Memory needed per perturbation ...  11.8 MB
Perturbations treated per batch... 3
Number of batches              ... 1
     CP-SCF ITERATION   0:   4.5246e-02 (   1.6 sec   0/  3 done)
     CP-SCF ITERATION   1:   1.8840e-03 (   1.7 sec   0/  3 done)
     CP-SCF ITERATION   2:   1.3138e-04 (   1.6 sec   3/  3 done)
                    *** THE CP-SCF HAS CONVERGED ***

Forming final perturbed densities           ... done
Transforming perturbed density to AO basis  ... done

 Raw HFC matrix (all values in MHz): 
 -----------------------------------
                 0.7184              -0.2628              -0.0006
                -0.2627               0.0123              -0.0004
                -0.0006              -0.0004               0.1185

 A(FC)           0.2831               0.2831               0.2831
 A(SD)          -0.3579              -0.1646               0.5225
 A(ORB+DIA)      0.0001               0.0000              -0.0001    A(PC) =  -0.0000
 A(ORB)         -0.0000              -0.0002              -0.0002    A(PC) =  -0.0001
 A(DIA)          0.0001               0.0002               0.0000    A(PC) =   0.0001
             ----------           ----------           ----------
 A(Tot)         -0.0748               0.1185               0.8054    A(iso)=    0.2831
 Orientation: 
  X           0.3144757            0.0003123           -0.9492655
  Y           0.9492614            0.0028454            0.3144752
  Z           0.0027993           -0.9999959            0.0005983

Notes:  (1) The A matrix conforms to the "SAI" spin Hamiltonian convention.
        (2) Tensor is right-handed.

 -----------------------------------------------------------
 Nucleus  45H : A:ISTP=    1 I=  0.5 P=533.5514 MHz/au**3
                Q:ISTP=    2 I=  1.0 Q=  0.0029 barn     
 -----------------------------------------------------------
 Solving for nuclear perturbation:
Forming RHS of the CP-SCF equations         ... 
Calc. nucleus orbit integrals (SHARK)       ... done

------------------------------------------------------------------------------
                           ORCA CP-SCF CALCULATION
------------------------------------------------------------------------------

Input orbitals are from        ... cc-pVDZ_i.gbw
Input Perturbation             ... cc-pVDZ_i.pin.tmp
Wavefunction output            ... cc-pVDZ_i.pout.tmp
Perturbation mode              ... Imaginary perturbation
Solver                         ... POPLE
Max. number of iterations      ... 64
Convergence tolerance          ... 1.000e-03
Integral handling              ... Direct
DFT GridXC                     ... 1
COSX GridX                     ... 1
COSX IntAccX                   ... 3.067
COSX Algorithm                 ... Auto
Number of perturbations        ... 3
Number of operators            ... 2
Orbital ranges used for CP-SCF:
 Operator 0:  Orbitals   0... 78  to  79...432
 Operator 1:  Orbitals   0... 77  to  78...432
Variables per perturbation     ... 55656
DFT calculation                         ... on
XC functional terms                     ... off
Hybrid DFT                              ... on
   Exchange mixing (SCF)                ...  0.200
   Exchange mixing (CP-SCF)             ...  0.200
   GGA exch. scaling(SCF)               ...  0.720
   GGA exch. scaling (CP-SCF)           ...  0.720
   GGA corr. scaling (SCF)              ...  0.810
   GGA corr. scaling (CP-SCF)           ...  0.810

CP-SCF GRID
-----------

General Integration Accuracy     IntAcc      ... 3.467
Radial Grid Type                 RadialGrid  ... OptM3 with GC (2021)
Angular Grid (max. ang.)         AngularGrid ... 1 (Lebedev-50)
Angular grid pruning method      GridPruning ... 4 (adaptive)
Weight generation scheme         WeightScheme... Becke
Basis function cutoff            BFCut       ... 1.0000e-10
Integration weight cutoff        WCut        ... 1.0000e-14
Angular grids for H and He will be reduced by one unit
Partially contracted basis set               ... off
Rotationally invariant grid construction     ... off

Total number of grid points                  ...    30031
Total number of batches                      ...      490
Average number of points per batch           ...       61
Average number of grid points per atom       ...      639

CP-SCF GRIDX
------------

General Integration Accuracy     IntAcc      ... 3.067
Radial Grid Type                 RadialGrid  ... OptM3 with GC (2021)
Angular Grid (max. ang.)         AngularGrid ... 1 (Lebedev-50)
Angular grid pruning method      GridPruning ... 4 (adaptive)
Weight generation scheme         WeightScheme... Becke
Basis function cutoff            BFCut       ... 1.0000e-10
Integration weight cutoff        WCut        ... 1.0000e-14
Angular grids for H and He will be reduced by one unit
Partially contracted basis set               ... on
Rotationally invariant grid construction     ... off

Total number of grid points                  ...    14122
Total number of batches                      ...      250
Average number of points per batch           ...       56
Average number of grid points per atom       ...      300

Memory available               ... 885.4 MB
Memory needed per perturbation ...  11.8 MB
Perturbations treated per batch... 3
Number of batches              ... 1
     CP-SCF ITERATION   0:   4.5424e-02 (   1.5 sec   0/  3 done)
     CP-SCF ITERATION   1:   1.8962e-03 (   1.6 sec   0/  3 done)
     CP-SCF ITERATION   2:   1.3634e-04 (   1.6 sec   3/  3 done)
                    *** THE CP-SCF HAS CONVERGED ***

Forming final perturbed densities           ... done
Transforming perturbed density to AO basis  ... done

 Raw HFC matrix (all values in MHz): 
 -----------------------------------
                 0.7286               0.2254               0.0011
                 0.2253              -0.0000              -0.0002
                 0.0011              -0.0002               0.1264

 A(FC)           0.2850               0.2850               0.2850
 A(SD)          -0.3491              -0.1586               0.5078
 A(ORB+DIA)      0.0000              -0.0000              -0.0001    A(PC) =  -0.0000
 A(ORB)         -0.0001              -0.0002              -0.0002    A(PC) =  -0.0001
 A(DIA)          0.0001               0.0002               0.0000    A(PC) =   0.0001
             ----------           ----------           ----------
 A(Tot)         -0.0641               0.1264               0.7926    A(iso)=    0.2850
 Orientation: 
  X           0.2734830            0.0007992            0.9618765
  Y          -0.9618736            0.0028186            0.2734798
  Z          -0.0024926           -0.9999957            0.0015396

Notes:  (1) The A matrix conforms to the "SAI" spin Hamiltonian convention.
        (2) Tensor is right-handed.

 -----------------------------------------------------------
 Nucleus  46H : A:ISTP=    1 I=  0.5 P=533.5514 MHz/au**3
                Q:ISTP=    2 I=  1.0 Q=  0.0029 barn     
 -----------------------------------------------------------
 Solving for nuclear perturbation:
Forming RHS of the CP-SCF equations         ... 
Calc. nucleus orbit integrals (SHARK)       ... done

------------------------------------------------------------------------------
                           ORCA CP-SCF CALCULATION
------------------------------------------------------------------------------

Input orbitals are from        ... cc-pVDZ_i.gbw
Input Perturbation             ... cc-pVDZ_i.pin.tmp
Wavefunction output            ... cc-pVDZ_i.pout.tmp
Perturbation mode              ... Imaginary perturbation
Solver                         ... POPLE
Max. number of iterations      ... 64
Convergence tolerance          ... 1.000e-03
Integral handling              ... Direct
DFT GridXC                     ... 1
COSX GridX                     ... 1
COSX IntAccX                   ... 3.067
COSX Algorithm                 ... Auto
Number of perturbations        ... 3
Number of operators            ... 2
Orbital ranges used for CP-SCF:
 Operator 0:  Orbitals   0... 78  to  79...432
 Operator 1:  Orbitals   0... 77  to  78...432
Variables per perturbation     ... 55656
DFT calculation                         ... on
XC functional terms                     ... off
Hybrid DFT                              ... on
   Exchange mixing (SCF)                ...  0.200
   Exchange mixing (CP-SCF)             ...  0.200
   GGA exch. scaling(SCF)               ...  0.720
   GGA exch. scaling (CP-SCF)           ...  0.720
   GGA corr. scaling (SCF)              ...  0.810
   GGA corr. scaling (CP-SCF)           ...  0.810

CP-SCF GRID
-----------

General Integration Accuracy     IntAcc      ... 3.467
Radial Grid Type                 RadialGrid  ... OptM3 with GC (2021)
Angular Grid (max. ang.)         AngularGrid ... 1 (Lebedev-50)
Angular grid pruning method      GridPruning ... 4 (adaptive)
Weight generation scheme         WeightScheme... Becke
Basis function cutoff            BFCut       ... 1.0000e-10
Integration weight cutoff        WCut        ... 1.0000e-14
Angular grids for H and He will be reduced by one unit
Partially contracted basis set               ... off
Rotationally invariant grid construction     ... off

Total number of grid points                  ...    30031
Total number of batches                      ...      490
Average number of points per batch           ...       61
Average number of grid points per atom       ...      639

CP-SCF GRIDX
------------

General Integration Accuracy     IntAcc      ... 3.067
Radial Grid Type                 RadialGrid  ... OptM3 with GC (2021)
Angular Grid (max. ang.)         AngularGrid ... 1 (Lebedev-50)
Angular grid pruning method      GridPruning ... 4 (adaptive)
Weight generation scheme         WeightScheme... Becke
Basis function cutoff            BFCut       ... 1.0000e-10
Integration weight cutoff        WCut        ... 1.0000e-14
Angular grids for H and He will be reduced by one unit
Partially contracted basis set               ... on
Rotationally invariant grid construction     ... off

Total number of grid points                  ...    14122
Total number of batches                      ...      250
Average number of points per batch           ...       56
Average number of grid points per atom       ...      300

Memory available               ... 884.9 MB
Memory needed per perturbation ...  11.8 MB
Perturbations treated per batch... 3
Number of batches              ... 1
     CP-SCF ITERATION   0:   4.1518e-02 (   1.6 sec   0/  3 done)
     CP-SCF ITERATION   1:   1.6687e-03 (   1.6 sec   2/  3 done)
     CP-SCF ITERATION   2:   7.3785e-05 (   1.1 sec   3/  3 done)
                    *** THE CP-SCF HAS CONVERGED ***

Forming final perturbed densities           ... done
Transforming perturbed density to AO basis  ... done

 Raw HFC matrix (all values in MHz): 
 -----------------------------------
                -0.0108              -0.0914              -0.0002
                -0.0914              -0.1750              -0.0001
                -0.0002              -0.0001              -0.1632

 A(FC)          -0.1164              -0.1164              -0.1164
 A(SD)           0.1464              -0.0469              -0.0995
 A(ORB+DIA)      0.0000               0.0000               0.0001    A(PC) =   0.0000
 A(ORB)         -0.0000              -0.0001               0.0000    A(PC) =  -0.0000
 A(DIA)          0.0000               0.0001               0.0001    A(PC) =   0.0001
             ----------           ----------           ----------
 A(Tot)          0.0300              -0.1632              -0.2158    A(iso)=   -0.1163
 Orientation: 
  X           0.9132369            0.0006823            0.4074284
  Y          -0.4074281            0.0035652            0.9132303
  Z          -0.0008295           -0.9999934            0.0035338

Notes:  (1) The A matrix conforms to the "SAI" spin Hamiltonian convention.
        (2) Tensor is right-handed.


--------------------------------------------------------------------------------
----------------------------------------------------------------------------
                           ORCA EULER ANGLE PROGRAM
----------------------------------------------------------------------------

Only g-tensor available        -->  using g-tensor as reference tensor

Reference tensor               ...  g

g-tensor ordering              ...  |g_min> --> |gx>
                                    |g_mid> --> |gy>
                                    |g_max> --> |gz>

A- and EFG-tensor ordering     ...  the axes |Ax>, |Qx>, |Ay>, etc. are assigned
                                    such that the Euler rotation is minimal. You
                                    can find the respective eigenvalues as Ax,
                                    EFGx, Ay, etc. in the tables below.
                                    The relation of |Ax>, |Ay>,  etc. to Amin, Amid, etc.
                                    (as printed in the ORCA EPR/NMR CALCULATION Output)
                                    is obtained in the detailed printout.

Euler rotation around          ...  z - y - z
   First rotation              -->  by alpha around z
   Second rotation             -->  by beta around y'
   Third rotation              -->  by gamma around z''
   Positive / Negative angle   -->  clockwise / counterclockwise rotation

Plot EFG-tensors                    (-)
Plot HFC-tensors                    (-)
Detailed Printout                   (-)

-------------------------------------------------------------------------
          Euler rotation of hyperfine tensor to g-tensor
-------------------------------------------------------------------------

-------------------------------------------------------------------
 Atom  |   Alpha    Beta    Gamma   |   Ax       Ay       Az 
       |          [degrees]         |           [MHz]         
-------------------------------------------------------------------
  7H       43.6      0.0      0.0      25.34    17.59    16.97
  8H       -6.6      0.0      0.0      59.32    41.21    40.38
 10H     -129.3     35.4    112.7       3.18    -6.53    -7.79
 11H       50.7     35.6    -67.3       3.16    -6.54    -7.79
 13H     -157.9     15.6    178.2       2.16    -0.76    -1.03
 14H       21.8     15.4     -1.4       2.15    -0.76    -1.03
 16H       60.9     22.7    -68.7       1.09    -0.55    -0.62
 17H     -119.2     22.8    111.4       1.09    -0.56    -0.62
 19H      -68.3     23.2     84.4       0.52    -0.28    -0.30
 20H      112.0     23.2    -95.9       0.52    -0.28    -0.30
 22H     -141.0     29.3   -177.9       2.40     5.77     3.04
 23H       39.2     29.2      2.0       2.39     5.76     3.04
 25H      -49.9     22.0     36.4       2.29    -0.55    -0.72
 26H      130.3     22.0   -143.8       2.29    -0.55    -0.73
 28H     -157.7     11.1    126.8       0.68    -0.35    -0.37
 29H       22.5     11.0    -53.4       0.68    -0.35    -0.37
 31H      137.0     11.1   -146.0       0.53    -0.25    -0.27
 32H      -43.3     11.0     34.3       0.53    -0.25    -0.27
 34H        2.5      0.0      0.0       0.49    -0.13    -0.15
 35H      -17.5      0.0      0.0       0.32    -0.18    -0.19
 42H      156.2      0.1   -155.7       0.43     0.24     0.25
 43H     -173.0      0.1   -162.0      -0.22     0.03    -0.16
 44H      -15.3      0.0      0.0      -0.07     0.81     0.12
 45H       18.9      0.0      0.0      -0.06     0.79     0.13
 46H      145.4      0.1   -166.4      -0.22     0.03    -0.16
-------------------------------------------------------------------


Maximum memory used throughout the entire EPRNMR-calculation: 201.3 MB

Timings for individual modules:

Sum of individual times         ...     3955.884 sec (=  65.931 min)
GTO integral calculation        ...        5.146 sec (=   0.086 min)   0.1 %
Spin-Orbit-Coupling Matrices    ...        8.366 sec (=   0.139 min)   0.2 %
SCF iterations                  ...       26.467 sec (=   0.441 min)   0.7 %
EPR/NMR calculation             ...     3915.905 sec (=  65.265 min)  99.0 %
                             ****ORCA TERMINATED NORMALLY****
TOTAL RUN TIME: 0 days 1 hours 6 minutes 0 seconds 441 msec
