
                                 *****************
                                 * O   R   C   A *
                                 *****************

           --- An Ab Initio, DFT and Semiempirical electronic structure package ---

                  #######################################################
                  #                        -***-                        #
                  #          Department of theory and spectroscopy      #
                  #               Directorship: Frank Neese             #
                  #        Max Planck Institute fuer Kohlenforschung    #
                  #                Kaiser Wilhelm Platz 1               #
                  #                 D-45470 Muelheim/Ruhr               #
                  #                      Germany                        #
                  #                                                     #
                  #                  All rights reserved                #
                  #                        -***-                        #
                  #######################################################


                         Program Version 4.2.1 -  RELEASE  -


 With contributions from (in alphabetic order):
   Daniel Aravena         : Magnetic Suceptibility
   Michael Atanasov       : Ab Initio Ligand Field Theory (pilot matlab implementation)
   Alexander A. Auer      : GIAO ZORA, VPT2
   Ute Becker             : Parallelization
   Giovanni Bistoni       : ED, misc. LED, open-shell LED, HFLD
   Martin Brehm           : Molecular dynamics
   Dmytro Bykov           : SCF Hessian
   Vijay G. Chilkuri      : MRCI spin determinant printing, contributions to CSF-ICE
   Dipayan Datta          : RHF DLPNO-CCSD density
   Achintya Kumar Dutta   : EOM-CC, STEOM-CC
   Dmitry Ganyushin       : Spin-Orbit,Spin-Spin,Magnetic field MRCI
   Miquel Garcia          : C-PCM Hessian, Gaussian charge scheme
   Yang Guo               : DLPNO-NEVPT2, CIM, IAO-localization
   Andreas Hansen         : Spin unrestricted coupled pair/coupled cluster methods
   Benjamin Helmich-Paris : CASSCF linear response (MC-RPA)
   Lee Huntington         : MR-EOM, pCC
   Robert Izsak           : Overlap fitted RIJCOSX, COSX-SCS-MP3, EOM
   Christian Kollmar      : KDIIS, OOCD, Brueckner-CCSD(T), CCSD density
   Simone Kossmann        : Meta GGA functionals, TD-DFT gradient, OOMP2, MP2 Hessian
   Martin Krupicka        : AUTO-CI
   Lucas Lang             : DCDCAS
   Dagmar Lenk            : GEPOL surface, SMD
   Dimitrios Liakos       : Extrapolation schemes; Compound Job, initial MDCI parallelization
   Dimitrios Manganas     : Further ROCIS development; embedding schemes
   Dimitrios Pantazis     : SARC Basis sets
   Taras Petrenko         : DFT Hessian,TD-DFT gradient, ASA, ECA, R-Raman, ABS, FL, XAS/XES, NRVS
   Peter Pinski           : DLPNO-MP2, DLPNO-MP2 Gradient
   Christoph Reimann      : Effective Core Potentials
   Marius Retegan         : Local ZFS, SOC
   Christoph Riplinger    : Optimizer, TS searches, QM/MM, DLPNO-CCSD(T), (RO)-DLPNO pert. Triples
   Tobias Risthaus        : Range-separated hybrids, TD-DFT gradient, RPA, STAB
   Michael Roemelt        : Original ROCIS implementation
   Masaaki Saitow         : Open-shell DLPNO-CCSD energy and density
   Barbara Sandhoefer     : DKH picture change effects
   Avijit Sen             : IP-ROCIS
   Kantharuban Sivalingam : CASSCF convergence, NEVPT2, FIC-MRCI
   Bernardo de Souza      : ESD, SOC TD-DFT
   Georgi Stoychev        : AutoAux, RI-MP2 NMR
   Willem Van den Heuvel  : Paramagnetic NMR
   Boris Wezisla          : Elementary symmetry handling
   Frank Wennmohs         : Technical directorship


 We gratefully acknowledge several colleagues who have allowed us to
 interface, adapt or use parts of their codes:
   Stefan Grimme, W. Hujo, H. Kruse,             : VdW corrections, initial TS optimization,
                  C. Bannwarth                     DFT functionals, gCP, sTDA/sTD-DF
   Ed Valeev, F. Pavosevic, A. Kumar             : LibInt (2-el integral package), F12 methods
   Garnet Chan, S. Sharma, J. Yang, R. Olivares  : DMRG
   Ulf Ekstrom                                   : XCFun DFT Library
   Mihaly Kallay                                 : mrcc  (arbitrary order and MRCC methods)
   Andreas Klamt, Michael Diedenhofen            : otool_cosmo (COSMO solvation model)
   Jiri Pittner, Ondrej Demel                    : Mk-CCSD
   Frank Weinhold                                : gennbo (NPA and NBO analysis)
   Christopher J. Cramer and Donald G. Truhlar   : smd solvation model
   Lars Goerigk                                  : TD-DFT with DH, B97 family of functionals
   V. Asgeirsson, H. Jonsson                     : NEB implementation
   FAccTs GmbH                                   : IRC, NEB, NEB-TS, Multilevel, MM, QM/MM, CI optimization
   S Lehtola, MJT Oliveira, MAL Marques          : LibXC Library


 Your calculation uses the libint2 library for the computation of 2-el integrals
 For citations please refer to: http://libint.valeyev.net

 Your ORCA version has been built with support for libXC version: 4.2.3
 For citations please refer to: https://tddft.org/programs/libxc/

 This ORCA versions uses:
   CBLAS   interface :  Fast vector & matrix operations
   LAPACKE interface :  Fast linear algebra routines
   SCALAPACK package :  Parallel linear algebra routines




***************************************
The coordinates will be read from file: opt.xyz
***************************************


----- Orbital basis set information -----
Your calculation utilizes the basis: cc-pVDZ 
       H, B-Ne : Obtained from the ccRepo (grant-hill.group.shef.ac.uk/ccrepo) Feb. 2017
                 T. H. Dunning, Jr., J. Chem. Phys. 90, 1007 (1989)
            He : Obtained from the ccRepo (grant-hill.group.shef.ac.uk/ccrepo) Feb. 2017
                 D. E. Woon, T. H. Dunning, Jr., J. Chem. Phys. 100, 2975 (1994)
  Li-Be, Na-Mg : Obtained from the ccRepo (grant-hill.group.shef.ac.uk/ccrepo) Feb. 2017
                 B. P. Prascher, D. E. Woon, K. A. Peterson, T. H. Dunning, Jr., A. K. Wilson, Theor. Chem. Acc. 128, 69 (2011)
         Al-Ar : Obtained from the ccRepo (grant-hill.group.shef.ac.uk/ccrepo) Feb. 2017
                 D. E. Woon, T. H. Dunning, Jr., J. Chem. Phys. 98, 1358 (1993)
            Ca : Obtained from the Peterson Research Group Website (tyr0.chem.wsu.edu/~kipeters) Feb. 2017
                 J. Koput, K. A. Peterson, J. Phys. Chem. 106, 9595 (2002)
         Sc-Zn : Obtained from the ccRepo (grant-hill.group.shef.ac.uk/ccrepo) Feb. 2017
                 N. B. Balabanov, K. A. Peterson, J. Chem. Phys. 123, 064107 (2005)
                 N. B. Balabanov, K. A. Peterson, J. Chem. Phys. 125, 074110 (2006)
         Ga-Kr : Obtained from the ccRepo (grant-hill.group.shef.ac.uk/ccrepo) Feb. 2017
                 A. K. Wilson, D. E. Woon, K. A. Peterson, T. H. Dunning, Jr., J. Chem. Phys. 110, 7667 (1999)

----- AuxJ basis set information -----
Your calculation utilizes the AutoAux generation procedure.
  G. L. Stoychev, A. A. Auer, F. Neese, J. Chem. Theory Comput. 13, 554 (2017)

----- AuxC basis set information -----
Your calculation utilizes the AutoAux generation procedure.
  G. L. Stoychev, A. A. Auer, F. Neese, J. Chem. Theory Comput. 13, 554 (2017)

----- AuxJK basis set information -----
Your calculation utilizes the AutoAux generation procedure.
  G. L. Stoychev, A. A. Auer, F. Neese, J. Chem. Theory Comput. 13, 554 (2017)

================================================================================
                                        WARNINGS
                       Please study these warnings very carefully!
================================================================================


WARNING: your system is open-shell and RHF/RKS was chosen
  ===> : WILL SWITCH to UHF/UKS


INFO   : the flag for use of LIBINT has been found!

================================================================================
                                       INPUT FILE
================================================================================
NAME = cc-pVDZ_i.inp
|  1> ! B3LYP cc-pVDZ AUTOAUX
|  2> %pal nprocs 16 end
|  3> *XYZFile 0 2 opt.xyz
|  4> %EPRNMR
|  5>         GTENSOR   TRUE
|  6>         NUCLEI    = ALL H {AISO, ADIP, AORB}
|  7>         ORI       GIAO
|  8> END
|  9> 
| 10>                          ****END OF INPUT****
================================================================================

                       ****************************
                       * Single Point Calculation *
                       ****************************

---------------------------------
CARTESIAN COORDINATES (ANGSTROEM)
---------------------------------
  C      2.832555   -0.007076   -0.008095
  C     -1.313497   -0.015116   -0.012872
  C     -0.703416   -1.260389   -0.013943
  C      0.699749   -1.204610   -0.012161
  C      1.403039    0.021918   -0.009480
  C      0.709456    1.262414   -0.008309
  C     -0.698798    1.216963   -0.010181
  H      1.283492   -2.126794   -0.012884
  H     -1.283339    2.138456   -0.009530
  C     -1.510185   -2.547944   -0.016431
  H     -2.183510   -2.529548   -0.893476
  H     -2.180708   -2.534611    0.862879
  C     -0.710213   -3.852977   -0.021273
  H     -0.047138   -3.881333   -0.906144
  H     -0.046634   -3.887573    0.863002
  C     -1.605558   -5.097224   -0.025224
  H     -2.271946   -5.069379    0.857472
  H     -2.271165   -5.064255   -0.908327
  C     -0.814938   -6.407520   -0.028677
  H     -0.166172   -6.486821    0.861015
  H     -0.164973   -6.481390   -0.917970
  C      1.485361    2.565508   -0.005459
  H      2.161743    2.561750    0.869830
  H      2.161886    2.565468   -0.880665
  C      0.664424    3.857459   -0.002856
  H      0.001691    3.883015   -0.888179
  H      0.000488    3.878690    0.881681
  C      1.541658    5.114789    0.000681
  H      2.207167    5.091661    0.884114
  H      2.208804    5.095503   -0.881611
  C      0.732465    6.413588    0.002755
  H      0.081035    6.478935    0.891672
  H      0.083052    6.483044   -0.887318
  C      4.054122   -0.041607   -0.009185
  H     -1.484315   -7.282892   -0.031824
  H      1.389047    7.298590    0.005556
  C      5.482055   -0.085029   -0.008313
  C      6.164317   -1.321223   -0.017649
  C      7.558378   -1.358292   -0.016711
  C      8.298216   -0.170529   -0.006574
  C      7.632263    1.060320    0.002671
  C      6.238559    1.107216    0.001834
  H      9.390566   -0.204333   -0.005846
  H      8.203600    1.991853    0.010736
  H      5.585737   -2.246961   -0.025754
  H      5.717110    2.066429    0.009216
  H      8.072617   -2.322542   -0.024104

----------------------------
CARTESIAN COORDINATES (A.U.)
----------------------------
  NO LB      ZA    FRAG     MASS         X           Y           Z
   0 C     6.0000    0    12.011    5.352753   -0.013373   -0.015298
   1 C     6.0000    0    12.011   -2.482149   -0.028564   -0.024325
   2 C     6.0000    0    12.011   -1.329263   -2.381789   -0.026349
   3 C     6.0000    0    12.011    1.322333   -2.276382   -0.022982
   4 C     6.0000    0    12.011    2.651359    0.041419   -0.017915
   5 C     6.0000    0    12.011    1.340678    2.385617   -0.015703
   6 C     6.0000    0    12.011   -1.320537    2.299727   -0.019239
   7 H     1.0000    0     1.008    2.425449   -4.019059   -0.024346
   8 H     1.0000    0     1.008   -2.425160    4.041096   -0.018009
   9 C     6.0000    0    12.011   -2.853836   -4.814916   -0.031051
  10 H     1.0000    0     1.008   -4.126235   -4.780154   -1.688425
  11 H     1.0000    0     1.008   -4.120940   -4.789721    1.630604
  12 C     6.0000    0    12.011   -1.342109   -7.281071   -0.040200
  13 H     1.0000    0     1.008   -0.089078   -7.334656   -1.712364
  14 H     1.0000    0     1.008   -0.088125   -7.346448    1.630838
  15 C     6.0000    0    12.011   -3.034065   -9.632357   -0.047667
  16 H     1.0000    0     1.008   -4.293356   -9.579737    1.620386
  17 H     1.0000    0     1.008   -4.291880   -9.570054   -1.716489
  18 C     6.0000    0    12.011   -1.540010  -12.108458   -0.054192
  19 H     1.0000    0     1.008   -0.314020  -12.258315    1.627082
  20 H     1.0000    0     1.008   -0.311755  -12.248053   -1.734712
  21 C     6.0000    0    12.011    2.806925    4.848107   -0.010316
  22 H     1.0000    0     1.008    4.085103    4.841007    1.643740
  23 H     1.0000    0     1.008    4.085372    4.848032   -1.664216
  24 C     6.0000    0    12.011    1.255579    7.289540   -0.005397
  25 H     1.0000    0     1.008    0.003195    7.337836   -1.678415
  26 H     1.0000    0     1.008    0.000921    7.329662    1.666135
  27 C     6.0000    0    12.011    2.913312    9.665550    0.001287
  28 H     1.0000    0     1.008    4.170941    9.621845    1.670734
  29 H     1.0000    0     1.008    4.174034    9.629106   -1.666003
  30 C     6.0000    0    12.011    1.384159   12.119925    0.005207
  31 H     1.0000    0     1.008    0.153134   12.243413    1.685015
  32 H     1.0000    0     1.008    0.156946   12.251177   -1.676787
  33 C     6.0000    0    12.011    7.661180   -0.078626   -0.017357
  34 H     1.0000    0     1.008   -2.804948  -13.762671   -0.060139
  35 H     1.0000    0     1.008    2.624919   13.792337    0.010500
  36 C     6.0000    0    12.011   10.359583   -0.160681   -0.015709
  37 C     6.0000    0    12.011   11.648871   -2.496750   -0.033351
  38 C     6.0000    0    12.011   14.283265   -2.566799   -0.031579
  39 C     6.0000    0    12.011   15.681356   -0.322254   -0.012423
  40 C     6.0000    0    12.011   14.422887    2.003714    0.005048
  41 C     6.0000    0    12.011   11.789168    2.092335    0.003466
  42 H     1.0000    0     1.008   17.745599   -0.386133   -0.011047
  43 H     1.0000    0     1.008   15.502557    3.764057    0.020287
  44 H     1.0000    0     1.008   10.555513   -4.246140   -0.048667
  45 H     1.0000    0     1.008   10.803772    3.904986    0.017416
  46 H     1.0000    0     1.008   15.255036   -4.388969   -0.045551

--------------------------------
INTERNAL COORDINATES (ANGSTROEM)
--------------------------------
 C      0   0   0     0.000000000000     0.00000000     0.00000000
 C      1   0   0     4.146061979681     0.00000000     0.00000000
 C      2   1   0     1.386688363165    64.01014962     0.00000000
 C      3   2   1     1.404273879647   113.82449841     0.00000000
 C      4   3   2     1.413858174266   122.10644590     0.00000000
 C      5   4   3     1.421227711071   120.95979319     0.00000000
 C      2   1   3     1.376909059199    63.37368510   179.98923607
 H      4   3   2     1.091412846148   120.05731728   180.00539417
 H      7   2   1     1.091255569428   121.09620661   179.99007738
 C      3   2   1     1.519434345316   121.82816513   179.98794009
 H     10   3   2     1.105853663393   108.08900499    56.48449439
 H     10   3   2     1.105877508661   108.08460612   303.17114121
 C     10   3   2     1.530715339523   116.42146158   179.83811797
 H     13  10   3     1.106105668947   109.73533569   301.90613090
 H     13  10   3     1.106108887248   109.73464984    58.24805835
 C     13  10   3     1.532908600840   112.75411882   180.06943403
 H     16  13  10     1.106345359170   109.22786508   302.36749664
 H     16  13  10     1.106340495618   109.22448056    57.74912600
 C     16  13  10     1.530349134070   113.15550946   180.05712456
 H     19  16  13     1.103964498440   111.30246727    59.87906130
 H     19  16  13     1.103971138084   111.30140429   300.15662137
 C      6   5   4     1.516604341005   120.01878620   180.00129785
 H     22   6   5     1.106181718094   108.14324354   303.69722281
 H     22   6   5     1.106196675480   108.14174693    56.43553072
 C     22   6   5     1.530712582437   116.79629945   180.06248190
 H     25  22   6     1.106194064426   109.84324450   301.69984038
 H     25  22   6     1.106194902970   109.84347298    58.22702846
 C     25  22   6     1.533111447277   112.66394921   179.96886228
 H     28  25  22     1.106295877530   109.20252292   302.29944746
 H     28  25  22     1.106297715858   109.20325761    57.65518494
 C     28  25  22     1.530253927122   113.17258121   179.97750225
 H     31  28  25     1.103994475266   111.30638950    59.84796489
 H     31  28  25     1.103988751681   111.30700626   300.12319116
 C      1   2   3     1.222055219470   178.26577682     3.78976524
 H     19  16  13     1.101975695747   111.48956474   180.01958550
 H     31  28  25     1.101969371965   111.50425091   179.98461838
 C     34   1   5     1.428593880529   179.85023468   311.81131853
 C     37  34   1     1.412000417946   120.63526075    35.52803593
 C     38  37  34     1.394554401212   120.41664815   180.00209113
 C     39  38  37     1.399372010795   120.39437981     0.00000000
 C     40  39  38     1.399488805944   119.66779362     0.00000000
 C     41  40  39     1.394493049154   120.34187856     0.00000000
 H     40  39  38     1.092873362688   120.14506609   179.99809898
 H     41  40  39     1.092815256158   120.06390851   179.99260087
 H     38  37  34     1.091700980918   119.10198805     0.00000000
 H     42  41  40     1.091812232837   120.45559697   179.98907307
 H     39  38  37     1.092829128288   119.59330257   180.00574758

---------------------------
INTERNAL COORDINATES (A.U.)
---------------------------
 C      0   0   0     0.000000000000     0.00000000     0.00000000
 C      1   0   0     7.834921675860     0.00000000     0.00000000
 C      2   1   0     2.620461239477    64.01014962     0.00000000
 C      3   2   1     2.653693049551   113.82449841     0.00000000
 C      4   3   2     2.671804741569   122.10644590     0.00000000
 C      5   4   3     2.685731147864   120.95979319     0.00000000
 C      2   1   3     2.601981033201    63.37368510   179.98923607
 H      4   3   2     2.062471378263   120.05731728   180.00539417
 H      7   2   1     2.062174168336   121.09620661   179.99007738
 C      3   2   1     2.871314791121   121.82816513   179.98794009
 H     10   3   2     2.089760568006   108.08900499    56.48449439
 H     10   3   2     2.089805629033   108.08460612   303.17114121
 C     10   3   2     2.892632780690   116.42146158   179.83811797
 H     13  10   3     2.090236789488   109.73533569   301.90613090
 H     13  10   3     2.090242871196   109.73464984    58.24805835
 C     13  10   3     2.896777443920   112.75411882   180.06943403
 H     16  13  10     2.090689738367   109.22786508   302.36749664
 H     16  13  10     2.090680547584   109.22448056    57.74912600
 C     16  13  10     2.891940752675   113.15550946   180.05712456
 H     19  16  13     2.086190563624   111.30246727    59.87906130
 H     19  16  13     2.086203110733   111.30140429   300.15662137
 C      6   5   4     2.865966858015   120.01878620   180.00129785
 H     22   6   5     2.090380501548   108.14324354   303.69722281
 H     22   6   5     2.090408766912   108.14174693    56.43553072
 C     22   6   5     2.892627570554   116.79629945   180.06248190
 H     25  22   6     2.090403832734   109.84324450   301.69984038
 H     25  22   6     2.090405417353   109.84347298    58.22702846
 C     25  22   6     2.897160768134   112.66394921   179.96886228
 H     28  25  22     2.090596231618   109.20252292   302.29944746
 H     28  25  22     2.090599705554   109.20325761    57.65518494
 C     28  25  22     2.891760837619   113.17258121   179.97750225
 H     31  28  25     2.086247211616   111.30638950    59.84796489
 H     31  28  25     2.086236395608   111.30700626   300.12319116
 C      1   2   3     2.309349685328   178.26577682     3.78976524
 H     19  16  13     2.082432271199   111.48956474   180.01958550
 H     31  28  25     2.082420320984   111.50425091   179.98461838
 C     34   1   5     2.699651190795   179.85023468   311.81131853
 C     37  34   1     2.668294090901   120.63526075    35.52803593
 C     38  37  34     2.635325897146   120.41664815   180.00209113
 C     39  38  37     2.644429859878   120.39437981     0.00000000
 C     40  39  38     2.644650570723   119.66779362     0.00000000
 C     41  40  39     2.635209958557   120.34187856     0.00000000
 H     40  39  38     2.065231354539   120.14506609   179.99809898
 H     41  40  39     2.065121549109   120.06390851   179.99260087
 H     38  37  34     2.063015874068   119.10198805     0.00000000
 H     42  41  40     2.063226109727   120.45559697   179.98907307
 H     39  38  37     2.065147763637   119.59330257   180.00574758

---------------------
BASIS SET INFORMATION
---------------------
There are 2 groups of distinct atoms

 Group   1 Type C   : 17s4p1d contracted to 3s2p1d pattern {881/31/1}
 Group   2 Type H   : 4s1p contracted to 2s1p pattern {31/1}

Atom   0C    basis set group =>   1
Atom   1C    basis set group =>   1
Atom   2C    basis set group =>   1
Atom   3C    basis set group =>   1
Atom   4C    basis set group =>   1
Atom   5C    basis set group =>   1
Atom   6C    basis set group =>   1
Atom   7H    basis set group =>   2
Atom   8H    basis set group =>   2
Atom   9C    basis set group =>   1
Atom  10H    basis set group =>   2
Atom  11H    basis set group =>   2
Atom  12C    basis set group =>   1
Atom  13H    basis set group =>   2
Atom  14H    basis set group =>   2
Atom  15C    basis set group =>   1
Atom  16H    basis set group =>   2
Atom  17H    basis set group =>   2
Atom  18C    basis set group =>   1
Atom  19H    basis set group =>   2
Atom  20H    basis set group =>   2
Atom  21C    basis set group =>   1
Atom  22H    basis set group =>   2
Atom  23H    basis set group =>   2
Atom  24C    basis set group =>   1
Atom  25H    basis set group =>   2
Atom  26H    basis set group =>   2
Atom  27C    basis set group =>   1
Atom  28H    basis set group =>   2
Atom  29H    basis set group =>   2
Atom  30C    basis set group =>   1
Atom  31H    basis set group =>   2
Atom  32H    basis set group =>   2
Atom  33C    basis set group =>   1
Atom  34H    basis set group =>   2
Atom  35H    basis set group =>   2
Atom  36C    basis set group =>   1
Atom  37C    basis set group =>   1
Atom  38C    basis set group =>   1
Atom  39C    basis set group =>   1
Atom  40C    basis set group =>   1
Atom  41C    basis set group =>   1
Atom  42H    basis set group =>   2
Atom  43H    basis set group =>   2
Atom  44H    basis set group =>   2
Atom  45H    basis set group =>   2
Atom  46H    basis set group =>   2
---------------------------------
AUXILIARY/J BASIS SET INFORMATION
---------------------------------
There are 2 groups of distinct atoms

 Group   1 Type C   : 14s11p10d2f contracted to 14s11p10d2f pattern {11111111111111/11111111111/1111111111/11}
 Group   2 Type H   : 9s2p1d contracted to 9s2p1d pattern {111111111/11/1}

Atom   0C    basis set group =>   1
Atom   1C    basis set group =>   1
Atom   2C    basis set group =>   1
Atom   3C    basis set group =>   1
Atom   4C    basis set group =>   1
Atom   5C    basis set group =>   1
Atom   6C    basis set group =>   1
Atom   7H    basis set group =>   2
Atom   8H    basis set group =>   2
Atom   9C    basis set group =>   1
Atom  10H    basis set group =>   2
Atom  11H    basis set group =>   2
Atom  12C    basis set group =>   1
Atom  13H    basis set group =>   2
Atom  14H    basis set group =>   2
Atom  15C    basis set group =>   1
Atom  16H    basis set group =>   2
Atom  17H    basis set group =>   2
Atom  18C    basis set group =>   1
Atom  19H    basis set group =>   2
Atom  20H    basis set group =>   2
Atom  21C    basis set group =>   1
Atom  22H    basis set group =>   2
Atom  23H    basis set group =>   2
Atom  24C    basis set group =>   1
Atom  25H    basis set group =>   2
Atom  26H    basis set group =>   2
Atom  27C    basis set group =>   1
Atom  28H    basis set group =>   2
Atom  29H    basis set group =>   2
Atom  30C    basis set group =>   1
Atom  31H    basis set group =>   2
Atom  32H    basis set group =>   2
Atom  33C    basis set group =>   1
Atom  34H    basis set group =>   2
Atom  35H    basis set group =>   2
Atom  36C    basis set group =>   1
Atom  37C    basis set group =>   1
Atom  38C    basis set group =>   1
Atom  39C    basis set group =>   1
Atom  40C    basis set group =>   1
Atom  41C    basis set group =>   1
Atom  42H    basis set group =>   2
Atom  43H    basis set group =>   2
Atom  44H    basis set group =>   2
Atom  45H    basis set group =>   2
Atom  46H    basis set group =>   2
---------------------------------
AUXILIARY/C BASIS SET INFORMATION
---------------------------------
There are 2 groups of distinct atoms

 Group   1 Type C   : 14s11p10d2f contracted to 14s11p10d2f pattern {11111111111111/11111111111/1111111111/11}
 Group   2 Type H   : 9s2p1d contracted to 9s2p1d pattern {111111111/11/1}

Atom   0C    basis set group =>   1
Atom   1C    basis set group =>   1
Atom   2C    basis set group =>   1
Atom   3C    basis set group =>   1
Atom   4C    basis set group =>   1
Atom   5C    basis set group =>   1
Atom   6C    basis set group =>   1
Atom   7H    basis set group =>   2
Atom   8H    basis set group =>   2
Atom   9C    basis set group =>   1
Atom  10H    basis set group =>   2
Atom  11H    basis set group =>   2
Atom  12C    basis set group =>   1
Atom  13H    basis set group =>   2
Atom  14H    basis set group =>   2
Atom  15C    basis set group =>   1
Atom  16H    basis set group =>   2
Atom  17H    basis set group =>   2
Atom  18C    basis set group =>   1
Atom  19H    basis set group =>   2
Atom  20H    basis set group =>   2
Atom  21C    basis set group =>   1
Atom  22H    basis set group =>   2
Atom  23H    basis set group =>   2
Atom  24C    basis set group =>   1
Atom  25H    basis set group =>   2
Atom  26H    basis set group =>   2
Atom  27C    basis set group =>   1
Atom  28H    basis set group =>   2
Atom  29H    basis set group =>   2
Atom  30C    basis set group =>   1
Atom  31H    basis set group =>   2
Atom  32H    basis set group =>   2
Atom  33C    basis set group =>   1
Atom  34H    basis set group =>   2
Atom  35H    basis set group =>   2
Atom  36C    basis set group =>   1
Atom  37C    basis set group =>   1
Atom  38C    basis set group =>   1
Atom  39C    basis set group =>   1
Atom  40C    basis set group =>   1
Atom  41C    basis set group =>   1
Atom  42H    basis set group =>   2
Atom  43H    basis set group =>   2
Atom  44H    basis set group =>   2
Atom  45H    basis set group =>   2
Atom  46H    basis set group =>   2
----------------------------------
AUXILIARY/JK BASIS SET INFORMATION
----------------------------------
There are 2 groups of distinct atoms

 Group   1 Type C   : 14s11p10d2f contracted to 14s11p10d2f pattern {11111111111111/11111111111/1111111111/11}
 Group   2 Type H   : 9s2p1d contracted to 9s2p1d pattern {111111111/11/1}

Atom   0C    basis set group =>   1
Atom   1C    basis set group =>   1
Atom   2C    basis set group =>   1
Atom   3C    basis set group =>   1
Atom   4C    basis set group =>   1
Atom   5C    basis set group =>   1
Atom   6C    basis set group =>   1
Atom   7H    basis set group =>   2
Atom   8H    basis set group =>   2
Atom   9C    basis set group =>   1
Atom  10H    basis set group =>   2
Atom  11H    basis set group =>   2
Atom  12C    basis set group =>   1
Atom  13H    basis set group =>   2
Atom  14H    basis set group =>   2
Atom  15C    basis set group =>   1
Atom  16H    basis set group =>   2
Atom  17H    basis set group =>   2
Atom  18C    basis set group =>   1
Atom  19H    basis set group =>   2
Atom  20H    basis set group =>   2
Atom  21C    basis set group =>   1
Atom  22H    basis set group =>   2
Atom  23H    basis set group =>   2
Atom  24C    basis set group =>   1
Atom  25H    basis set group =>   2
Atom  26H    basis set group =>   2
Atom  27C    basis set group =>   1
Atom  28H    basis set group =>   2
Atom  29H    basis set group =>   2
Atom  30C    basis set group =>   1
Atom  31H    basis set group =>   2
Atom  32H    basis set group =>   2
Atom  33C    basis set group =>   1
Atom  34H    basis set group =>   2
Atom  35H    basis set group =>   2
Atom  36C    basis set group =>   1
Atom  37C    basis set group =>   1
Atom  38C    basis set group =>   1
Atom  39C    basis set group =>   1
Atom  40C    basis set group =>   1
Atom  41C    basis set group =>   1
Atom  42H    basis set group =>   2
Atom  43H    basis set group =>   2
Atom  44H    basis set group =>   2
Atom  45H    basis set group =>   2
Atom  46H    basis set group =>   2


           ************************************************************
           *        Program running with 16 parallel MPI-processes    *
           *              working on a common directory               *
           ************************************************************
------------------------------------------------------------------------------
                           ORCA GTO INTEGRAL CALCULATION
------------------------------------------------------------------------------

                         BASIS SET STATISTICS AND STARTUP INFO

 # of primitive gaussian shells          ...  609
 # of primitive gaussian functions       ...  923
 # of contracted shells                  ...  207
 # of contracted basis functions         ...  433
 Highest angular momentum                ...    2
 Maximum contraction depth               ...    8
 Integral package used                   ... LIBINT
 Integral threshhold            Thresh   ...  1.000e-10
 Primitive cut-off              TCut     ...  1.000e-11


------------------------------ INTEGRAL EVALUATION ----------------------------


 * One electron integrals 
 Pre-screening matrix                    ... done
 Shell pair data                         ... done (   0.008 sec)



           ************************************************************
           *        Program running with 16 parallel MPI-processes    *
           *              working on a common directory               *
           ************************************************************
-------------------------------------------------------------------------------
                                 ORCA SCF
-------------------------------------------------------------------------------

------------
SCF SETTINGS
------------
Hamiltonian:
 Density Functional     Method          .... DFT(GTOs)
 Exchange Functional    Exchange        .... B88
   X-Alpha parameter    XAlpha          ....  0.666667
   Becke's b parameter  XBeta           ....  0.004200
 Correlation Functional Correlation     .... LYP
 LDA part of GGA corr.  LDAOpt          .... VWN-5
 Gradients option       PostSCFGGA      .... off
 Hybrid DFT is turned on
   Fraction HF Exchange ScalHFX         ....  0.200000
   Scaling of DF-GGA-X  ScalDFX         ....  0.720000
   Scaling of DF-GGA-C  ScalDFC         ....  0.810000
   Scaling of DF-LDA-C  ScalLDAC        ....  1.000000
   Perturbative correction              ....  0.000000
   Density functional embedding theory  .... OFF
   NL short-range parameter             ....  4.800000


General Settings:
 Integral files         IntName         .... cc-pVDZ_i
 Hartree-Fock type      HFTyp           .... UHF
 Total Charge           Charge          ....    0
 Multiplicity           Mult            ....    2
 Number of Electrons    NEL             ....  157
 Basis Dimension        Dim             ....  433
 Nuclear Repulsion      ENuc            ....   1524.5171807111 Eh

Convergence Acceleration:
 DIIS                   CNVDIIS         .... on
   Start iteration      DIISMaxIt       ....    12
   Startup error        DIISStart       ....  0.200000
   # of expansion vecs  DIISMaxEq       ....     5
   Bias factor          DIISBfac        ....   1.050
   Max. coefficient     DIISMaxC        ....  10.000
 Newton-Raphson         CNVNR           .... off
 SOSCF                  CNVSOSCF        .... off
 Level Shifting         CNVShift        .... on
   Level shift para.    LevelShift      ....    0.2500
   Turn off err/grad.   ShiftErr        ....    0.0010
 Zerner damping         CNVZerner       .... off
 Static damping         CNVDamp         .... on
   Fraction old density DampFac         ....    0.7000
   Max. Damping (<1)    DampMax         ....    0.9800
   Min. Damping (>=0)   DampMin         ....    0.0000
   Turn off err/grad.   DampErr         ....    0.1000
 Fernandez-Rico         CNVRico         .... off

SCF Procedure:
 Maximum # iterations   MaxIter         ....   125
 SCF integral mode      SCFMode         .... Direct
   Integral package                     .... LIBINT
 Reset frequency        DirectResetFreq ....    20
 Integral Threshold     Thresh          ....  1.000e-10 Eh
 Primitive CutOff       TCut            ....  1.000e-11 Eh

Convergence Tolerance:
 Convergence Check Mode ConvCheckMode   .... Total+1el-Energy
 Convergence forced     ConvForced      .... 0
 Energy Change          TolE            ....  1.000e-06 Eh
 1-El. energy change                    ....  1.000e-03 Eh
 DIIS Error             TolErr          ....  1.000e-06


Diagonalization of the overlap matrix:
Smallest eigenvalue                        ... 5.296e-05
Time for diagonalization                   ...    0.040 sec
Threshold for overlap eigenvalues          ... 1.000e-08
Number of eigenvalues below threshold      ... 0
Time for construction of square roots      ...    0.042 sec
Total time needed                          ...    0.083 sec

-------------------
DFT GRID GENERATION
-------------------

General Integration Accuracy     IntAcc      ...  4.340
Radial Grid Type                 RadialGrid  ... Gauss-Chebyshev
Angular Grid (max. acc.)         AngularGrid ... Lebedev-110
Angular grid pruning method      GridPruning ... 3 (G Style)
Weight generation scheme         WeightScheme... Becke
Basis function cutoff            BFCut       ...    1.0000e-10
Integration weight cutoff        WCut        ...    1.0000e-14
Grids for H and He will be reduced by one unit

# of grid points (after initial pruning)     ...  56282 (   0.0 sec)
# of grid points (after weights+screening)   ...  50314 (   0.1 sec)
nearest neighbour list constructed           ...    0.0 sec
Grid point re-assignment to atoms done       ...    0.0 sec
Grid point division into batches done        ...    0.1 sec
Reduced shell lists constructed in    0.2 sec

Total number of grid points                  ...    50314
Total number of batches                      ...      809
Average number of points per batch           ...       62
Average number of grid points per atom       ...     1071
Average number of shells per batch           ...   103.04 (49.78%)
Average number of basis functions per batch  ...   206.00 (47.58%)
Average number of large shells per batch     ...    63.77 (61.89%)
Average number of large basis fcns per batch ...   133.42 (64.77%)
Maximum spatial batch extension              ...   8.09,  4.79, 40.11 au
Average spatial batch extension              ...   0.13,  0.14,  0.23 au

Time for grid setup =    0.328 sec

------------------------------
INITIAL GUESS: MODEL POTENTIAL
------------------------------
Loading Hartree-Fock densities                     ... done
Calculating cut-offs                               ... done
Setting up the integral package                    ... done
Initializing the effective Hamiltonian             ... done
Starting the Coulomb interaction                   ... done (   0.2 sec)
Reading the grid                                   ... done
Mapping shells                                     ... done
Starting the XC term evaluation                    ... done (   0.1 sec)
  promolecular density results
     # of electrons  =    157.024484220
     EX              =   -120.432898960
     EC              =     -5.156684727
     EX+EC           =   -125.589583687
Transforming the Hamiltonian                       ... done (   0.0 sec)
Diagonalizing the Hamiltonian                      ... done (   0.0 sec)
Back transforming the eigenvectors                 ... done (   0.0 sec)
Now organizing SCF variables                       ... done
                      ------------------
                      INITIAL GUESS DONE (   0.9 sec)
                      ------------------
--------------
SCF ITERATIONS
--------------
ITER       Energy         Delta-E        Max-DP      RMS-DP      [F,P]     Damp
               ***  Starting incremental Fock matrix formation  ***
  0   -852.2398456310   0.000000000000 0.06761349  0.00081603  0.1735378 0.7000
  1   -852.4686154988  -0.228769867820 0.05852896  0.00065383  0.0913699 0.7000
                               ***Turning on DIIS***
  2   -852.5703182091  -0.101702710280 0.12095657  0.00125946  0.0349118 0.0000
  3   -852.7139414901  -0.143623280985 0.02727819  0.00036154  0.0497510 0.0000
  4   -852.7516357693  -0.037694279268 0.01687862  0.00015404  0.0102212 0.0000
  5   -852.7538329426  -0.002197173310 0.00320977  0.00003840  0.0026425 0.0000
  6   -852.7540332228  -0.000200280152 0.00262444  0.00002691  0.0006772 0.0000
  7   -852.7540835156  -0.000050292846 0.00082226  0.00000709  0.0006954 0.0000
  8   -852.7540933629  -0.000009847299 0.00058552  0.00000479  0.0008263 0.0000
  9   -852.7540995231  -0.000006160168 0.00050902  0.00000371  0.0004012 0.0000
 10   -852.7541032906  -0.000003767524 0.00056689  0.00000394  0.0001205 0.0000
 11   -852.7541062739  -0.000002983238 0.00020719  0.00000165  0.0000292 0.0000
 12   -852.7541072332  -0.000000959330 0.00028272  0.00000220  0.0000178 0.0000
 13   -852.7541082376  -0.000001004383 0.00016519  0.00000142  0.0000127 0.0000
                 **** Energy Check signals convergence ****

               *****************************************************
               *                     SUCCESS                       *
               *           SCF CONVERGED AFTER  14 CYCLES          *
               *****************************************************

Setting up the final grid:

General Integration Accuracy     IntAcc      ...  4.670
Radial Grid Type                 RadialGrid  ... Gauss-Chebyshev
Angular Grid (max. acc.)         AngularGrid ... Lebedev-302
Angular grid pruning method      GridPruning ... 3 (G Style)
Weight generation scheme         WeightScheme... Becke
Basis function cutoff            BFCut       ...    1.0000e-10
Integration weight cutoff        WCut        ...    1.0000e-14
Grids for H and He will be reduced by one unit

# of grid points (after initial pruning)     ... 221514 (   0.0 sec)
# of grid points (after weights+screening)   ... 194595 (   0.5 sec)
nearest neighbour list constructed           ...    0.0 sec
Grid point re-assignment to atoms done       ...    0.1 sec
Grid point division into batches done        ...    0.8 sec
Reduced shell lists constructed in    1.1 sec

Total number of grid points                  ...   194595
Total number of batches                      ...     3067
Average number of points per batch           ...       63
Average number of grid points per atom       ...     4140
Average number of shells per batch           ...    95.95 (46.35%)
Average number of basis functions per batch  ...   191.78 (44.29%)
Average number of large shells per batch     ...    59.19 (61.69%)
Average number of large basis fcns per batch ...   123.89 (64.60%)
Maximum spatial batch extension              ...   8.66,  4.00, 16.86 au
Average spatial batch extension              ...   0.09,  0.09,  0.11 au

Final grid set up in    1.6 sec
Final integration                            ... done (   0.5 sec)
Change in XC energy                          ...     0.002685688
Integrated number of electrons               ...   157.000311913
Previous integrated no of electrons          ...   157.020047461

----------------
TOTAL SCF ENERGY
----------------

Total Energy       :         -852.75142301 Eh          -23204.54592 eV

Components:
Nuclear Repulsion  :         1524.51718071 Eh           41484.22150 eV
Electronic Energy  :        -2377.26860372 Eh          -64688.76742 eV
One Electron Energy:        -4176.93521431 Eh         -113660.18555 eV
Two Electron Energy:         1799.66661059 Eh           48971.41813 eV

Virial components:
Potential Energy   :        -1699.50547959 Eh          -46245.89520 eV
Kinetic Energy     :          846.75405658 Eh           23041.34928 eV
Virial Ratio       :            2.00708277


DFT components:
N(Alpha)           :       79.000152126881 electrons
N(Beta)            :       78.000159785732 electrons
N(Total)           :      157.000311912614 electrons
E(X)               :      -97.441668782800 Eh       
E(C)               :       -6.088218305693 Eh       
E(XC)              :     -103.529887088493 Eh       
DFET-embed. en.    :        0.000000000000 Eh       

---------------
SCF CONVERGENCE
---------------

  Last Energy change         ...   -4.5712e-07  Tolerance :   1.0000e-06
  Last MAX-Density change    ...    1.0668e-04  Tolerance :   1.0000e-05
  Last RMS-Density change    ...    9.4724e-07  Tolerance :   1.0000e-06
  Last DIIS Error            ...    1.4867e-05  Tolerance :   1.0000e-06

             **** THE GBW FILE WAS UPDATED (cc-pVDZ_i.gbw) ****
             **** DENSITY FILE WAS UPDATED (cc-pVDZ_i.scfp) ****
             **** ENERGY FILE WAS UPDATED (cc-pVDZ_i.en.tmp) ****
----------------------
UHF SPIN CONTAMINATION
----------------------

Warning: in a DFT calculation there is little theoretical justification to 
         calculate <S**2> as in Hartree-Fock theory. We will do it anyways
         but you should keep in mind that the values have only limited relevance

Expectation value of <S**2>     :     0.758554
Ideal value S*(S+1) for S=0.5   :     0.750000
Deviation                       :     0.008554

             **** THE GBW FILE WAS UPDATED (cc-pVDZ_i.gbw) ****
             **** DENSITY FILE WAS UPDATED (cc-pVDZ_i.scfp) ****
----------------
ORBITAL ENERGIES
----------------
                 SPIN UP ORBITALS
  NO   OCC          E(Eh)            E(eV) 
   0   1.0000     -10.213800      -277.9316 
   1   1.0000     -10.206877      -277.7432 
   2   1.0000     -10.203441      -277.6497 
   3   1.0000     -10.203170      -277.6424 
   4   1.0000     -10.199675      -277.5473 
   5   1.0000     -10.194534      -277.4074 
   6   1.0000     -10.194343      -277.4022 
   7   1.0000     -10.194200      -277.3983 
   8   1.0000     -10.193622      -277.3826 
   9   1.0000     -10.193199      -277.3711 
  10   1.0000     -10.192948      -277.3642 
  11   1.0000     -10.191211      -277.3169 
  12   1.0000     -10.190379      -277.2943 
  13   1.0000     -10.186955      -277.2012 
  14   1.0000     -10.185981      -277.1746 
  15   1.0000     -10.183766      -277.1144 
  16   1.0000     -10.183050      -277.0949 
  17   1.0000     -10.182881      -277.0903 
  18   1.0000     -10.182670      -277.0845 
  19   1.0000     -10.182497      -277.0798 
  20   1.0000     -10.176541      -276.9178 
  21   1.0000     -10.176384      -276.9135 
  22   1.0000      -0.870700       -23.6929 
  23   1.0000      -0.860757       -23.4224 
  24   1.0000      -0.814007       -22.1503 
  25   1.0000      -0.796086       -21.6626 
  26   1.0000      -0.786824       -21.4106 
  27   1.0000      -0.769990       -20.9525 
  28   1.0000      -0.760158       -20.6850 
  29   1.0000      -0.748575       -20.3698 
  30   1.0000      -0.732469       -19.9315 
  31   1.0000      -0.712433       -19.3863 
  32   1.0000      -0.698402       -19.0045 
  33   1.0000      -0.652850       -17.7649 
  34   1.0000      -0.630649       -17.1608 
  35   1.0000      -0.617723       -16.8091 
  36   1.0000      -0.606763       -16.5109 
  37   1.0000      -0.605596       -16.4791 
  38   1.0000      -0.582158       -15.8413 
  39   1.0000      -0.577292       -15.7089 
  40   1.0000      -0.563300       -15.3282 
  41   1.0000      -0.534627       -14.5479 
  42   1.0000      -0.506553       -13.7840 
  43   1.0000      -0.477786       -13.0012 
  44   1.0000      -0.471935       -12.8420 
  45   1.0000      -0.471696       -12.8355 
  46   1.0000      -0.470616       -12.8061 
  47   1.0000      -0.455233       -12.3875 
  48   1.0000      -0.441054       -12.0017 
  49   1.0000      -0.434764       -11.8305 
  50   1.0000      -0.427629       -11.6364 
  51   1.0000      -0.424094       -11.5402 
  52   1.0000      -0.422647       -11.5008 
  53   1.0000      -0.421920       -11.4810 
  54   1.0000      -0.417262       -11.3543 
  55   1.0000      -0.413880       -11.2623 
  56   1.0000      -0.411964       -11.2101 
  57   1.0000      -0.381095       -10.3701 
  58   1.0000      -0.378612       -10.3026 
  59   1.0000      -0.372628       -10.1397 
  60   1.0000      -0.366245        -9.9660 
  61   1.0000      -0.364431        -9.9167 
  62   1.0000      -0.358004        -9.7418 
  63   1.0000      -0.357152        -9.7186 
  64   1.0000      -0.348158        -9.4739 
  65   1.0000      -0.341261        -9.2862 
  66   1.0000      -0.334296        -9.0967 
  67   1.0000      -0.332073        -9.0362 
  68   1.0000      -0.327617        -8.9149 
  69   1.0000      -0.325030        -8.8445 
  70   1.0000      -0.323117        -8.7925 
  71   1.0000      -0.323017        -8.7897 
  72   1.0000      -0.312207        -8.4956 
  73   1.0000      -0.268014        -7.2930 
  74   1.0000      -0.265569        -7.2265 
  75   1.0000      -0.256375        -6.9763 
  76   1.0000      -0.242195        -6.5905 
  77   1.0000      -0.235914        -6.4196 
  78   1.0000      -0.209082        -5.6894 
  79   0.0000      -0.049600        -1.3497 
  80   0.0000      -0.008031        -0.2185 
  81   0.0000      -0.003182        -0.0866 
  82   0.0000       0.006237         0.1697 
  83   0.0000       0.048258         1.3132 
  84   0.0000       0.055719         1.5162 
  85   0.0000       0.059662         1.6235 
  86   0.0000       0.063136         1.7180 
  87   0.0000       0.079697         2.1687 
  88   0.0000       0.083138         2.2623 
  89   0.0000       0.084094         2.2883 
  90   0.0000       0.090050         2.4504 
  91   0.0000       0.093178         2.5355 
  92   0.0000       0.093539         2.5453 
  93   0.0000       0.102019         2.7761 
  94   0.0000       0.104932         2.8554 
  95   0.0000       0.114546         3.1170 
  96   0.0000       0.126310         3.4371 
  97   0.0000       0.129069         3.5122 
  98   0.0000       0.138256         3.7621 
  99   0.0000       0.142420         3.8755 
 100   0.0000       0.142553         3.8791 
 101   0.0000       0.145250         3.9525 
 102   0.0000       0.152509         4.1500 
 103   0.0000       0.156879         4.2689 
 104   0.0000       0.157731         4.2921 
 105   0.0000       0.160771         4.3748 
 106   0.0000       0.161881         4.4050 
 107   0.0000       0.166093         4.5196 
 108   0.0000       0.173906         4.7322 
 109   0.0000       0.176247         4.7959 
 110   0.0000       0.184793         5.0285 
 111   0.0000       0.206482         5.6187 
 112   0.0000       0.208430         5.6717 
 113   0.0000       0.212099         5.7715 
 114   0.0000       0.213858         5.8194 
 115   0.0000       0.223018         6.0686 
 116   0.0000       0.225114         6.1257 
 117   0.0000       0.233654         6.3581 
 118   0.0000       0.239101         6.5063 
 119   0.0000       0.267010         7.2657 
 120   0.0000       0.273150         7.4328 
 121   0.0000       0.280819         7.6415 
 122   0.0000       0.286179         7.7873 
 123   0.0000       0.293124         7.9763 
 124   0.0000       0.310080         8.4377 
 125   0.0000       0.314022         8.5450 
 126   0.0000       0.332910         9.0589 
 127   0.0000       0.346620         9.4320 
 128   0.0000       0.354261         9.6399 
 129   0.0000       0.366967         9.9857 
 130   0.0000       0.381702        10.3866 
 131   0.0000       0.401829        10.9343 
 132   0.0000       0.403472        10.9790 
 133   0.0000       0.410976        11.1832 
 134   0.0000       0.411454        11.1962 
 135   0.0000       0.418512        11.3883 
 136   0.0000       0.419269        11.4089 
 137   0.0000       0.428844        11.6694 
 138   0.0000       0.432854        11.7785 
 139   0.0000       0.441965        12.0265 
 140   0.0000       0.446119        12.1395 
 141   0.0000       0.454115        12.3571 
 142   0.0000       0.455151        12.3853 
 143   0.0000       0.471533        12.8311 
 144   0.0000       0.474822        12.9206 
 145   0.0000       0.481655        13.1065 
 146   0.0000       0.482652        13.1336 
 147   0.0000       0.488183        13.2841 
 148   0.0000       0.490487        13.3468 
 149   0.0000       0.493646        13.4328 
 150   0.0000       0.506896        13.7933 
 151   0.0000       0.509181        13.8555 
 152   0.0000       0.511277        13.9125 
 153   0.0000       0.512118        13.9354 
 154   0.0000       0.516829        14.0636 
 155   0.0000       0.516987        14.0679 
 156   0.0000       0.519489        14.1360 
 157   0.0000       0.524731        14.2787 
 158   0.0000       0.528264        14.3748 
 159   0.0000       0.541605        14.7378 
 160   0.0000       0.548503        14.9255 
 161   0.0000       0.549673        14.9574 
 162   0.0000       0.566587        15.4176 
 163   0.0000       0.570623        15.5274 
 164   0.0000       0.581598        15.8261 
 165   0.0000       0.586528        15.9602 
 166   0.0000       0.593527        16.1507 
 167   0.0000       0.596494        16.2314 
 168   0.0000       0.601847        16.3771 
 169   0.0000       0.615116        16.7382 
 170   0.0000       0.616667        16.7804 
 171   0.0000       0.621606        16.9148 
 172   0.0000       0.622061        16.9271 
 173   0.0000       0.629471        17.1288 
 174   0.0000       0.634406        17.2631 
 175   0.0000       0.636299        17.3146 
 176   0.0000       0.639877        17.4119 
 177   0.0000       0.641836        17.4652 
 178   0.0000       0.642817        17.4919 
 179   0.0000       0.652240        17.7483 
 180   0.0000       0.653112        17.7721 
 181   0.0000       0.657846        17.9009 
 182   0.0000       0.658235        17.9115 
 183   0.0000       0.659299        17.9404 
 184   0.0000       0.660130        17.9631 
 185   0.0000       0.669622        18.2213 
 186   0.0000       0.672251        18.2929 
 187   0.0000       0.675061        18.3693 
 188   0.0000       0.676414        18.4062 
 189   0.0000       0.679002        18.4766 
 190   0.0000       0.683000        18.5854 
 191   0.0000       0.687580        18.7100 
 192   0.0000       0.691304        18.8113 
 193   0.0000       0.692001        18.8303 
 194   0.0000       0.697819        18.9886 
 195   0.0000       0.702027        19.1031 
 196   0.0000       0.704610        19.1734 
 197   0.0000       0.706786        19.2326 
 198   0.0000       0.715801        19.4779 
 199   0.0000       0.722490        19.6600 
 200   0.0000       0.725547        19.7431 
 201   0.0000       0.735129        20.0039 
 202   0.0000       0.735885        20.0245 
 203   0.0000       0.746229        20.3059 
 204   0.0000       0.749920        20.4064 
 205   0.0000       0.765499        20.8303 
 206   0.0000       0.777311        21.1517 
 207   0.0000       0.794042        21.6070 
 208   0.0000       0.810080        22.0434 
 209   0.0000       0.814890        22.1743 
 210   0.0000       0.824055        22.4237 
 211   0.0000       0.833620        22.6839 
 212   0.0000       0.838739        22.8233 
 213   0.0000       0.839155        22.8346 
 214   0.0000       0.857646        23.3377 
 215   0.0000       0.867021        23.5929 
 216   0.0000       0.873245        23.7622 
 217   0.0000       0.891348        24.2548 
 218   0.0000       0.893876        24.3236 
 219   0.0000       0.903675        24.5902 
 220   0.0000       0.912754        24.8373 
 221   0.0000       0.923730        25.1360 
 222   0.0000       0.939866        25.5751 
 223   0.0000       0.940208        25.5844 
 224   0.0000       0.948687        25.8151 
 225   0.0000       0.965787        26.2804 
 226   0.0000       0.972248        26.4562 
 227   0.0000       0.982804        26.7435 
 228   0.0000       0.984401        26.7869 
 229   0.0000       1.002375        27.2760 
 230   0.0000       1.008407        27.4401 
 231   0.0000       1.013336        27.5743 
 232   0.0000       1.016647        27.6644 
 233   0.0000       1.023666        27.8554 
 234   0.0000       1.040967        28.3261 
 235   0.0000       1.041734        28.3470 
 236   0.0000       1.046099        28.4658 
 237   0.0000       1.054082        28.6830 
 238   0.0000       1.060792        28.8656 
 239   0.0000       1.075562        29.2675 
 240   0.0000       1.080304        29.3966 
 241   0.0000       1.098199        29.8835 
 242   0.0000       1.115495        30.3542 
 243   0.0000       1.116876        30.3917 
 244   0.0000       1.124914        30.6105 
 245   0.0000       1.147623        31.2284 
 246   0.0000       1.152152        31.3516 
 247   0.0000       1.175697        31.9923 
 248   0.0000       1.192437        32.4479 
 249   0.0000       1.198104        32.6021 
 250   0.0000       1.204142        32.7664 
 251   0.0000       1.204822        32.7849 
 252   0.0000       1.208832        32.8940 
 253   0.0000       1.217134        33.1199 
 254   0.0000       1.220023        33.1985 
 255   0.0000       1.220329        33.2068 
 256   0.0000       1.222375        33.2625 
 257   0.0000       1.232019        33.5250 
 258   0.0000       1.273642        34.6576 
 259   0.0000       1.287034        35.0220 
 260   0.0000       1.295813        35.2609 
 261   0.0000       1.301412        35.4132 
 262   0.0000       1.310076        35.6490 
 263   0.0000       1.317985        35.8642 
 264   0.0000       1.331928        36.2436 
 265   0.0000       1.347770        36.6747 
 266   0.0000       1.353492        36.8304 
 267   0.0000       1.370081        37.2818 
 268   0.0000       1.395057        37.9614 
 269   0.0000       1.405532        38.2465 
 270   0.0000       1.422431        38.7063 
 271   0.0000       1.425475        38.7892 
 272   0.0000       1.426325        38.8123 
 273   0.0000       1.430484        38.9255 
 274   0.0000       1.437070        39.1047 
 275   0.0000       1.446551        39.3627 
 276   0.0000       1.474487        40.1228 
 277   0.0000       1.476139        40.1678 
 278   0.0000       1.476493        40.1774 
 279   0.0000       1.484615        40.3984 
 280   0.0000       1.485860        40.4323 
 281   0.0000       1.492110        40.6024 
 282   0.0000       1.498674        40.7810 
 283   0.0000       1.515209        41.2309 
 284   0.0000       1.531857        41.6840 
 285   0.0000       1.533165        41.7195 
 286   0.0000       1.544154        42.0186 
 287   0.0000       1.545028        42.0423 
 288   0.0000       1.569738        42.7147 
 289   0.0000       1.586840        43.1801 
 290   0.0000       1.593722        43.3674 
 291   0.0000       1.600305        43.5465 
 292   0.0000       1.600525        43.5525 
 293   0.0000       1.603670        43.6381 
 294   0.0000       1.608538        43.7705 
 295   0.0000       1.614283        43.9269 
 296   0.0000       1.615665        43.9645 
 297   0.0000       1.626151        44.2498 
 298   0.0000       1.627522        44.2871 
 299   0.0000       1.628432        44.3119 
 300   0.0000       1.632290        44.4169 
 301   0.0000       1.638586        44.5882 
 302   0.0000       1.640532        44.6411 
 303   0.0000       1.645519        44.7768 
 304   0.0000       1.646788        44.8114 
 305   0.0000       1.648041        44.8455 
 306   0.0000       1.652312        44.9617 
 307   0.0000       1.657637        45.1066 
 308   0.0000       1.669746        45.4361 
 309   0.0000       1.672557        45.5126 
 310   0.0000       1.680865        45.7387 
 311   0.0000       1.684049        45.8253 
 312   0.0000       1.684531        45.8384 
 313   0.0000       1.686634        45.8957 
 314   0.0000       1.693630        46.0860 
 315   0.0000       1.694752        46.1165 
 316   0.0000       1.697915        46.2026 
 317   0.0000       1.702664        46.3318 
 318   0.0000       1.708653        46.4948 
 319   0.0000       1.713420        46.6245 
 320   0.0000       1.718582        46.7650 
 321   0.0000       1.722013        46.8584 
 322   0.0000       1.729258        47.0555 
 323   0.0000       1.729859        47.0718 
 324   0.0000       1.743048        47.4307 
 325   0.0000       1.750908        47.6446 
 326   0.0000       1.762758        47.9671 
 327   0.0000       1.764222        48.0069 
 328   0.0000       1.770868        48.1878 
 329   0.0000       1.773553        48.2608 
 330   0.0000       1.778423        48.3934 
 331   0.0000       1.788376        48.6642 
 332   0.0000       1.790142        48.7122 
 333   0.0000       1.797931        48.9242 
 334   0.0000       1.801849        49.0308 
 335   0.0000       1.802039        49.0360 
 336   0.0000       1.817697        49.4620 
 337   0.0000       1.831256        49.8310 
 338   0.0000       1.837654        50.0051 
 339   0.0000       1.839940        50.0673 
 340   0.0000       1.841427        50.1078 
 341   0.0000       1.847060        50.2611 
 342   0.0000       1.849424        50.3254 
 343   0.0000       1.857036        50.5325 
 344   0.0000       1.861059        50.6420 
 345   0.0000       1.864721        50.7416 
 346   0.0000       1.876478        51.0616 
 347   0.0000       1.898091        51.6497 
 348   0.0000       1.914759        52.1032 
 349   0.0000       1.922744        52.3205 
 350   0.0000       1.928401        52.4745 
 351   0.0000       1.934457        52.6392 
 352   0.0000       1.937722        52.7281 
 353   0.0000       1.938913        52.7605 
 354   0.0000       1.964009        53.4434 
 355   0.0000       1.964942        53.4688 
 356   0.0000       1.974715        53.7347 
 357   0.0000       1.974945        53.7410 
 358   0.0000       1.986872        54.0655 
 359   0.0000       1.994109        54.2625 
 360   0.0000       1.999971        54.4220 
 361   0.0000       2.012563        54.7646 
 362   0.0000       2.021650        55.0119 
 363   0.0000       2.033132        55.3243 
 364   0.0000       2.058903        56.0256 
 365   0.0000       2.077892        56.5423 
 366   0.0000       2.089192        56.8498 
 367   0.0000       2.106702        57.3263 
 368   0.0000       2.108523        57.3758 
 369   0.0000       2.128277        57.9134 
 370   0.0000       2.130976        57.9868 
 371   0.0000       2.160992        58.8036 
 372   0.0000       2.166978        58.9665 
 373   0.0000       2.190735        59.6129 
 374   0.0000       2.195289        59.7369 
 375   0.0000       2.202142        59.9233 
 376   0.0000       2.206500        60.0419 
 377   0.0000       2.209394        60.1207 
 378   0.0000       2.211022        60.1650 
 379   0.0000       2.222192        60.4689 
 380   0.0000       2.227845        60.6227 
 381   0.0000       2.238161        60.9035 
 382   0.0000       2.245438        61.1015 
 383   0.0000       2.271567        61.8125 
 384   0.0000       2.279063        62.0165 
 385   0.0000       2.302020        62.6411 
 386   0.0000       2.302120        62.6439 
 387   0.0000       2.309636        62.8484 
 388   0.0000       2.315810        63.0164 
 389   0.0000       2.317934        63.0742 
 390   0.0000       2.325236        63.2729 
 391   0.0000       2.350131        63.9503 
 392   0.0000       2.363317        64.3091 
 393   0.0000       2.395576        65.1869 
 394   0.0000       2.399359        65.2899 
 395   0.0000       2.410628        65.5965 
 396   0.0000       2.411385        65.6171 
 397   0.0000       2.411916        65.6316 
 398   0.0000       2.416678        65.7611 
 399   0.0000       2.418715        65.8166 
 400   0.0000       2.422248        65.9127 
 401   0.0000       2.428908        66.0939 
 402   0.0000       2.442563        66.4655 
 403   0.0000       2.455904        66.8286 
 404   0.0000       2.475356        67.3579 
 405   0.0000       2.495225        67.8985 
 406   0.0000       2.515487        68.4499 
 407   0.0000       2.530749        68.8652 
 408   0.0000       2.532656        68.9171 
 409   0.0000       2.541201        69.1496 
 410   0.0000       2.551547        69.4311 
 411   0.0000       2.581060        70.2342 
 412   0.0000       2.589068        70.4521 
 413   0.0000       2.602451        70.8163 
 414   0.0000       2.619427        71.2782 
 415   0.0000       2.628023        71.5122 
 416   0.0000       2.651874        72.1612 
 417   0.0000       2.664600        72.5075 
 418   0.0000       2.709007        73.7158 
 419   0.0000       2.711694        73.7890 
 420   0.0000       2.712388        73.8078 
 421   0.0000       2.714909        73.8764 
 422   0.0000       2.721660        74.0601 
 423   0.0000       2.724316        74.1324 
 424   0.0000       2.747125        74.7531 
 425   0.0000       2.788762        75.8861 
 426   0.0000       2.824570        76.8605 
 427   0.0000       2.840088        77.2827 
 428   0.0000       2.882051        78.4246 
 429   0.0000       3.066537        83.4447 
 430   0.0000       3.083901        83.9172 
 431   0.0000       3.258302        88.6629 
 432   0.0000       3.585766        97.5737 

                 SPIN DOWN ORBITALS
  NO   OCC          E(Eh)            E(eV) 
   0   1.0000     -10.213751      -277.9303 
   1   1.0000     -10.207417      -277.7579 
   2   1.0000     -10.202115      -277.6137 
   3   1.0000     -10.199705      -277.5481 
   4   1.0000     -10.194585      -277.4088 
   5   1.0000     -10.194394      -277.4036 
   6   1.0000     -10.193652      -277.3834 
   7   1.0000     -10.193182      -277.3706 
   8   1.0000     -10.193038      -277.3667 
   9   1.0000     -10.192952      -277.3643 
  10   1.0000     -10.191406      -277.3223 
  11   1.0000     -10.189932      -277.2821 
  12   1.0000     -10.187843      -277.2253 
  13   1.0000     -10.186816      -277.1974 
  14   1.0000     -10.185940      -277.1735 
  15   1.0000     -10.183868      -277.1171 
  16   1.0000     -10.183045      -277.0947 
  17   1.0000     -10.182876      -277.0901 
  18   1.0000     -10.182662      -277.0843 
  19   1.0000     -10.182489      -277.0796 
  20   1.0000     -10.176537      -276.9176 
  21   1.0000     -10.176384      -276.9135 
  22   1.0000      -0.865009       -23.5381 
  23   1.0000      -0.860497       -23.4153 
  24   1.0000      -0.812275       -22.1031 
  25   1.0000      -0.795872       -21.6568 
  26   1.0000      -0.784535       -21.3483 
  27   1.0000      -0.768185       -20.9034 
  28   1.0000      -0.756228       -20.5780 
  29   1.0000      -0.748631       -20.3713 
  30   1.0000      -0.730604       -19.8807 
  31   1.0000      -0.709992       -19.3199 
  32   1.0000      -0.696362       -18.9490 
  33   1.0000      -0.651699       -17.7336 
  34   1.0000      -0.628792       -17.1103 
  35   1.0000      -0.615312       -16.7435 
  36   1.0000      -0.606736       -16.5101 
  37   1.0000      -0.600956       -16.3528 
  38   1.0000      -0.580715       -15.8021 
  39   1.0000      -0.572159       -15.5692 
  40   1.0000      -0.561064       -15.2673 
  41   1.0000      -0.533893       -14.5280 
  42   1.0000      -0.505058       -13.7433 
  43   1.0000      -0.477375       -12.9900 
  44   1.0000      -0.471612       -12.8332 
  45   1.0000      -0.470537       -12.8040 
  46   1.0000      -0.466845       -12.7035 
  47   1.0000      -0.455160       -12.3855 
  48   1.0000      -0.434725       -11.8295 
  49   1.0000      -0.433397       -11.7933 
  50   1.0000      -0.425471       -11.5777 
  51   1.0000      -0.422657       -11.5011 
  52   1.0000      -0.422194       -11.4885 
  53   1.0000      -0.421907       -11.4807 
  54   1.0000      -0.417152       -11.3513 
  55   1.0000      -0.412047       -11.2124 
  56   1.0000      -0.406973       -11.0743 
  57   1.0000      -0.381141       -10.3714 
  58   1.0000      -0.374534       -10.1916 
  59   1.0000      -0.371679       -10.1139 
  60   1.0000      -0.365209        -9.9378 
  61   1.0000      -0.361549        -9.8382 
  62   1.0000      -0.357620        -9.7313 
  63   1.0000      -0.356970        -9.7136 
  64   1.0000      -0.348164        -9.4740 
  65   1.0000      -0.340790        -9.2734 
  66   1.0000      -0.333639        -9.0788 
  67   1.0000      -0.330759        -9.0004 
  68   1.0000      -0.327071        -8.9000 
  69   1.0000      -0.324818        -8.8387 
  70   1.0000      -0.323024        -8.7899 
  71   1.0000      -0.321260        -8.7419 
  72   1.0000      -0.310594        -8.4517 
  73   1.0000      -0.265352        -7.2206 
  74   1.0000      -0.264964        -7.2100 
  75   1.0000      -0.256534        -6.9807 
  76   1.0000      -0.242279        -6.5927 
  77   1.0000      -0.205459        -5.5908 
  78   0.0000      -0.077362        -2.1051 
  79   0.0000      -0.045502        -1.2382 
  80   0.0000      -0.008171        -0.2223 
  81   0.0000      -0.003566        -0.0970 
  82   0.0000       0.010999         0.2993 
  83   0.0000       0.048355         1.3158 
  84   0.0000       0.055778         1.5178 
  85   0.0000       0.059684         1.6241 
  86   0.0000       0.063201         1.7198 
  87   0.0000       0.079860         2.1731 
  88   0.0000       0.084583         2.3016 
  89   0.0000       0.085354         2.3226 
  90   0.0000       0.090444         2.4611 
  91   0.0000       0.093556         2.5458 
  92   0.0000       0.093755         2.5512 
  93   0.0000       0.102080         2.7777 
  94   0.0000       0.106412         2.8956 
  95   0.0000       0.114638         3.1195 
  96   0.0000       0.127024         3.4565 
  97   0.0000       0.129896         3.5347 
  98   0.0000       0.138469         3.7679 
  99   0.0000       0.142908         3.8887 
 100   0.0000       0.143008         3.8914 
 101   0.0000       0.145306         3.9540 
 102   0.0000       0.152641         4.1536 
 103   0.0000       0.156970         4.2714 
 104   0.0000       0.157998         4.2994 
 105   0.0000       0.160782         4.3751 
 106   0.0000       0.162605         4.4247 
 107   0.0000       0.166499         4.5307 
 108   0.0000       0.174009         4.7350 
 109   0.0000       0.176842         4.8121 
 110   0.0000       0.187386         5.0990 
 111   0.0000       0.207925         5.6579 
 112   0.0000       0.209957         5.7132 
 113   0.0000       0.212435         5.7807 
 114   0.0000       0.215033         5.8513 
 115   0.0000       0.224341         6.1046 
 116   0.0000       0.227333         6.1860 
 117   0.0000       0.234348         6.3769 
 118   0.0000       0.239625         6.5205 
 119   0.0000       0.268514         7.3066 
 120   0.0000       0.275300         7.4913 
 121   0.0000       0.280812         7.6413 
 122   0.0000       0.286925         7.8076 
 123   0.0000       0.294574         8.0158 
 124   0.0000       0.312942         8.5156 
 125   0.0000       0.314949         8.5702 
 126   0.0000       0.337205         9.1758 
 127   0.0000       0.353792         9.6272 
 128   0.0000       0.357683         9.7330 
 129   0.0000       0.368897        10.0382 
 130   0.0000       0.382541        10.4095 
 131   0.0000       0.402633        10.9562 
 132   0.0000       0.411058        11.1855 
 133   0.0000       0.411474        11.1968 
 134   0.0000       0.415690        11.3115 
 135   0.0000       0.418551        11.3894 
 136   0.0000       0.419363        11.4114 
 137   0.0000       0.431250        11.7349 
 138   0.0000       0.435770        11.8579 
 139   0.0000       0.445874        12.1329 
 140   0.0000       0.449725        12.2376 
 141   0.0000       0.454043        12.3551 
 142   0.0000       0.458176        12.4676 
 143   0.0000       0.472836        12.8665 
 144   0.0000       0.474960        12.9243 
 145   0.0000       0.482419        13.1273 
 146   0.0000       0.484234        13.1767 
 147   0.0000       0.489918        13.3313 
 148   0.0000       0.492942        13.4136 
 149   0.0000       0.494767        13.4633 
 150   0.0000       0.507109        13.7991 
 151   0.0000       0.510136        13.8815 
 152   0.0000       0.511365        13.9149 
 153   0.0000       0.514929        14.0119 
 154   0.0000       0.516909        14.0658 
 155   0.0000       0.517458        14.0808 
 156   0.0000       0.523238        14.2380 
 157   0.0000       0.528460        14.3801 
 158   0.0000       0.529770        14.4158 
 159   0.0000       0.546565        14.8728 
 160   0.0000       0.549669        14.9573 
 161   0.0000       0.555197        15.1077 
 162   0.0000       0.572562        15.5802 
 163   0.0000       0.573997        15.6193 
 164   0.0000       0.583282        15.8719 
 165   0.0000       0.586703        15.9650 
 166   0.0000       0.596555        16.2331 
 167   0.0000       0.596968        16.2443 
 168   0.0000       0.602585        16.3972 
 169   0.0000       0.615460        16.7475 
 170   0.0000       0.618931        16.8420 
 171   0.0000       0.624091        16.9824 
 172   0.0000       0.624396        16.9907 
 173   0.0000       0.630068        17.1450 
 174   0.0000       0.634933        17.2774 
 175   0.0000       0.636354        17.3161 
 176   0.0000       0.641918        17.4675 
 177   0.0000       0.643257        17.5039 
 178   0.0000       0.643434        17.5087 
 179   0.0000       0.652634        17.7591 
 180   0.0000       0.654591        17.8123 
 181   0.0000       0.658390        17.9157 
 182   0.0000       0.658546        17.9199 
 183   0.0000       0.659579        17.9481 
 184   0.0000       0.660440        17.9715 
 185   0.0000       0.670289        18.2395 
 186   0.0000       0.672720        18.3056 
 187   0.0000       0.675058        18.3693 
 188   0.0000       0.676399        18.4057 
 189   0.0000       0.679038        18.4776 
 190   0.0000       0.685541        18.6545 
 191   0.0000       0.687968        18.7206 
 192   0.0000       0.693302        18.8657 
 193   0.0000       0.693765        18.8783 
 194   0.0000       0.699347        19.0302 
 195   0.0000       0.703313        19.1381 
 196   0.0000       0.705824        19.2064 
 197   0.0000       0.709646        19.3105 
 198   0.0000       0.716303        19.4916 
 199   0.0000       0.724086        19.7034 
 200   0.0000       0.725686        19.7469 
 201   0.0000       0.737560        20.0700 
 202   0.0000       0.739869        20.1329 
 203   0.0000       0.747266        20.3342 
 204   0.0000       0.750587        20.4245 
 205   0.0000       0.769247        20.9323 
 206   0.0000       0.778286        21.1782 
 207   0.0000       0.795027        21.6338 
 208   0.0000       0.811911        22.0932 
 209   0.0000       0.815688        22.1960 
 210   0.0000       0.826562        22.4919 
 211   0.0000       0.834957        22.7203 
 212   0.0000       0.839390        22.8410 
 213   0.0000       0.839769        22.8513 
 214   0.0000       0.858377        23.3576 
 215   0.0000       0.867094        23.5948 
 216   0.0000       0.873728        23.7754 
 217   0.0000       0.892247        24.2793 
 218   0.0000       0.897479        24.4216 
 219   0.0000       0.903640        24.5893 
 220   0.0000       0.912866        24.8403 
 221   0.0000       0.925360        25.1803 
 222   0.0000       0.940182        25.5837 
 223   0.0000       0.943128        25.6638 
 224   0.0000       0.950728        25.8706 
 225   0.0000       0.967408        26.3245 
 226   0.0000       0.973702        26.4958 
 227   0.0000       0.983324        26.7576 
 228   0.0000       0.985904        26.8278 
 229   0.0000       1.002420        27.2772 
 230   0.0000       1.011129        27.5142 
 231   0.0000       1.016026        27.6475 
 232   0.0000       1.017611        27.6906 
 233   0.0000       1.024167        27.8690 
 234   0.0000       1.042634        28.3715 
 235   0.0000       1.044008        28.4089 
 236   0.0000       1.048082        28.5198 
 237   0.0000       1.059130        28.8204 
 238   0.0000       1.060665        28.8622 
 239   0.0000       1.077801        29.3285 
 240   0.0000       1.085283        29.5321 
 241   0.0000       1.103997        30.0413 
 242   0.0000       1.117211        30.4008 
 243   0.0000       1.125589        30.6288 
 244   0.0000       1.132403        30.8143 
 245   0.0000       1.148395        31.2494 
 246   0.0000       1.153904        31.3993 
 247   0.0000       1.178399        32.0659 
 248   0.0000       1.193347        32.4726 
 249   0.0000       1.198185        32.6043 
 250   0.0000       1.204206        32.7681 
 251   0.0000       1.207639        32.8615 
 252   0.0000       1.209138        32.9023 
 253   0.0000       1.217351        33.1258 
 254   0.0000       1.220905        33.2225 
 255   0.0000       1.221213        33.2309 
 256   0.0000       1.222421        33.2638 
 257   0.0000       1.231991        33.5242 
 258   0.0000       1.275634        34.7118 
 259   0.0000       1.291123        35.1332 
 260   0.0000       1.296081        35.2682 
 261   0.0000       1.303372        35.4665 
 262   0.0000       1.313634        35.7458 
 263   0.0000       1.319371        35.9019 
 264   0.0000       1.334101        36.3027 
 265   0.0000       1.348313        36.6895 
 266   0.0000       1.354851        36.8674 
 267   0.0000       1.370507        37.2934 
 268   0.0000       1.395302        37.9681 
 269   0.0000       1.407085        38.2887 
 270   0.0000       1.423676        38.7402 
 271   0.0000       1.425478        38.7892 
 272   0.0000       1.426748        38.8238 
 273   0.0000       1.437364        39.1127 
 274   0.0000       1.440767        39.2053 
 275   0.0000       1.451495        39.4972 
 276   0.0000       1.475350        40.1463 
 277   0.0000       1.476937        40.1895 
 278   0.0000       1.479648        40.2633 
 279   0.0000       1.485404        40.4199 
 280   0.0000       1.486361        40.4459 
 281   0.0000       1.492599        40.6157 
 282   0.0000       1.501044        40.8455 
 283   0.0000       1.516214        41.2583 
 284   0.0000       1.534458        41.7547 
 285   0.0000       1.535727        41.7893 
 286   0.0000       1.545865        42.0651 
 287   0.0000       1.550943        42.2033 
 288   0.0000       1.571258        42.7561 
 289   0.0000       1.588478        43.2247 
 290   0.0000       1.597491        43.4699 
 291   0.0000       1.601227        43.5716 
 292   0.0000       1.601678        43.5839 
 293   0.0000       1.603708        43.6391 
 294   0.0000       1.610222        43.8164 
 295   0.0000       1.615231        43.9527 
 296   0.0000       1.617629        44.0179 
 297   0.0000       1.627090        44.2754 
 298   0.0000       1.627611        44.2896 
 299   0.0000       1.628507        44.3139 
 300   0.0000       1.632406        44.4200 
 301   0.0000       1.639126        44.6029 
 302   0.0000       1.641351        44.6634 
 303   0.0000       1.646250        44.7967 
 304   0.0000       1.646784        44.8113 
 305   0.0000       1.649861        44.8950 
 306   0.0000       1.652493        44.9666 
 307   0.0000       1.659133        45.1473 
 308   0.0000       1.671402        45.4812 
 309   0.0000       1.673284        45.5324 
 310   0.0000       1.681342        45.7516 
 311   0.0000       1.684058        45.8255 
 312   0.0000       1.684709        45.8433 
 313   0.0000       1.693364        46.0788 
 314   0.0000       1.693715        46.0883 
 315   0.0000       1.694894        46.1204 
 316   0.0000       1.701049        46.2879 
 317   0.0000       1.702774        46.3348 
 318   0.0000       1.710761        46.5522 
 319   0.0000       1.713549        46.6280 
 320   0.0000       1.718663        46.7672 
 321   0.0000       1.724100        46.9151 
 322   0.0000       1.730235        47.0821 
 323   0.0000       1.730523        47.0899 
 324   0.0000       1.743575        47.4451 
 325   0.0000       1.751693        47.6660 
 326   0.0000       1.763783        47.9950 
 327   0.0000       1.764235        48.0073 
 328   0.0000       1.772861        48.2420 
 329   0.0000       1.773970        48.2722 
 330   0.0000       1.778794        48.4035 
 331   0.0000       1.790426        48.7200 
 332   0.0000       1.791441        48.7476 
 333   0.0000       1.800282        48.9882 
 334   0.0000       1.802322        49.0437 
 335   0.0000       1.802925        49.0601 
 336   0.0000       1.819979        49.5242 
 337   0.0000       1.835192        49.9381 
 338   0.0000       1.838212        50.0203 
 339   0.0000       1.840435        50.0808 
 340   0.0000       1.842179        50.1282 
 341   0.0000       1.847978        50.2860 
 342   0.0000       1.850007        50.3413 
 343   0.0000       1.858147        50.5627 
 344   0.0000       1.861389        50.6510 
 345   0.0000       1.868560        50.8461 
 346   0.0000       1.878870        51.1267 
 347   0.0000       1.900020        51.7022 
 348   0.0000       1.916095        52.1396 
 349   0.0000       1.923168        52.3320 
 350   0.0000       1.930486        52.5312 
 351   0.0000       1.935202        52.6595 
 352   0.0000       1.940587        52.8061 
 353   0.0000       1.940975        52.8166 
 354   0.0000       1.965717        53.4899 
 355   0.0000       1.966783        53.5189 
 356   0.0000       1.974905        53.7399 
 357   0.0000       1.976613        53.7864 
 358   0.0000       1.987024        54.0697 
 359   0.0000       1.994275        54.2670 
 360   0.0000       2.002777        54.4983 
 361   0.0000       2.013546        54.7914 
 362   0.0000       2.022692        55.0402 
 363   0.0000       2.034047        55.3492 
 364   0.0000       2.059884        56.0523 
 365   0.0000       2.080031        56.6005 
 366   0.0000       2.092463        56.9388 
 367   0.0000       2.106914        57.3320 
 368   0.0000       2.109921        57.4139 
 369   0.0000       2.129451        57.9453 
 370   0.0000       2.132246        58.0214 
 371   0.0000       2.161743        58.8240 
 372   0.0000       2.168328        59.0032 
 373   0.0000       2.191165        59.6246 
 374   0.0000       2.196429        59.7679 
 375   0.0000       2.203718        59.9662 
 376   0.0000       2.207897        60.0799 
 377   0.0000       2.211734        60.1843 
 378   0.0000       2.211976        60.1909 
 379   0.0000       2.223440        60.5029 
 380   0.0000       2.228796        60.6486 
 381   0.0000       2.239603        60.9427 
 382   0.0000       2.246074        61.1188 
 383   0.0000       2.271835        61.8198 
 384   0.0000       2.279239        62.0212 
 385   0.0000       2.302146        62.6446 
 386   0.0000       2.303072        62.6698 
 387   0.0000       2.310086        62.8606 
 388   0.0000       2.316212        63.0273 
 389   0.0000       2.319643        63.1207 
 390   0.0000       2.329916        63.4002 
 391   0.0000       2.352521        64.0154 
 392   0.0000       2.363470        64.3133 
 393   0.0000       2.396623        65.2154 
 394   0.0000       2.401055        65.3360 
 395   0.0000       2.410726        65.5992 
 396   0.0000       2.411434        65.6184 
 397   0.0000       2.412109        65.6368 
 398   0.0000       2.416769        65.7636 
 399   0.0000       2.418941        65.8227 
 400   0.0000       2.422411        65.9172 
 401   0.0000       2.429049        66.0978 
 402   0.0000       2.444115        66.5078 
 403   0.0000       2.458765        66.9064 
 404   0.0000       2.475996        67.3753 
 405   0.0000       2.497448        67.9590 
[...]
Population analysis         ....       0.252 sec  (  0.3%)
Initial guess               ....       0.591 sec  (  0.7%)
Orbital Transformation      ....       0.000 sec  (  0.0%)
Orbital Orthonormalization  ....       0.000 sec  (  0.0%)
DIIS solution               ....       1.649 sec  (  2.0%)
Grid generation             ....       1.914 sec  (  2.3%)

-------------------------   --------------------
FINAL SINGLE POINT ENERGY      -852.751423006828
-------------------------   --------------------

   --->>> g-tensor requested, so NeedSOC=true

                            ***************************************
                            *     ORCA property calculations      *
                            ***************************************

                                    ---------------------
                                    Active property flags
                                    ---------------------
   (+) Dipole Moment
   (+) g-tensor
   (+) Nuclear properties (Hyperfine,Quadrupole)
   (+) Spin-Orbit Integrals are needed


------------------------------------------------------------------------------
                       ORCA ELECTRIC PROPERTIES CALCULATION
------------------------------------------------------------------------------

Dipole Moment Calculation                       ... on
Quadrupole Moment Calculation                   ... off
Polarizability Calculation                      ... off
GBWName                                         ... cc-pVDZ_i.gbw
Electron density file                           ... cc-pVDZ_i.scfp
The origin for moment calculation is the CENTER OF MASS  = ( 4.014918, -0.062614 -0.019499)

-------------
DIPOLE MOMENT
-------------
                                X             Y             Z
Electronic contribution:     15.83427      -0.23444       0.01745
Nuclear contribution   :    -15.63654       0.22826      -0.01735
                        -----------------------------------------
Total Dipole Moment    :      0.19773      -0.00617       0.00009
                        -----------------------------------------
Magnitude (a.u.)       :      0.19783
Magnitude (Debye)      :      0.50283



--------------------
Rotational spectrum 
--------------------
 
Rotational constants in cm-1:     0.007062     0.004912     0.002909 
Rotational constants in MHz :   211.706210   147.251620    87.223548 

 Dipole components along the rotational axes: 
x,y,z [a.u.] :     0.152323     0.126225    -0.000019 
x,y,z [Debye]:     0.387174     0.320839    -0.000048 

 


           ************************************************************
           *        Program running with 16 parallel MPI-processes    *
           *              working on a common directory               *
           ************************************************************
------------------------------------------------------------------------------
                         ORCA SPIN-ORBIT COUPLING CALCULATION
------------------------------------------------------------------------------

GBW file                                    ... cc-pVDZ_i.gbw
Input density                               ... cc-pVDZ_i.scfp
Output integrals                            ... cc-pVDZ_i
Operator type                               ... Mean-field/Effective potential
   One-Electron Terms                       ... 1
   Coulomb Contribution                     ... 2
   Exchange Contribution                    ... 3
   Correlation Contribution                 ... 0
   Maximum number of centers                ... 4
Setting up the integration grid             ... done
Evaluating density on the grid              ... (NumEl=  157.020047) done
Evaluating Coulomb term semi-analytically   ... done
One-Center Exchange (+SOO)                  ... done
Evaluating the spin-orbit operator          ... done
Total time for SOC: 24.511


           ************************************************************
           *        Program running with 16 parallel MPI-processes    *
           *              working on a common directory               *
           ************************************************************
------------------------------------------------------------------------------
                                ORCA EPR/NMR CALCULATION
------------------------------------------------------------------------------

GBWName                      ... cc-pVDZ_i.gbw
Electron density file        ... cc-pVDZ_i.scfp
Spin density file            ... cc-pVDZ_i.scfr
Spin-orbit integrals         ... cc-pVDZ_i
Treatment of gauge           ... GIAO (approximations 1/2el = 0,3)
Details of the CP(SCF) procedure:
       Solver   = POPLE   
       MaxIter  =    64   
       Tolerance=    1.000e-06
       Op-0     =   0- 78 =>  79-432
       Op-1     =   0- 77 =>  78-432
Multiplicity                 ... 2
g-tensor                     ... 1
NMR chemical shifts          ... 0
Number of nuclei for epr/nmr ... 25
   Nucleus:   7H 
       Hyperfine : Isotope=    1 I=   0.500 P= 533.551
       Quadrupole: Isotope=    2 I=   1.000 Q=   0.003
       Spin-Orbit: Zeff=   1.000
       Ncuelar Spin-Spin: Gn=   0.000
       rho(0)=N f(grad)=N a(iso)=Y a(dip)=Y a(orb)=Y sigma(nmr)=N spin-spin(nmr)=all-N,DSO-N,PSO-N,FC-N,SD-N
   Nucleus:   8H 
       Hyperfine : Isotope=    1 I=   0.500 P= 533.551
       Quadrupole: Isotope=    2 I=   1.000 Q=   0.003
       Spin-Orbit: Zeff=   1.000
       Ncuelar Spin-Spin: Gn=   0.000
       rho(0)=N f(grad)=N a(iso)=Y a(dip)=Y a(orb)=Y sigma(nmr)=N spin-spin(nmr)=all-N,DSO-N,PSO-N,FC-N,SD-N
   Nucleus:  10H 
       Hyperfine : Isotope=    1 I=   0.500 P= 533.551
       Quadrupole: Isotope=    2 I=   1.000 Q=   0.003
       Spin-Orbit: Zeff=   1.000
       Ncuelar Spin-Spin: Gn=   0.000
       rho(0)=N f(grad)=N a(iso)=Y a(dip)=Y a(orb)=Y sigma(nmr)=N spin-spin(nmr)=all-N,DSO-N,PSO-N,FC-N,SD-N
   Nucleus:  11H 
       Hyperfine : Isotope=    1 I=   0.500 P= 533.551
       Quadrupole: Isotope=    2 I=   1.000 Q=   0.003
       Spin-Orbit: Zeff=   1.000
       Ncuelar Spin-Spin: Gn=   0.000
       rho(0)=N f(grad)=N a(iso)=Y a(dip)=Y a(orb)=Y sigma(nmr)=N spin-spin(nmr)=all-N,DSO-N,PSO-N,FC-N,SD-N
   Nucleus:  13H 
       Hyperfine : Isotope=    1 I=   0.500 P= 533.551
       Quadrupole: Isotope=    2 I=   1.000 Q=   0.003
       Spin-Orbit: Zeff=   1.000
       Ncuelar Spin-Spin: Gn=   0.000
       rho(0)=N f(grad)=N a(iso)=Y a(dip)=Y a(orb)=Y sigma(nmr)=N spin-spin(nmr)=all-N,DSO-N,PSO-N,FC-N,SD-N
   Nucleus:  14H 
       Hyperfine : Isotope=    1 I=   0.500 P= 533.551
       Quadrupole: Isotope=    2 I=   1.000 Q=   0.003
       Spin-Orbit: Zeff=   1.000
       Ncuelar Spin-Spin: Gn=   0.000
       rho(0)=N f(grad)=N a(iso)=Y a(dip)=Y a(orb)=Y sigma(nmr)=N spin-spin(nmr)=all-N,DSO-N,PSO-N,FC-N,SD-N
   Nucleus:  16H 
       Hyperfine : Isotope=    1 I=   0.500 P= 533.551
       Quadrupole: Isotope=    2 I=   1.000 Q=   0.003
       Spin-Orbit: Zeff=   1.000
       Ncuelar Spin-Spin: Gn=   0.000
       rho(0)=N f(grad)=N a(iso)=Y a(dip)=Y a(orb)=Y sigma(nmr)=N spin-spin(nmr)=all-N,DSO-N,PSO-N,FC-N,SD-N
   Nucleus:  17H 
       Hyperfine : Isotope=    1 I=   0.500 P= 533.551
       Quadrupole: Isotope=    2 I=   1.000 Q=   0.003
       Spin-Orbit: Zeff=   1.000
       Ncuelar Spin-Spin: Gn=   0.000
       rho(0)=N f(grad)=N a(iso)=Y a(dip)=Y a(orb)=Y sigma(nmr)=N spin-spin(nmr)=all-N,DSO-N,PSO-N,FC-N,SD-N
   Nucleus:  19H 
       Hyperfine : Isotope=    1 I=   0.500 P= 533.551
       Quadrupole: Isotope=    2 I=   1.000 Q=   0.003
       Spin-Orbit: Zeff=   1.000
       Ncuelar Spin-Spin: Gn=   0.000
       rho(0)=N f(grad)=N a(iso)=Y a(dip)=Y a(orb)=Y sigma(nmr)=N spin-spin(nmr)=all-N,DSO-N,PSO-N,FC-N,SD-N
   Nucleus:  20H 
       Hyperfine : Isotope=    1 I=   0.500 P= 533.551
       Quadrupole: Isotope=    2 I=   1.000 Q=   0.003
       Spin-Orbit: Zeff=   1.000
       Ncuelar Spin-Spin: Gn=   0.000
       rho(0)=N f(grad)=N a(iso)=Y a(dip)=Y a(orb)=Y sigma(nmr)=N spin-spin(nmr)=all-N,DSO-N,PSO-N,FC-N,SD-N
   Nucleus:  22H 
       Hyperfine : Isotope=    1 I=   0.500 P= 533.551
       Quadrupole: Isotope=    2 I=   1.000 Q=   0.003
       Spin-Orbit: Zeff=   1.000
       Ncuelar Spin-Spin: Gn=   0.000
       rho(0)=N f(grad)=N a(iso)=Y a(dip)=Y a(orb)=Y sigma(nmr)=N spin-spin(nmr)=all-N,DSO-N,PSO-N,FC-N,SD-N
   Nucleus:  23H 
       Hyperfine : Isotope=    1 I=   0.500 P= 533.551
       Quadrupole: Isotope=    2 I=   1.000 Q=   0.003
       Spin-Orbit: Zeff=   1.000
       Ncuelar Spin-Spin: Gn=   0.000
       rho(0)=N f(grad)=N a(iso)=Y a(dip)=Y a(orb)=Y sigma(nmr)=N spin-spin(nmr)=all-N,DSO-N,PSO-N,FC-N,SD-N
   Nucleus:  25H 
       Hyperfine : Isotope=    1 I=   0.500 P= 533.551
       Quadrupole: Isotope=    2 I=   1.000 Q=   0.003
       Spin-Orbit: Zeff=   1.000
       Ncuelar Spin-Spin: Gn=   0.000
       rho(0)=N f(grad)=N a(iso)=Y a(dip)=Y a(orb)=Y sigma(nmr)=N spin-spin(nmr)=all-N,DSO-N,PSO-N,FC-N,SD-N
   Nucleus:  26H 
       Hyperfine : Isotope=    1 I=   0.500 P= 533.551
       Quadrupole: Isotope=    2 I=   1.000 Q=   0.003
       Spin-Orbit: Zeff=   1.000
       Ncuelar Spin-Spin: Gn=   0.000
       rho(0)=N f(grad)=N a(iso)=Y a(dip)=Y a(orb)=Y sigma(nmr)=N spin-spin(nmr)=all-N,DSO-N,PSO-N,FC-N,SD-N
   Nucleus:  28H 
       Hyperfine : Isotope=    1 I=   0.500 P= 533.551
       Quadrupole: Isotope=    2 I=   1.000 Q=   0.003
       Spin-Orbit: Zeff=   1.000
       Ncuelar Spin-Spin: Gn=   0.000
       rho(0)=N f(grad)=N a(iso)=Y a(dip)=Y a(orb)=Y sigma(nmr)=N spin-spin(nmr)=all-N,DSO-N,PSO-N,FC-N,SD-N
   Nucleus:  29H 
       Hyperfine : Isotope=    1 I=   0.500 P= 533.551
       Quadrupole: Isotope=    2 I=   1.000 Q=   0.003
       Spin-Orbit: Zeff=   1.000
       Ncuelar Spin-Spin: Gn=   0.000
       rho(0)=N f(grad)=N a(iso)=Y a(dip)=Y a(orb)=Y sigma(nmr)=N spin-spin(nmr)=all-N,DSO-N,PSO-N,FC-N,SD-N
   Nucleus:  31H 
       Hyperfine : Isotope=    1 I=   0.500 P= 533.551
       Quadrupole: Isotope=    2 I=   1.000 Q=   0.003
       Spin-Orbit: Zeff=   1.000
       Ncuelar Spin-Spin: Gn=   0.000
       rho(0)=N f(grad)=N a(iso)=Y a(dip)=Y a(orb)=Y sigma(nmr)=N spin-spin(nmr)=all-N,DSO-N,PSO-N,FC-N,SD-N
   Nucleus:  32H 
       Hyperfine : Isotope=    1 I=   0.500 P= 533.551
       Quadrupole: Isotope=    2 I=   1.000 Q=   0.003
       Spin-Orbit: Zeff=   1.000
       Ncuelar Spin-Spin: Gn=   0.000
       rho(0)=N f(grad)=N a(iso)=Y a(dip)=Y a(orb)=Y sigma(nmr)=N spin-spin(nmr)=all-N,DSO-N,PSO-N,FC-N,SD-N
   Nucleus:  34H 
       Hyperfine : Isotope=    1 I=   0.500 P= 533.551
       Quadrupole: Isotope=    2 I=   1.000 Q=   0.003
       Spin-Orbit: Zeff=   1.000
       Ncuelar Spin-Spin: Gn=   0.000
       rho(0)=N f(grad)=N a(iso)=Y a(dip)=Y a(orb)=Y sigma(nmr)=N spin-spin(nmr)=all-N,DSO-N,PSO-N,FC-N,SD-N
   Nucleus:  35H 
       Hyperfine : Isotope=    1 I=   0.500 P= 533.551
       Quadrupole: Isotope=    2 I=   1.000 Q=   0.003
       Spin-Orbit: Zeff=   1.000
       Ncuelar Spin-Spin: Gn=   0.000
       rho(0)=N f(grad)=N a(iso)=Y a(dip)=Y a(orb)=Y sigma(nmr)=N spin-spin(nmr)=all-N,DSO-N,PSO-N,FC-N,SD-N
   Nucleus:  42H 
       Hyperfine : Isotope=    1 I=   0.500 P= 533.551
       Quadrupole: Isotope=    2 I=   1.000 Q=   0.003
       Spin-Orbit: Zeff=   1.000
       Ncuelar Spin-Spin: Gn=   0.000
       rho(0)=N f(grad)=N a(iso)=Y a(dip)=Y a(orb)=Y sigma(nmr)=N spin-spin(nmr)=all-N,DSO-N,PSO-N,FC-N,SD-N
   Nucleus:  43H 
       Hyperfine : Isotope=    1 I=   0.500 P= 533.551
       Quadrupole: Isotope=    2 I=   1.000 Q=   0.003
       Spin-Orbit: Zeff=   1.000
       Ncuelar Spin-Spin: Gn=   0.000
       rho(0)=N f(grad)=N a(iso)=Y a(dip)=Y a(orb)=Y sigma(nmr)=N spin-spin(nmr)=all-N,DSO-N,PSO-N,FC-N,SD-N
   Nucleus:  44H 
       Hyperfine : Isotope=    1 I=   0.500 P= 533.551
       Quadrupole: Isotope=    2 I=   1.000 Q=   0.003
       Spin-Orbit: Zeff=   1.000
       Ncuelar Spin-Spin: Gn=   0.000
       rho(0)=N f(grad)=N a(iso)=Y a(dip)=Y a(orb)=Y sigma(nmr)=N spin-spin(nmr)=all-N,DSO-N,PSO-N,FC-N,SD-N
   Nucleus:  45H 
       Hyperfine : Isotope=    1 I=   0.500 P= 533.551
       Quadrupole: Isotope=    2 I=   1.000 Q=   0.003
       Spin-Orbit: Zeff=   1.000
       Ncuelar Spin-Spin: Gn=   0.000
       rho(0)=N f(grad)=N a(iso)=Y a(dip)=Y a(orb)=Y sigma(nmr)=N spin-spin(nmr)=all-N,DSO-N,PSO-N,FC-N,SD-N
   Nucleus:  46H 
       Hyperfine : Isotope=    1 I=   0.500 P= 533.551
       Quadrupole: Isotope=    2 I=   1.000 Q=   0.003
       Spin-Orbit: Zeff=   1.000
       Ncuelar Spin-Spin: Gn=   0.000
       rho(0)=N f(grad)=N a(iso)=Y a(dip)=Y a(orb)=Y sigma(nmr)=N spin-spin(nmr)=all-N,DSO-N,PSO-N,FC-N,SD-N
Forming RHS of the CP-SCF equations         ... 
Calculating right hand sides for GIAO treatment        ... 
  Entering RightHandSide GIAO. ScalHFX=    0.2000 NeedHFX=1
     -> 1-electron GIAO integrals will be done analytically
     -> SCF done analytically but RIJK chosen for GIAO calculation.
     Making grid for GIAO integrations   ... 
General Integration Accuracy     IntAcc      ...  4.340
Radial Grid Type                 RadialGrid  ... Gauss-Chebyshev
Angular Grid (max. acc.)         AngularGrid ... Lebedev-110
Angular grid pruning method      GridPruning ... 3 (G Style)
Weight generation scheme         WeightScheme... Becke
Basis function cutoff            BFCut       ...    1.0000e-10
Integration weight cutoff        WCut        ...    1.0000e-14
Grids for H and He will be reduced by one unit

# of grid points (after initial pruning)     ...  56282 (   0.0 sec)
# of grid points (after weights+screening)   ...  50314 (   0.2 sec)
nearest neighbour list constructed           ...    0.0 sec
Grid point re-assignment to atoms done       ...    0.0 sec
Grid point division into batches done        ...    0.1 sec
Reduced shell lists constructed in    0.2 sec

Total number of grid points                  ...    50314
Total number of batches                      ...      809
Average number of points per batch           ...       62
Average number of grid points per atom       ...     1071
Average number of shells per batch           ...   103.04 (49.78%)
Average number of basis functions per batch  ...   206.00 (47.58%)
Average number of large shells per batch     ...    63.77 (61.89%)
Average number of large basis fcns per batch ...   133.42 (64.77%)
Maximum spatial batch extension              ...   8.09,  4.79, 40.11 au
Average spatial batch extension              ...   0.13,  0.14,  0.23 au

done
  One-electron GIAO integrals             ... done
  Calculating G(B)[P]                     ... (RI-JK: P(aux)-ok JK-RI-ok) (add-J+K:ok) => dG/dB done
  DFT XC-terms                            ... done
  Extracting occupied and virtual blocks  ... 
  Operator  0  NO=  79 NV= 354 
  Operator  1  NO=  78 NV= 355 
  Transforming and RHS contribution       ... done
  Adding eps_i * S(B)_ai terms            ... done
  Projecting overlap derivatives          ... done
  Building G[dS/dB_ij] (Direct)           ... done
  Transforming to MO basis                ... done
  Summing G[dS/dB_ij] into RHS contribs.  ... done

  GIAO profiling information: 
    Total GIAO time               ...     104.9 sec
       GIAO 1-electron integrals  ...       0.1 sec (  0.1%)
       GIAO G(dS/dB) terms        ...      11.9 sec ( 11.4%)
       GIAO RI-JK                 ...      90.5 sec ( 86.2%)
       GIAO XC-terms              ...       1.1 sec (  1.1%)
       Right hand side assembly   ...       0.1 sec (  0.0%)

  GIAO right hand side done


------------------------------------------------------------------------------
                           ORCA CP-SCF CALCULATION
------------------------------------------------------------------------------

Input orbitals are from        ... cc-pVDZ_i.gbw
Input Perturbation             ... cc-pVDZ_i.pin.tmp
Wavefunction output            ... cc-pVDZ_i.pout.tmp
Perturbation mode              ... Imaginary perturbation
Solver                         ... POPLE
Max. number of iterations      ... 64
Convergence tolerance          ... 1.000e-06
Integral handling              ... Direct
Number of perturbations        ... 3
Number of operators            ... 2
Orbital ranges used for CP-SCF:
 Operator 0:  Orbitals   0... 78  to  79...432
 Operator 1:  Orbitals   0... 77  to  78...432
DFT calculation                         ... on
Variables per vector in CP-SCF ... 55656
Number of vectors sought       ... 3
     CP-SCF ITERATION   0: 
     CP-SCF ITERATION   1:      0.006942072096
     CP-SCF ITERATION   2:      0.000077846336
     CP-SCF ITERATION   3:      0.000001088414
     CP-SCF ITERATION   4:      0.000000133417

Forming final perturbed densities           ... done
Transforming perturbed density to AO basis  ... done

Magnetic field perturbation calculated in 154.657 sec
GIAO: Doing diamagnetic term integrals analytically ...done
GIAO: Doing 1el-GIAO-SOC integrals analytically ... done

-------------------
ELECTRONIC G-MATRIX
-------------------

 The g-matrix: 
              2.0021415   -0.0000465   -0.0000008
             -0.0000038    2.0016620   -0.0000019
             -0.0000009   -0.0000018    2.0029417

 gel          2.0023193    2.0023193    2.0023193
 gRMC        -0.0001620   -0.0001620   -0.0001620
 gDSO(tot)    0.0000816    0.0000381    0.0000701
 gPSO(tot)   -0.0005782   -0.0000525    0.0007143
             ----------   ----------   ----------
 g(tot)       2.0016607    2.0021428    2.0029417 iso=  2.0022484
 Delta-g     -0.0006586   -0.0001764    0.0006224 iso= -0.0000709
 Orientation: 
  X           0.0522447    0.9986338    0.0010117
  Y           0.9986332   -0.0522461    0.0014192
  Z           0.0014701    0.0009362   -0.9999985

Notes:  (1) The g-matrix conforms to the "BgS" spin Hamiltonian convention. 
        (2) The principal values are square roots of the eigenvalues of g*gT.
        (3) Orientations are eigenvectors of g*gT written as column vectors.
        (4) Individual contributions are projections of the full matrices onto the eigenvectors of g*gT.
        (5) Tensor is right-handed.


-----------------------------------------
ELECTRIC AND MAGNETIC HYPERFINE STRUCTURE
-----------------------------------------

 -----------------------------------------------------------
 Nucleus   7H : A:ISTP=    1 I=  0.5 P=533.5514 MHz/au**3
                Q:ISTP=    2 I=  1.0 Q=  0.0029 barn     
 -----------------------------------------------------------
 Solving for nuclear perturbation:
Forming RHS of the CP-SCF equations         ... 
Using LibInt in CPSCF-CP

Calculating nucleus orbit integrals         ... done

------------------------------------------------------------------------------
                           ORCA CP-SCF CALCULATION
------------------------------------------------------------------------------

Input orbitals are from        ... cc-pVDZ_i.gbw
Input Perturbation             ... cc-pVDZ_i.pin.tmp
Wavefunction output            ... cc-pVDZ_i.pout.tmp
Perturbation mode              ... Imaginary perturbation
Solver                         ... POPLE
Max. number of iterations      ... 64
Convergence tolerance          ... 1.000e-06
Integral handling              ... Direct
Number of perturbations        ... 3
Number of operators            ... 2
Orbital ranges used for CP-SCF:
 Operator 0:  Orbitals   0... 78  to  79...432
 Operator 1:  Orbitals   0... 77  to  78...432
DFT calculation                         ... on
Variables per vector in CP-SCF ... 55656
Number of vectors sought       ... 3
     CP-SCF ITERATION   0: 
     CP-SCF ITERATION   1:      0.000007503617
     CP-SCF ITERATION   2:      0.000000083311

Forming final perturbed densities           ...
ORCA finished by error termination in EPR/NMR
Calling Command: mpirun -np 16  /hits/sw/ccc/ORCA421/orca_4_2_1_linux_x86-64_openmpi314/orca_eprnmr_mpi cc-pVDZ_i.eprnmr.inp cc-pVDZ_i 
[file orca_tools/qcmsg.cpp, line 458]: 
  .... aborting the run

