
                                 *****************
                                 * O   R   C   A *
                                 *****************

                                            #,                                       
                                            ###                                      
                                            ####                                     
                                            #####                                    
                                            ######                                   
                                           ########,                                 
                                     ,,################,,,,,                         
                               ,,#################################,,                 
                          ,,##########################################,,             
                       ,#########################################, ''#####,          
                    ,#############################################,,   '####,        
                  ,##################################################,,,,####,       
                ,###########''''           ''''###############################       
              ,#####''   ,,,,##########,,,,          '''####'''          '####       
            ,##' ,,,,###########################,,,                        '##       
           ' ,,###''''                  '''############,,,                           
         ,,##''                                '''############,,,,        ,,,,,,###''
      ,#''                                            '''#######################'''  
     '                                                          ''''####''''         
             ,#######,   #######,   ,#######,      ##                                
            ,#'     '#,  ##    ##  ,#'     '#,    #''#        ######   ,####,        
            ##       ##  ##   ,#'  ##            #'  '#       #        #'  '#        
            ##       ##  #######   ##           ,######,      #####,   #    #        
            '#,     ,#'  ##    ##  '#,     ,#' ,#      #,         ##   #,  ,#        
             '#######'   ##     ##  '#######'  #'      '#     #####' # '####'        



                  #######################################################
                  #                        -***-                        #
                  #          Department of theory and spectroscopy      #
                  #    Directorship and core code : Frank Neese         #
                  #        Max Planck Institute fuer Kohlenforschung    #
                  #                Kaiser Wilhelm Platz 1               #
                  #                 D-45470 Muelheim/Ruhr               #
                  #                      Germany                        #
                  #                                                     #
                  #                  All rights reserved                #
                  #                        -***-                        #
                  #######################################################


                         Program Version 5.0.4 -  RELEASE  -


 With contributions from (in alphabetic order):
   Daniel Aravena         : Magnetic Suceptibility
   Michael Atanasov       : Ab Initio Ligand Field Theory (pilot matlab implementation)
   Alexander A. Auer      : GIAO ZORA, VPT2 properties, NMR spectrum
   Ute Becker             : Parallelization
   Giovanni Bistoni       : ED, misc. LED, open-shell LED, HFLD
   Martin Brehm           : Molecular dynamics
   Dmytro Bykov           : SCF Hessian
   Vijay G. Chilkuri      : MRCI spin determinant printing, contributions to CSF-ICE
   Dipayan Datta          : RHF DLPNO-CCSD density
   Achintya Kumar Dutta   : EOM-CC, STEOM-CC
   Dmitry Ganyushin       : Spin-Orbit,Spin-Spin,Magnetic field MRCI
   Miquel Garcia          : C-PCM and meta-GGA Hessian, CC/C-PCM, Gaussian charge scheme
   Yang Guo               : DLPNO-NEVPT2, F12-NEVPT2, CIM, IAO-localization
   Andreas Hansen         : Spin unrestricted coupled pair/coupled cluster methods
   Benjamin Helmich-Paris : MC-RPA, TRAH-SCF, COSX integrals
   Lee Huntington         : MR-EOM, pCC
   Robert Izsak           : Overlap fitted RIJCOSX, COSX-SCS-MP3, EOM
   Marcus Kettner         : VPT2
   Christian Kollmar      : KDIIS, OOCD, Brueckner-CCSD(T), CCSD density, CASPT2, CASPT2-K
   Simone Kossmann        : Meta GGA functionals, TD-DFT gradient, OOMP2, MP2 Hessian
   Martin Krupicka        : Initial AUTO-CI
   Lucas Lang             : DCDCAS
   Marvin Lechner         : AUTO-CI (C++ implementation), FIC-MRCC
   Dagmar Lenk            : GEPOL surface, SMD
   Dimitrios Liakos       : Extrapolation schemes; Compound Job, initial MDCI parallelization
   Dimitrios Manganas     : Further ROCIS development; embedding schemes
   Dimitrios Pantazis     : SARC Basis sets
   Anastasios Papadopoulos: AUTO-CI, single reference methods and gradients
   Taras Petrenko         : DFT Hessian,TD-DFT gradient, ASA, ECA, R-Raman, ABS, FL, XAS/XES, NRVS
   Peter Pinski           : DLPNO-MP2, DLPNO-MP2 Gradient
   Christoph Reimann      : Effective Core Potentials
   Marius Retegan         : Local ZFS, SOC
   Christoph Riplinger    : Optimizer, TS searches, QM/MM, DLPNO-CCSD(T), (RO)-DLPNO pert. Triples
   Tobias Risthaus        : Range-separated hybrids, TD-DFT gradient, RPA, STAB
   Michael Roemelt        : Original ROCIS implementation
   Masaaki Saitow         : Open-shell DLPNO-CCSD energy and density
   Barbara Sandhoefer     : DKH picture change effects
   Avijit Sen             : IP-ROCIS
   Kantharuban Sivalingam : CASSCF convergence, NEVPT2, FIC-MRCI
   Bernardo de Souza      : ESD, SOC TD-DFT
   Georgi Stoychev        : AutoAux, RI-MP2 NMR, DLPNO-MP2 response
   Willem Van den Heuvel  : Paramagnetic NMR
   Boris Wezisla          : Elementary symmetry handling
   Frank Wennmohs         : Technical directorship


 We gratefully acknowledge several colleagues who have allowed us to
 interface, adapt or use parts of their codes:
   Stefan Grimme, W. Hujo, H. Kruse, P. Pracht,  : VdW corrections, initial TS optimization,
                  C. Bannwarth, S. Ehlert          DFT functionals, gCP, sTDA/sTD-DF
   Ed Valeev, F. Pavosevic, A. Kumar             : LibInt (2-el integral package), F12 methods
   Garnet Chan, S. Sharma, J. Yang, R. Olivares  : DMRG
   Ulf Ekstrom                                   : XCFun DFT Library
   Mihaly Kallay                                 : mrcc  (arbitrary order and MRCC methods)
   Jiri Pittner, Ondrej Demel                    : Mk-CCSD
   Frank Weinhold                                : gennbo (NPA and NBO analysis)
   Christopher J. Cramer and Donald G. Truhlar   : smd solvation model
   Lars Goerigk                                  : TD-DFT with DH, B97 family of functionals
   V. Asgeirsson, H. Jonsson                     : NEB implementation
   FAccTs GmbH                                   : IRC, NEB, NEB-TS, DLPNO-Multilevel, CI-OPT
                                                   MM, QMMM, 2- and 3-layer-ONIOM, Crystal-QMMM,
                                                   LR-CPCM, SF, NACMEs, symmetry and pop. for TD-DFT,
                                                   nearIR, NL-DFT gradient (VV10), updates on ESD,
                                                   ML-optimized integration grids
   S Lehtola, MJT Oliveira, MAL Marques          : LibXC Library
   Liviu Ungur et al                             : ANISO software


 Your calculation uses the libint2 library for the computation of 2-el integrals
 For citations please refer to: http://libint.valeyev.net

 Your ORCA version has been built with support for libXC version: 5.1.0
 For citations please refer to: https://tddft.org/programs/libxc/

 This ORCA versions uses:
   CBLAS   interface :  Fast vector & matrix operations
   LAPACKE interface :  Fast linear algebra routines
   SCALAPACK package :  Parallel linear algebra routines
   Shared memory     :  Shared parallel matrices
   BLAS/LAPACK       :  OpenBLAS 0.3.15  USE64BITINT DYNAMIC_ARCH NO_AFFINITY SkylakeX SINGLE_THREADED
        Core in use  :  SkylakeX
   Copyright (c) 2011-2014, The OpenBLAS Project




***************************************
The coordinates will be read from file: opt.xyz
***************************************


================================================================================

----- Orbital basis set information -----
Your calculation utilizes the basis: EPR-II
   V. Barone, in Recent Advances in Density Functional Methods, Part 1 (ed. D. P. Chong), World Scientific, Singapore, 1995, p. 287.

----- AuxJ basis set information -----
Your calculation utilizes the AutoAux generation procedure.
  G. L. Stoychev, A. A. Auer, F. Neese, J. Chem. Theory Comput. 13, 554 (2017)

----- AuxC basis set information -----
Your calculation utilizes the AutoAux generation procedure.
  G. L. Stoychev, A. A. Auer, F. Neese, J. Chem. Theory Comput. 13, 554 (2017)

----- AuxJK basis set information -----
Your calculation utilizes the AutoAux generation procedure.
  G. L. Stoychev, A. A. Auer, F. Neese, J. Chem. Theory Comput. 13, 554 (2017)

================================================================================
                                        WARNINGS
                       Please study these warnings very carefully!
================================================================================

WARNING: Old DensityContainer found on disk!
         Will remove this file - 
         If you want to keep old densities, please start your calculation with a different basename. 


WARNING: your system is open-shell and RHF/RKS was chosen
  ===> : WILL SWITCH to UHF/UKS


INFO   : the flag for use of the SHARK integral package has been found!

================================================================================
                                       INPUT FILE
================================================================================
NAME = EPRII.inp
|  1> ! B3LYP EPR-II AUTOAUX
|  2> %pal nprocs 16 end
|  3> *XYZFile 0 2 opt.xyz
|  4> %EPRNMR
|  5>         GTENSOR   TRUE
|  6>         NUCLEI    = ALL H {SHIFT, AISO, ADIP, AORB}
|  7>         ORI       CenterOfElCharge
|  8> END
|  9> 
| 10>                          ****END OF INPUT****
================================================================================

                       ****************************
                       * Single Point Calculation *
                       ****************************

---------------------------------
CARTESIAN COORDINATES (ANGSTROEM)
---------------------------------
  C      2.831806   -0.006236   -0.008272
  C     -1.314139   -0.014773   -0.012929
  C     -0.703841   -1.259958   -0.014279
  C      0.699293   -1.203568   -0.012429
  C      1.402358    0.023007   -0.009542
  C      0.708612    1.263431   -0.008102
  C     -0.699666    1.217589   -0.009942
  H      1.283513   -2.125515   -0.013363
  H     -1.285093    2.138713   -0.009038
  C     -1.509688   -2.548043   -0.017242
  H     -2.182378   -2.530206   -0.894243
  H     -2.180594   -2.535322    0.861245
  C     -0.708611   -3.852555   -0.021718
  H     -0.045377   -3.880501   -0.905977
  H     -0.045441   -3.886600    0.862377
  C     -1.603186   -5.097748   -0.025923
  H     -2.269586   -5.070311    0.856270
  H     -2.268554   -5.065066   -0.908715
  C     -0.811642   -6.407882   -0.029365
  H     -0.163127   -6.486668    0.860305
  H     -0.161649   -6.481086   -0.918435
  C      1.483960    2.566701   -0.004836
  H      2.159953    2.562804    0.870276
  H      2.160515    2.566853   -0.879537
  C      0.662999    3.858831   -0.002137
  H      0.000591    3.884733   -0.887173
  H     -0.000881    3.880108    0.881917
  C      1.540854    5.116159    0.001806
  H      2.206133    5.092323    0.884894
  H      2.207958    5.096581   -0.880007
  C      0.732381    6.415841    0.004122
  H      0.081081    6.481192    0.892854
  H      0.083265    6.485731   -0.885860
  C      4.053310   -0.041189   -0.009378
  H     -1.480462   -7.283854   -0.032687
  H      1.389551    7.300598    0.007195
  C      5.481187   -0.085650   -0.008586
  C      6.162322   -1.322563   -0.012255
  C      7.556386   -1.361278   -0.011394
  C      8.297343   -0.174069   -0.006934
  C      7.632552    1.057518   -0.003328
  C      6.238850    1.105969   -0.004137
  H      9.389310   -0.208771   -0.006270
  H      8.204901    1.988374    0.000175
  H      5.582883   -2.247731   -0.015759
  H      5.718665    2.065740   -0.001296
  H      8.069533   -2.326054   -0.014261

----------------------------
CARTESIAN COORDINATES (A.U.)
----------------------------
  NO LB      ZA    FRAG     MASS         X           Y           Z
   0 C     6.0000    0    12.011    5.351338   -0.011785   -0.015631
   1 C     6.0000    0    12.011   -2.483364   -0.027917   -0.024431
   2 C     6.0000    0    12.011   -1.330066   -2.380976   -0.026983
   3 C     6.0000    0    12.011    1.321473   -2.274413   -0.023487
   4 C     6.0000    0    12.011    2.650073    0.043478   -0.018032
   5 C     6.0000    0    12.011    1.339083    2.387539   -0.015311
   6 C     6.0000    0    12.011   -1.322177    2.300909   -0.018788
   7 H     1.0000    0     1.008    2.425488   -4.016642   -0.025253
   8 H     1.0000    0     1.008   -2.428474    4.041583   -0.017079
   9 C     6.0000    0    12.011   -2.852898   -4.815103   -0.032583
  10 H     1.0000    0     1.008   -4.124097   -4.781396   -1.689874
  11 H     1.0000    0     1.008   -4.120726   -4.791064    1.627518
  12 C     6.0000    0    12.011   -1.339080   -7.280273   -0.041042
  13 H     1.0000    0     1.008   -0.085750   -7.333084   -1.712048
  14 H     1.0000    0     1.008   -0.085871   -7.344609    1.629656
  15 C     6.0000    0    12.011   -3.029583   -9.633348   -0.048987
  16 H     1.0000    0     1.008   -4.288897   -9.581498    1.618115
  17 H     1.0000    0     1.008   -4.286946   -9.571588   -1.717223
  18 C     6.0000    0    12.011   -1.533781  -12.109141   -0.055493
  19 H     1.0000    0     1.008   -0.308266  -12.258027    1.625740
  20 H     1.0000    0     1.008   -0.305472  -12.247478   -1.735591
  21 C     6.0000    0    12.011    2.804278    4.850361   -0.009138
  22 H     1.0000    0     1.008    4.081720    4.842998    1.644584
  23 H     1.0000    0     1.008    4.082782    4.850648   -1.662084
  24 C     6.0000    0    12.011    1.252887    7.292135   -0.004038
  25 H     1.0000    0     1.008    0.001116    7.341081   -1.676515
  26 H     1.0000    0     1.008   -0.001665    7.332341    1.666581
  27 C     6.0000    0    12.011    2.911791    9.668140    0.003413
  28 H     1.0000    0     1.008    4.168988    9.623096    1.672208
  29 H     1.0000    0     1.008    4.172435    9.631142   -1.662972
  30 C     6.0000    0    12.011    1.384000   12.124183    0.007789
  31 H     1.0000    0     1.008    0.153221   12.247679    1.687249
  32 H     1.0000    0     1.008    0.157348   12.256256   -1.674034
  33 C     6.0000    0    12.011    7.659646   -0.077837   -0.017722
  34 H     1.0000    0     1.008   -2.797668  -13.764489   -0.061769
  35 H     1.0000    0     1.008    2.625870   13.796131    0.013597
  36 C     6.0000    0    12.011   10.357943   -0.161856   -0.016225
  37 C     6.0000    0    12.011   11.645101   -2.499282   -0.023159
  38 C     6.0000    0    12.011   14.279499   -2.572442   -0.021531
  39 C     6.0000    0    12.011   15.679706   -0.328942   -0.013103
  40 C     6.0000    0    12.011   14.423433    1.998419   -0.006290
  41 C     6.0000    0    12.011   11.789718    2.089978   -0.007818
  42 H     1.0000    0     1.008   17.743224   -0.394519   -0.011848
  43 H     1.0000    0     1.008   15.505016    3.757482    0.000330
  44 H     1.0000    0     1.008   10.550119   -4.247595   -0.029780
  45 H     1.0000    0     1.008   10.806712    3.903684   -0.002449
  46 H     1.0000    0     1.008   15.249208   -4.395604   -0.026950

--------------------------------
INTERNAL COORDINATES (ANGSTROEM)
--------------------------------
 C      0   0   0     0.000000000000     0.00000000     0.00000000
 C      1   0   0     4.145956972330     0.00000000     0.00000000
 C      2   1   0     1.386705572751    64.00736294     0.00000000
 C      3   2   1     1.404267951800   113.80917769     0.00000000
 C      4   3   2     1.413787197441   122.12254984     0.00000000
 C      5   4   3     1.421244947863   120.96152510     0.00000000
 C      2   1   3     1.377062606787    63.38045054   179.98672725
 H      4   3   2     1.091467392313   120.06006875   180.00610204
 H      7   2   1     1.091419179036   121.06025554   179.99031170
 C      3   2   1     1.519395131551   121.85854189   179.99808656
 H     10   3   2     1.105422690072   108.09656554    56.50943260
 H     10   3   2     1.105448549626   108.09435705   303.20586723
 C     10   3   2     1.530848508559   116.41604721   179.86468520
 H     13  10   3     1.105700237225   109.74058441   301.89712942
 H     13  10   3     1.105702136890   109.74013782    58.23028527
 C     13  10   3     1.533228643071   112.75261366   180.05856701
 H     16  13  10     1.105940861893   109.22236151   302.36419181
 H     16  13  10     1.105940819044   109.22117694    57.72338683
 C     16  13  10     1.530687250755   113.16674899   180.04284764
 H     19  16  13     1.103762615619   111.29155407    59.87662583
 H     19  16  13     1.103764246698   111.29080235   300.15912779
 C      6   5   4     1.516471559442   120.03309389   179.99259452
 H     22   6   5     1.105804072622   108.13345201   303.69586697
 H     22   6   5     1.105816078214   108.13311618    56.41713002
 C     22   6   5     1.530877596450   116.82062797   180.05506339
 H     25  22   6     1.105778211995   109.85295917   301.70259723
 H     25  22   6     1.105776140534   109.85320595    58.23059783
 C     25  22   6     1.533465937956   112.64776606   179.96973985
 H     28  25  22     1.105898182379   109.19355319   302.31931063
 H     28  25  22     1.105895613498   109.19346700    57.64583295
 C     28  25  22     1.530622738703   113.19389718   179.98322094
 H     31  28  25     1.103769590186   111.29474515    59.84551868
 H     31  28  25     1.103768522177   111.29528239   300.12698471
 C      1   2   3     1.222004700144   178.23912351     3.69132463
 H     19  16  13     1.102115396255   111.49874449   180.01907338
 H     31  28  25     1.102123287121   111.51248324   179.98555342
 C     34   1   5     1.428569279574   179.83309015   317.50147920
 C     37  34   1     1.412059114205   120.62367126    30.27733087
 C     38  37  34     1.394601310200   120.43094264   180.00345416
 C     39  38  37     1.399465157304   120.37816545     0.00000000
 C     40  39  38     1.399559028655   119.67181994     0.00000000
 C     41  40  39     1.394544231546   120.35030040     0.00000000
 H     40  39  38     1.092518596414   120.14873255   179.99977903
 H     41  40  39     1.092743427941   120.05497762   179.99924884
 H     38  37  34     1.091649007667   119.10064703     0.00000000
 H     42  41  40     1.091678109648   120.44798239   179.99797555
 H     39  38  37     1.092758465741   119.59829225   179.99953192

---------------------------
INTERNAL COORDINATES (A.U.)
---------------------------
 C      0   0   0     0.000000000000     0.00000000     0.00000000
 C      1   0   0     7.834723240724     0.00000000     0.00000000
 C      2   1   0     2.620493760881    64.00736294     0.00000000
 C      3   2   1     2.653681847544   113.80917769     0.00000000
 C      4   3   2     2.671670614808   122.12254984     0.00000000
 C      5   4   3     2.685763720680   120.96152510     0.00000000
 C      2   1   3     2.602271196091    63.38045054   179.98672725
 H      4   3   2     2.062574455578   120.06006875   180.00610204
 H      7   2   1     2.062483345686   121.06025554   179.99031170
 C      3   2   1     2.871240687844   121.85854189   179.99808656
 H     10   3   2     2.088946146458   108.09656554    56.50943260
 H     10   3   2     2.088995013933   108.09435705   303.20586723
 C     10   3   2     2.892884433698   116.41604721   179.86468520
 H     13  10   3     2.089470634567   109.74058441   301.89712942
 H     13  10   3     2.089474224414   109.74013782    58.23028527
 C     13  10   3     2.897382236087   112.75261366   180.05856701
 H     16  13  10     2.089925349290   109.22236151   302.36419181
 H     16  13  10     2.089925268318   109.22117694    57.72338683
 C     16  13  10     2.892579700612   113.16674899   180.04284764
 H     19  16  13     2.085809060381   111.29155407    59.87662583
 H     19  16  13     2.085812142674   111.29080235   300.15912779
 C      6   5   4     2.865715937226   120.03309389   179.99259452
 H     22   6   5     2.089666855030   108.13345201   303.69586697
 H     22   6   5     2.089689542312   108.13311618    56.41713002
 C     22   6   5     2.892939401846   116.82062797   180.05506339
 H     25  22   6     2.089617985527   109.85295917   301.70259723
 H     25  22   6     2.089614071033   109.85320595    58.23059783
 C     25  22   6     2.897830658434   112.64776606   179.96973985
 H     28  25  22     2.089844696697   109.19355319   302.31931063
 H     28  25  22     2.089839842217   109.19346700    57.64583295
 C     28  25  22     2.892457790501   113.19389718   179.98322094
 H     31  28  25     2.085822240402   111.29474515    59.84551868
 H     31  28  25     2.085820222158   111.29528239   300.12698471
 C      1   2   3     2.309254217638   178.23912351     3.69132463
 H     19  16  13     2.082696266900   111.49874449   180.01907338
 H     31  28  25     2.082711178476   111.51248324   179.98555342
 C     34   1   5     2.699604701728   179.83309015   317.50147920
 C     37  34   1     2.668405010756   120.62367126    30.27733087
 C     38  37  34     2.635414542286   120.43094264   180.00345416
 C     39  38  37     2.644605881270   120.37816545     0.00000000
 C     40  39  38     2.644783272414   119.67181994     0.00000000
 C     41  40  39     2.635306679262   120.35030040     0.00000000
 H     40  39  38     2.064560943438   120.14873255   179.99977903
 H     41  40  39     2.064985813450   120.05497762   179.99924884
 H     38  37  34     2.062917658858   119.10064703     0.00000000
 H     42  41  40     2.062972653632   120.44798239   179.99797555
 H     39  38  37     2.065014230774   119.59829225   179.99953192

---------------------
BASIS SET INFORMATION
---------------------
There are 2 groups of distinct atoms

 Group   1 Type C   : 10s5p1d contracted to 6s2p1d pattern {511111/41/1}
 Group   2 Type H   : 6s1p contracted to 4s1p pattern {3111/1}

Atom   0C    basis set group =>   1
Atom   1C    basis set group =>   1
Atom   2C    basis set group =>   1
Atom   3C    basis set group =>   1
Atom   4C    basis set group =>   1
Atom   5C    basis set group =>   1
Atom   6C    basis set group =>   1
Atom   7H    basis set group =>   2
Atom   8H    basis set group =>   2
Atom   9C    basis set group =>   1
Atom  10H    basis set group =>   2
Atom  11H    basis set group =>   2
Atom  12C    basis set group =>   1
Atom  13H    basis set group =>   2
Atom  14H    basis set group =>   2
Atom  15C    basis set group =>   1
Atom  16H    basis set group =>   2
Atom  17H    basis set group =>   2
Atom  18C    basis set group =>   1
Atom  19H    basis set group =>   2
Atom  20H    basis set group =>   2
Atom  21C    basis set group =>   1
Atom  22H    basis set group =>   2
Atom  23H    basis set group =>   2
Atom  24C    basis set group =>   1
Atom  25H    basis set group =>   2
Atom  26H    basis set group =>   2
Atom  27C    basis set group =>   1
Atom  28H    basis set group =>   2
Atom  29H    basis set group =>   2
Atom  30C    basis set group =>   1
Atom  31H    basis set group =>   2
Atom  32H    basis set group =>   2
Atom  33C    basis set group =>   1
Atom  34H    basis set group =>   2
Atom  35H    basis set group =>   2
Atom  36C    basis set group =>   1
Atom  37C    basis set group =>   1
Atom  38C    basis set group =>   1
Atom  39C    basis set group =>   1
Atom  40C    basis set group =>   1
Atom  41C    basis set group =>   1
Atom  42H    basis set group =>   2
Atom  43H    basis set group =>   2
Atom  44H    basis set group =>   2
Atom  45H    basis set group =>   2
Atom  46H    basis set group =>   2
---------------------------------
AUXILIARY/J BASIS SET INFORMATION
---------------------------------
There are 2 groups of distinct atoms

 Group   1 Type C   : 17s13p12d2f contracted to 17s13p12d2f pattern {11111111111111111/1111111111111/111111111111/11}
 Group   2 Type H   : 15s6p1d contracted to 15s6p1d pattern {111111111111111/111111/1}

Atom   0C    basis set group =>   1
Atom   1C    basis set group =>   1
Atom   2C    basis set group =>   1
Atom   3C    basis set group =>   1
Atom   4C    basis set group =>   1
Atom   5C    basis set group =>   1
Atom   6C    basis set group =>   1
Atom   7H    basis set group =>   2
Atom   8H    basis set group =>   2
Atom   9C    basis set group =>   1
Atom  10H    basis set group =>   2
Atom  11H    basis set group =>   2
Atom  12C    basis set group =>   1
Atom  13H    basis set group =>   2
Atom  14H    basis set group =>   2
Atom  15C    basis set group =>   1
Atom  16H    basis set group =>   2
Atom  17H    basis set group =>   2
Atom  18C    basis set group =>   1
Atom  19H    basis set group =>   2
Atom  20H    basis set group =>   2
Atom  21C    basis set group =>   1
Atom  22H    basis set group =>   2
Atom  23H    basis set group =>   2
Atom  24C    basis set group =>   1
Atom  25H    basis set group =>   2
Atom  26H    basis set group =>   2
Atom  27C    basis set group =>   1
Atom  28H    basis set group =>   2
Atom  29H    basis set group =>   2
Atom  30C    basis set group =>   1
Atom  31H    basis set group =>   2
Atom  32H    basis set group =>   2
Atom  33C    basis set group =>   1
Atom  34H    basis set group =>   2
Atom  35H    basis set group =>   2
Atom  36C    basis set group =>   1
Atom  37C    basis set group =>   1
Atom  38C    basis set group =>   1
Atom  39C    basis set group =>   1
Atom  40C    basis set group =>   1
Atom  41C    basis set group =>   1
Atom  42H    basis set group =>   2
Atom  43H    basis set group =>   2
Atom  44H    basis set group =>   2
Atom  45H    basis set group =>   2
Atom  46H    basis set group =>   2
---------------------------------
AUXILIARY/C BASIS SET INFORMATION
---------------------------------
There are 2 groups of distinct atoms

 Group   1 Type C   : 17s13p12d2f contracted to 17s13p12d2f pattern {11111111111111111/1111111111111/111111111111/11}
 Group   2 Type H   : 15s6p1d contracted to 15s6p1d pattern {111111111111111/111111/1}

Atom   0C    basis set group =>   1
Atom   1C    basis set group =>   1
Atom   2C    basis set group =>   1
Atom   3C    basis set group =>   1
Atom   4C    basis set group =>   1
Atom   5C    basis set group =>   1
Atom   6C    basis set group =>   1
Atom   7H    basis set group =>   2
Atom   8H    basis set group =>   2
Atom   9C    basis set group =>   1
Atom  10H    basis set group =>   2
Atom  11H    basis set group =>   2
Atom  12C    basis set group =>   1
Atom  13H    basis set group =>   2
Atom  14H    basis set group =>   2
Atom  15C    basis set group =>   1
Atom  16H    basis set group =>   2
Atom  17H    basis set group =>   2
Atom  18C    basis set group =>   1
Atom  19H    basis set group =>   2
Atom  20H    basis set group =>   2
Atom  21C    basis set group =>   1
Atom  22H    basis set group =>   2
Atom  23H    basis set group =>   2
Atom  24C    basis set group =>   1
Atom  25H    basis set group =>   2
Atom  26H    basis set group =>   2
Atom  27C    basis set group =>   1
Atom  28H    basis set group =>   2
Atom  29H    basis set group =>   2
Atom  30C    basis set group =>   1
Atom  31H    basis set group =>   2
Atom  32H    basis set group =>   2
Atom  33C    basis set group =>   1
Atom  34H    basis set group =>   2
Atom  35H    basis set group =>   2
Atom  36C    basis set group =>   1
Atom  37C    basis set group =>   1
Atom  38C    basis set group =>   1
Atom  39C    basis set group =>   1
Atom  40C    basis set group =>   1
Atom  41C    basis set group =>   1
Atom  42H    basis set group =>   2
Atom  43H    basis set group =>   2
Atom  44H    basis set group =>   2
Atom  45H    basis set group =>   2
Atom  46H    basis set group =>   2
----------------------------------
AUXILIARY/JK BASIS SET INFORMATION
----------------------------------
There are 2 groups of distinct atoms

 Group   1 Type C   : 17s13p12d2f contracted to 17s13p12d2f pattern {11111111111111111/1111111111111/111111111111/11}
 Group   2 Type H   : 15s6p1d contracted to 15s6p1d pattern {111111111111111/111111/1}

Atom   0C    basis set group =>   1
Atom   1C    basis set group =>   1
Atom   2C    basis set group =>   1
Atom   3C    basis set group =>   1
Atom   4C    basis set group =>   1
Atom   5C    basis set group =>   1
Atom   6C    basis set group =>   1
Atom   7H    basis set group =>   2
Atom   8H    basis set group =>   2
Atom   9C    basis set group =>   1
Atom  10H    basis set group =>   2
Atom  11H    basis set group =>   2
Atom  12C    basis set group =>   1
Atom  13H    basis set group =>   2
Atom  14H    basis set group =>   2
Atom  15C    basis set group =>   1
Atom  16H    basis set group =>   2
Atom  17H    basis set group =>   2
Atom  18C    basis set group =>   1
Atom  19H    basis set group =>   2
Atom  20H    basis set group =>   2
Atom  21C    basis set group =>   1
Atom  22H    basis set group =>   2
Atom  23H    basis set group =>   2
Atom  24C    basis set group =>   1
Atom  25H    basis set group =>   2
Atom  26H    basis set group =>   2
Atom  27C    basis set group =>   1
Atom  28H    basis set group =>   2
Atom  29H    basis set group =>   2
Atom  30C    basis set group =>   1
Atom  31H    basis set group =>   2
Atom  32H    basis set group =>   2
Atom  33C    basis set group =>   1
Atom  34H    basis set group =>   2
Atom  35H    basis set group =>   2
Atom  36C    basis set group =>   1
Atom  37C    basis set group =>   1
Atom  38C    basis set group =>   1
Atom  39C    basis set group =>   1
Atom  40C    basis set group =>   1
Atom  41C    basis set group =>   1
Atom  42H    basis set group =>   2
Atom  43H    basis set group =>   2
Atom  44H    basis set group =>   2
Atom  45H    basis set group =>   2
Atom  46H    basis set group =>   2

Checking for AutoStart:
The File: EPRII.gbw exists
Trying to determine its content:
     ... Fine, the file contains calculation information
     ... Fine, the calculation information was read
     ... Fine, the file contains a basis set
     ... Fine, the basis set was read
     ... Fine, the file contains a geometry
     ... Fine, the geometry was read
     ... Fine, the file contains a set of orbitals
     ... Fine, the orbitals can be read
     => possible old guess file was deleted
     => GBW file was renamed to GES file
     => GES file is set as startup file
     => Guess is set to MORead
     ... now leaving AutoStart



           ************************************************************
           *        Program running with 16 parallel MPI-processes    *
           *              working on a common directory               *
           ************************************************************
------------------------------------------------------------------------------
                           ORCA GTO INTEGRAL CALCULATION
                           -- RI-GTO INTEGRALS CHOSEN --
------------------------------------------------------------------------------
------------------------------------------------------------------------------
                   ___                                                        
                  /   \      - P O W E R E D   B Y -                         
                 /     \                                                     
                 |  |  |   _    _      __       _____    __    __             
                 |  |  |  | |  | |    /  \     |  _  \  |  |  /  |          
                  \  \/   | |  | |   /    \    | | | |  |  | /  /          
                 / \  \   | |__| |  /  /\  \   | |_| |  |  |/  /          
                |  |  |   |  __  | /  /__\  \  |    /   |      \           
                |  |  |   | |  | | |   __   |  |    \   |  |\   \          
                \     /   | |  | | |  |  |  |  | |\  \  |  | \   \       
                 \___/    |_|  |_| |__|  |__|  |_| \__\ |__|  \__/        
                                                                              
                      - O R C A' S   B I G   F R I E N D -                    
                                      &                                       
                       - I N T E G R A L  F E E D E R -                       
                                                                              
 v1 FN, 2020, v2 2021                                                         
------------------------------------------------------------------------------


Reading SHARK input file EPRII.SHARKINP.tmp ... ok
----------------------
SHARK INTEGRAL PACKAGE
----------------------

Number of atoms                             ...     47
Number of basis functions                   ...    549
Number of shells                            ...    323
Maximum angular momentum                    ...      2
Integral batch strategy                     ... SHARK/LIBINT Hybrid
RI-J (if used) integral strategy            ... SPLIT-RIJ (Revised 2003 algorithm where possible)
Printlevel                                  ...      1
Contraction scheme used                     ... SEGMENTED contraction
Coulomb Range Separation                    ... NOT USED
Exchange Range Separation                   ... NOT USED
Finite Nucleus Model                        ... NOT USED
Auxiliary Coulomb fitting basis             ... AVAILABLE
   # of basis functions in Aux-J            ...   3810
   # of shells in Aux-J                     ...   1518
   Maximum angular momentum in Aux-J        ...      3
Auxiliary J/K fitting basis                 ... AVAILABLE
   # of basis functions in Aux-JK           ...   3810
   # of shells in Aux-JK                    ...   1518
   Maximum angular momentum in Aux-JK       ...      3
Auxiliary Correlation fitting basis         ... AVAILABLE
   # of basis functions in Aux-C            ...   3810
   # of shells in Aux-C                     ...   1518
   Maximum angular momentum in Aux-C        ...      3
Auxiliary 'external' fitting basis          ... NOT available
Integral threshold                          ...     1.000000e-10
Primitive cut-off                           ...     1.000000e-11
Primitive pair pre-selection threshold      ...     1.000000e-11

Calculating pre-screening integrals         ... done (  0.0 sec) Dimension = 323
Organizing shell pair data                  ... done (  0.2 sec)
Shell pair information
Total number of shell pairs                 ...     52326
Shell pairs after pre-screening             ...     26544
Total number of primitive shell pairs       ...    139555
Primitive shell pairs kept                  ...     49985
          la=0 lb=0:  12261 shell pairs
          la=1 lb=0:   9128 shell pairs
          la=1 lb=1:   1626 shell pairs
          la=2 lb=0:   2463 shell pairs
          la=2 lb=1:    927 shell pairs
          la=2 lb=2:    139 shell pairs

Calculating one electron integrals          ... done (  0.0 sec)
Calculating RI/J V-Matrix + Cholesky decomp.... done (  1.1 sec)
Calculating RI/JK V-Matrix + Cholesky decomp... done (  1.1 sec)
Calculating RI/C V-Matrix + Cholesky decomp.... done (  0.9 sec)
Calculating Nuclear repulsion               ... done (  0.0 sec) ENN=   1524.480174178007 Eh

SHARK setup successfully completed in   4.1 seconds

Maximum memory used throughout the entire GTOINT-calculation: 53.3 MB


           ************************************************************
           *        Program running with 16 parallel MPI-processes    *
           *              working on a common directory               *
           ************************************************************
-------------------------------------------------------------------------------
                                 ORCA SCF
-------------------------------------------------------------------------------

------------
SCF SETTINGS
------------
Hamiltonian:
 Density Functional     Method          .... DFT(GTOs)
 Exchange Functional    Exchange        .... B88
   X-Alpha parameter    XAlpha          ....  0.666667
   Becke's b parameter  XBeta           ....  0.004200
 Correlation Functional Correlation     .... LYP
 LDA part of GGA corr.  LDAOpt          .... VWN-5
 Gradients option       PostSCFGGA      .... off
 Hybrid DFT is turned on
   Fraction HF Exchange ScalHFX         ....  0.200000
   Scaling of DF-GGA-X  ScalDFX         ....  0.720000
   Scaling of DF-GGA-C  ScalDFC         ....  0.810000
   Scaling of DF-LDA-C  ScalLDAC        ....  1.000000
   Perturbative correction              ....  0.000000
   Density functional embedding theory  .... OFF
   NL short-range parameter             ....  4.800000
 RI-approximation to the Coulomb term is turned on
   Number of AuxJ basis functions       .... 3810
   RIJ-COSX (HFX calculated with COS-X)).... on


General Settings:
 Integral files         IntName         .... EPRII
 Hartree-Fock type      HFTyp           .... UHF
 Total Charge           Charge          ....    0
 Multiplicity           Mult            ....    2
 Number of Electrons    NEL             ....  157
 Basis Dimension        Dim             ....  549
 Nuclear Repulsion      ENuc            ....   1524.4801741780 Eh

Convergence Acceleration:
 DIIS                   CNVDIIS         .... on
   Start iteration      DIISMaxIt       ....    12
   Startup error        DIISStart       ....  0.200000
   # of expansion vecs  DIISMaxEq       ....     5
   Bias factor          DIISBfac        ....   1.050
   Max. coefficient     DIISMaxC        ....  10.000
 Trust-Rad. Augm. Hess. CNVTRAH         .... auto
   Auto Start mean grad. ratio tolernc. ....  1.125000
   Auto Start start iteration           ....     1
   Auto Start num. interpolation iter.  ....    10
   Max. Number of Micro iterations      ....    16
   Max. Number of Macro iterations      .... Maxiter - #DIIS iter
   Number of Davidson start vectors     ....     2
   Converg. threshold I  (grad. norm)   ....   5.000e-05
   Converg. threshold II (energy diff.) ....   1.000e-06
   Grad. Scal. Fac. for Micro threshold ....   0.100
   Minimum threshold for Micro iter.    ....   0.010
   NR start threshold (gradient norm)   ....   0.001
   Initial trust radius                 ....   0.400
   Minimum AH scaling param. (alpha)    ....   1.000
   Maximum AH scaling param. (alpha)    .... 1000.000
   Orbital update algorithm             .... Taylor
   White noise on init. David. guess    .... on
   Maximum white noise                  ....   0.010
   Quad. conv. algorithm                .... NR
 SOSCF                  CNVSOSCF        .... off
 Level Shifting         CNVShift        .... on
   Level shift para.    LevelShift      ....    0.2500
   Turn off err/grad.   ShiftErr        ....    0.0010
 Zerner damping         CNVZerner       .... off
 Static damping         CNVDamp         .... on
   Fraction old density DampFac         ....    0.7000
   Max. Damping (<1)    DampMax         ....    0.9800
   Min. Damping (>=0)   DampMin         ....    0.0000
   Turn off err/grad.   DampErr         ....    0.1000
 Fernandez-Rico         CNVRico         .... off

SCF Procedure:
 Maximum # iterations   MaxIter         ....   125
 SCF integral mode      SCFMode         .... Direct
   Integral package                     .... SHARK and LIBINT hybrid scheme
 Reset frequency        DirectResetFreq ....    20
 Integral Threshold     Thresh          ....  1.000e-10 Eh
 Primitive CutOff       TCut            ....  1.000e-11 Eh

Convergence Tolerance:
 Convergence Check Mode ConvCheckMode   .... Total+1el-Energy
 Convergence forced     ConvForced      .... 0
 Energy Change          TolE            ....  1.000e-06 Eh
 1-El. energy change                    ....  1.000e-03 Eh
 DIIS Error             TolErr          ....  1.000e-06


Diagonalization of the overlap matrix:
Smallest eigenvalue                        ... 7.944e-05
Time for diagonalization                   ...    0.055 sec
Threshold for overlap eigenvalues          ... 1.000e-08
Number of eigenvalues below threshold      ... 0
Time for construction of square roots      ...    0.062 sec
Total time needed                          ...    0.119 sec

---------------------
INITIAL GUESS: MOREAD
---------------------
Guess MOs are being read from file: EPRII.ges
Input Geometry matches current geometry (good)
Input basis set matches current basis set (good)
MOs were renormalized
MOs were reorthogonalized (Cholesky)
                      ------------------
                      INITIAL GUESS DONE (   0.3 sec)
                      ------------------
-------------------
DFT GRID GENERATION
-------------------

General Integration Accuracy     IntAcc      ... 4.388
Radial Grid Type                 RadialGrid  ... OptM3 with GC (2021)
Angular Grid (max. ang.)         AngularGrid ... 4 (Lebedev-302)
Angular grid pruning method      GridPruning ... 4 (adaptive)
Weight generation scheme         WeightScheme... Becke
Basis function cutoff            BFCut       ... 1.0000e-10
Integration weight cutoff        WCut        ... 1.0000e-14
Angular grids for H and He will be reduced by one unit
Partially contracted basis set               ... off
Rotationally invariant grid construction     ... off

Total number of grid points                  ...   211214
Total number of batches                      ...     3326
Average number of points per batch           ...       63
Average number of grid points per atom       ...     4494
Time for grid setup =    1.284 sec

--------------------
COSX GRID GENERATION
--------------------

GRIDX 1
-------
General Integration Accuracy     IntAcc      ... 3.816
Radial Grid Type                 RadialGrid  ... OptM3 with GC (2021)
Angular Grid (max. ang.)         AngularGrid ... 1 (Lebedev-50)
Angular grid pruning method      GridPruning ... 4 (adaptive)
Weight generation scheme         WeightScheme... Becke
Basis function cutoff            BFCut       ... 1.0000e-10
Integration weight cutoff        WCut        ... 1.0000e-14
Angular grids for H and He will be reduced by one unit
Partially contracted basis set               ... on
Rotationally invariant grid construction     ... off

Total number of grid points                  ...    26939
Total number of batches                      ...      446
Average number of points per batch           ...       60
Average number of grid points per atom       ...      573
UseSFitting                                  ... on

GRIDX 2
-------
General Integration Accuracy     IntAcc      ... 4.020
Radial Grid Type                 RadialGrid  ... OptM3 with GC (2021)
Angular Grid (max. ang.)         AngularGrid ... 2 (Lebedev-110)
Angular grid pruning method      GridPruning ... 4 (adaptive)
Weight generation scheme         WeightScheme... Becke
Basis function cutoff            BFCut       ... 1.0000e-10
Integration weight cutoff        WCut        ... 1.0000e-14
Angular grids for H and He will be reduced by one unit
Partially contracted basis set               ... on
Rotationally invariant grid construction     ... off

Total number of grid points                  ...    57171
Total number of batches                      ...      916
Average number of points per batch           ...       62
Average number of grid points per atom       ...     1216
UseSFitting                                  ... on

GRIDX 3
-------
General Integration Accuracy     IntAcc      ... 4.338
Radial Grid Type                 RadialGrid  ... OptM3 with GC (2021)
Angular Grid (max. ang.)         AngularGrid ... 3 (Lebedev-194)
Angular grid pruning method      GridPruning ... 4 (adaptive)
Weight generation scheme         WeightScheme... Becke
Basis function cutoff            BFCut       ... 1.0000e-10
Integration weight cutoff        WCut        ... 1.0000e-14
Angular grids for H and He will be reduced by one unit
Partially contracted basis set               ... on
Rotationally invariant grid construction     ... off

Total number of grid points                  ...   125073
Total number of batches                      ...     1980
Average number of points per batch           ...       63
Average number of grid points per atom       ...     2661
UseSFitting                                  ... on

Time for X-Grid setup             =    2.347 sec

--------------
SCF ITERATIONS
--------------
ITER       Energy         Delta-E        Max-DP      RMS-DP      [F,P]     Damp
               ***  Starting incremental Fock matrix formation  ***
  0   -852.8233755444   0.000000000000 0.00001826  0.00000017  0.0000363 0.7000
                 **** Energy Check signals convergence ****

               *****************************************************
               *                     SUCCESS                       *
               *           SCF CONVERGED AFTER   1 CYCLES          *
               *****************************************************

Old exchange energy                            =    -24.544999386 Eh
New exchange energy                            =    -24.544990305 Eh
Exchange energy change after final integration =      0.000009081 Eh
Total energy after final integration           =   -852.823366538 Eh
Final COS-X integration done in                =    10.679 sec

----------------
TOTAL SCF ENERGY
----------------

Total Energy       :         -852.82336654 Eh          -23206.50360 eV

Components:
Nuclear Repulsion  :         1524.48017418 Eh           41483.21451 eV
Electronic Energy  :        -2377.30354072 Eh          -64689.71810 eV
One Electron Energy:        -4176.83586122 Eh         -113657.48202 eV
Two Electron Energy:         1799.53232050 Eh           48967.76391 eV
Max COSX asymmetry :            0.00000380 Eh               0.00010 eV

Virial components:
Potential Energy   :        -1698.83573482 Eh          -46227.67051 eV
Kinetic Energy     :          846.01236828 Eh           23021.16691 eV
Virial Ratio       :            2.00805071


DFT components:
N(Alpha)           :       79.000177581757 electrons
N(Beta)            :       78.000178499125 electrons
N(Total)           :      157.000356080882 electrons
E(X)               :      -97.347712166191 Eh       
E(C)               :       -6.090122547635 Eh       
E(XC)              :     -103.437834713825 Eh       
DFET-embed. en.    :        0.000000000000 Eh       

---------------
SCF CONVERGENCE
---------------

  Last Energy change         ...   -7.4989e-08  Tolerance :   1.0000e-06
  Last MAX-Density change    ...    7.8186e-06  Tolerance :   1.0000e-05
  Last RMS-Density change    ...    6.2647e-08  Tolerance :   1.0000e-06
  Last DIIS Error            ...    1.8324e-05  Tolerance :   1.0000e-06

             **** THE GBW FILE WAS UPDATED (EPRII.gbw) ****
             **** DENSITY EPRII.scfp WAS UPDATED ****
             **** ENERGY FILE WAS UPDATED (EPRII.en.tmp) ****
----------------------
UHF SPIN CONTAMINATION
----------------------

Warning: in a DFT calculation there is little theoretical justification to 
         calculate <S**2> as in Hartree-Fock theory. We will do it anyways
         but you should keep in mind that the values have only limited relevance

Expectation value of <S**2>     :     0.759266
Ideal value S*(S+1) for S=0.5   :     0.750000
Deviation                       :     0.009266

             **** THE GBW FILE WAS UPDATED (EPRII.gbw) ****
             **** DENSITY EPRII.scfp WAS UPDATED ****
----------------
ORBITAL ENERGIES
----------------
                 SPIN UP ORBITALS
  NO   OCC          E(Eh)            E(eV) 
   0   1.0000     -10.225237      -278.2428 
   1   1.0000     -10.216669      -278.0097 
   2   1.0000     -10.213512      -277.9238 
   3   1.0000     -10.212811      -277.9047 
   4   1.0000     -10.209365      -277.8110 
   5   1.0000     -10.202977      -277.6371 
   6   1.0000     -10.202801      -277.6323 
   7   1.0000     -10.202570      -277.6261 
   8   1.0000     -10.202084      -277.6128 
   9   1.0000     -10.201820      -277.6056 
  10   1.0000     -10.201160      -277.5877 
  11   1.0000     -10.198895      -277.5260 
  12   1.0000     -10.198595      -277.5179 
  13   1.0000     -10.196326      -277.4561 
  14   1.0000     -10.190966      -277.3103 
  15   1.0000     -10.187963      -277.2286 
  16   1.0000     -10.183394      -277.1043 
  17   1.0000     -10.183146      -277.0975 
  18   1.0000     -10.183120      -277.0968 
  19   1.0000     -10.182902      -277.0908 
  20   1.0000     -10.173788      -276.8429 
  21   1.0000     -10.173721      -276.8410 
  22   1.0000      -0.870125       -23.6773 
  23   1.0000      -0.860924       -23.4269 
  24   1.0000      -0.812177       -22.1005 
  25   1.0000      -0.793871       -21.6023 
  26   1.0000      -0.786858       -21.4115 
  27   1.0000      -0.768773       -20.9194 
  28   1.0000      -0.759904       -20.6781 
  29   1.0000      -0.749089       -20.3838 
  30   1.0000      -0.730471       -19.8771 
  31   1.0000      -0.712858       -19.3979 
  32   1.0000      -0.697013       -18.9667 
  33   1.0000      -0.651462       -17.7272 
  34   1.0000      -0.630702       -17.1623 
  35   1.0000      -0.616867       -16.7858 
  36   1.0000      -0.607546       -16.5322 
  37   1.0000      -0.605563       -16.4782 
  38   1.0000      -0.581497       -15.8233 
  39   1.0000      -0.576265       -15.6810 
  40   1.0000      -0.562817       -15.3150 
  41   1.0000      -0.535885       -14.5822 
  42   1.0000      -0.506465       -13.7816 
  43   1.0000      -0.479124       -13.0376 
  44   1.0000      -0.470974       -12.8159 
  45   1.0000      -0.470858       -12.8127 
  46   1.0000      -0.469946       -12.7879 
  47   1.0000      -0.454829       -12.3765 
  48   1.0000      -0.441371       -12.0103 
  49   1.0000      -0.435957       -11.8630 
  50   1.0000      -0.426775       -11.6131 
  51   1.0000      -0.423329       -11.5194 
  52   1.0000      -0.422687       -11.5019 
  53   1.0000      -0.422269       -11.4905 
  54   1.0000      -0.416929       -11.3452 
  55   1.0000      -0.412990       -11.2380 
  56   1.0000      -0.411278       -11.1914 
  57   1.0000      -0.381020       -10.3681 
  58   1.0000      -0.377517       -10.2728 
  59   1.0000      -0.372404       -10.1336 
  60   1.0000      -0.365110        -9.9352 
  61   1.0000      -0.363728        -9.8975 
  62   1.0000      -0.359273        -9.7763 
  63   1.0000      -0.356817        -9.7095 
  64   1.0000      -0.349647        -9.5144 
  65   1.0000      -0.341133        -9.2827 
  66   1.0000      -0.332730        -9.0541 
  67   1.0000      -0.330955        -9.0057 
  68   1.0000      -0.326084        -8.8732 
  69   1.0000      -0.324093        -8.8190 
  70   1.0000      -0.322197        -8.7674 
  71   1.0000      -0.321601        -8.7512 
  72   1.0000      -0.312527        -8.5043 
  73   1.0000      -0.268552        -7.3077 
  74   1.0000      -0.266583        -7.2541 
  75   1.0000      -0.257050        -6.9947 
  76   1.0000      -0.242221        -6.5912 
  77   1.0000      -0.237117        -6.4523 
  78   1.0000      -0.209984        -5.7140 
  79   0.0000      -0.051432        -1.3995 
  80   0.0000      -0.012324        -0.3353 
  81   0.0000      -0.005344        -0.1454 
  82   0.0000       0.003519         0.0958 
  83   0.0000       0.015950         0.4340 
  84   0.0000       0.022073         0.6006 
  85   0.0000       0.023017         0.6263 
  86   0.0000       0.032130         0.8743 
  87   0.0000       0.034438         0.9371 
  88   0.0000       0.037184         1.0118 
  89   0.0000       0.045969         1.2509 
  90   0.0000       0.048501         1.3198 
  91   0.0000       0.056599         1.5401 
  92   0.0000       0.061273         1.6673 
  93   0.0000       0.067181         1.8281 
  94   0.0000       0.070947         1.9306 
  95   0.0000       0.077910         2.1200 
  96   0.0000       0.085562         2.3282 
  97   0.0000       0.092073         2.5054 
  98   0.0000       0.094783         2.5792 
  99   0.0000       0.100527         2.7355 
 100   0.0000       0.106732         2.9043 
 101   0.0000       0.118100         3.2137 
 102   0.0000       0.128787         3.5045 
 103   0.0000       0.138626         3.7722 
 104   0.0000       0.139998         3.8095 
 105   0.0000       0.152303         4.1444 
 106   0.0000       0.161988         4.4079 
 107   0.0000       0.168809         4.5935 
 108   0.0000       0.172731         4.7002 
 109   0.0000       0.177229         4.8226 
 110   0.0000       0.180760         4.9187 
 111   0.0000       0.191228         5.2036 
 112   0.0000       0.192437         5.2365 
 113   0.0000       0.192971         5.2510 
 114   0.0000       0.197782         5.3819 
 115   0.0000       0.199954         5.4410 
 116   0.0000       0.200920         5.4673 
 117   0.0000       0.207600         5.6491 
 118   0.0000       0.209559         5.7024 
 119   0.0000       0.215545         5.8653 
 120   0.0000       0.221669         6.0319 
 121   0.0000       0.221818         6.0360 
 122   0.0000       0.225312         6.1310 
 123   0.0000       0.230722         6.2783 
 124   0.0000       0.235384         6.4051 
 125   0.0000       0.240469         6.5435 
 126   0.0000       0.245191         6.6720 
 127   0.0000       0.251773         6.8511 
 128   0.0000       0.254042         6.9128 
 129   0.0000       0.255653         6.9567 
 130   0.0000       0.257179         6.9982 
 131   0.0000       0.259721         7.0674 
 132   0.0000       0.268084         7.2949 
 133   0.0000       0.274015         7.4563 
 134   0.0000       0.275470         7.4959 
 135   0.0000       0.277890         7.5618 
 136   0.0000       0.281240         7.6529 
 137   0.0000       0.283714         7.7202 
 138   0.0000       0.285128         7.7587 
 139   0.0000       0.291189         7.9237 
 140   0.0000       0.294463         8.0128 
 141   0.0000       0.295593         8.0435 
 142   0.0000       0.302524         8.2321 
 143   0.0000       0.303554         8.2601 
 144   0.0000       0.309220         8.4143 
 145   0.0000       0.310403         8.4465 
 146   0.0000       0.313144         8.5211 
 147   0.0000       0.314881         8.5683 
 148   0.0000       0.318474         8.6661 
 149   0.0000       0.321755         8.7554 
 150   0.0000       0.321970         8.7613 
 151   0.0000       0.328642         8.9428 
 152   0.0000       0.331928         9.0322 
 153   0.0000       0.334644         9.1061 
 154   0.0000       0.345280         9.3955 
 155   0.0000       0.346277         9.4227 
 156   0.0000       0.348728         9.4894 
 157   0.0000       0.350569         9.5395 
 158   0.0000       0.355063         9.6617 
 159   0.0000       0.367948        10.0124 
 160   0.0000       0.368613        10.0305 
 161   0.0000       0.373570        10.1653 
 162   0.0000       0.377908        10.2834 
 163   0.0000       0.379504        10.3268 
 164   0.0000       0.386948        10.5294 
 165   0.0000       0.393319        10.7027 
 166   0.0000       0.402699        10.9580 
 167   0.0000       0.405615        11.0373 
 168   0.0000       0.413132        11.2419 
 169   0.0000       0.417350        11.3567 
 170   0.0000       0.418487        11.3876 
 171   0.0000       0.423992        11.5374 
 172   0.0000       0.429610        11.6903 
 173   0.0000       0.433524        11.7968 
 174   0.0000       0.434434        11.8215 
 175   0.0000       0.439573        11.9614 
 176   0.0000       0.448750        12.2111 
 177   0.0000       0.452391        12.3102 
 178   0.0000       0.456797        12.4301 
 179   0.0000       0.457474        12.4485 
 180   0.0000       0.461464        12.5571 
 181   0.0000       0.468420        12.7464 
 182   0.0000       0.472599        12.8601 
 183   0.0000       0.476131        12.9562 
 184   0.0000       0.483156        13.1474 
 185   0.0000       0.483994        13.1701 
 186   0.0000       0.493134        13.4189 
 187   0.0000       0.499373        13.5886 
 188   0.0000       0.505773        13.7628 
 189   0.0000       0.516276        14.0486 
 190   0.0000       0.520597        14.1662 
 191   0.0000       0.521379        14.1874 
 192   0.0000       0.523757        14.2521 
 193   0.0000       0.535275        14.5656 
 194   0.0000       0.540555        14.7093 
 195   0.0000       0.545411        14.8414 
 196   0.0000       0.559912        15.2360 
 197   0.0000       0.561364        15.2755 
 198   0.0000       0.561838        15.2884 
 199   0.0000       0.566093        15.4042 
 200   0.0000       0.582175        15.8418 
 201   0.0000       0.592053        16.1106 
 202   0.0000       0.601201        16.3595 
 203   0.0000       0.602021        16.3818 
 204   0.0000       0.612251        16.6602 
 205   0.0000       0.628065        17.0905 
 206   0.0000       0.639593        17.4042 
 207   0.0000       0.643106        17.4998 
 208   0.0000       0.658119        17.9083 
 209   0.0000       0.660231        17.9658 
 210   0.0000       0.672266        18.2933 
 211   0.0000       0.674342        18.3498 
 212   0.0000       0.686584        18.6829 
 213   0.0000       0.695056        18.9134 
 214   0.0000       0.695402        18.9229 
 215   0.0000       0.715160        19.4605 
 216   0.0000       0.729608        19.8536 
 217   0.0000       0.756128        20.5753 
 218   0.0000       0.760340        20.6899 
 219   0.0000       0.766177        20.8487 
 220   0.0000       0.777445        21.1553 
 221   0.0000       0.783372        21.3166 
 222   0.0000       0.815075        22.1793 
 223   0.0000       0.833409        22.6782 
 224   0.0000       0.834794        22.7159 
 225   0.0000       0.843656        22.9570 
 226   0.0000       0.844917        22.9914 
 227   0.0000       0.848293        23.0832 
 228   0.0000       0.852780        23.2053 
 229   0.0000       0.865950        23.5637 
 230   0.0000       0.867357        23.6020 
 231   0.0000       0.867479        23.6053 
 232   0.0000       0.879882        23.9428 
 233   0.0000       0.893177        24.3046 
 234   0.0000       0.895072        24.3561 
 235   0.0000       0.897463        24.4212 
 236   0.0000       0.902367        24.5547 
 237   0.0000       0.904538        24.6137 
 238   0.0000       0.917282        24.9605 
 239   0.0000       0.920222        25.0405 
 240   0.0000       0.924254        25.1502 
 241   0.0000       0.924813        25.1655 
 242   0.0000       0.927710        25.2443 
 243   0.0000       0.932388        25.3716 
 244   0.0000       0.934849        25.4385 
 245   0.0000       0.937029        25.4979 
 246   0.0000       0.948590        25.8125 
 247   0.0000       0.950441        25.8628 
 248   0.0000       0.956230        26.0204 
 249   0.0000       0.968704        26.3598 
 250   0.0000       0.973633        26.4939 
 251   0.0000       0.978986        26.6396 
 252   0.0000       0.984169        26.7806 
 253   0.0000       0.984681        26.7945 
 254   0.0000       0.994275        27.0556 
 255   0.0000       0.996319        27.1112 
 256   0.0000       1.000372        27.2215 
 257   0.0000       1.004715        27.3397 
 258   0.0000       1.016358        27.6565 
 259   0.0000       1.016822        27.6691 
 260   0.0000       1.023216        27.8431 
 261   0.0000       1.026309        27.9273 
 262   0.0000       1.035021        28.1644 
 263   0.0000       1.043262        28.3886 
 264   0.0000       1.047667        28.5085 
 265   0.0000       1.055293        28.7160 
 266   0.0000       1.061049        28.8726 
 267   0.0000       1.067187        29.0396 
 268   0.0000       1.072356        29.1803 
 269   0.0000       1.091573        29.7032 
 270   0.0000       1.098761        29.8988 
 271   0.0000       1.100492        29.9459 
 272   0.0000       1.102433        29.9987 
 273   0.0000       1.115101        30.3434 
 274   0.0000       1.117784        30.4164 
 275   0.0000       1.124145        30.5895 
 276   0.0000       1.134108        30.8606 
 277   0.0000       1.146289        31.1921 
 278   0.0000       1.161598        31.6087 
 279   0.0000       1.170088        31.8397 
 280   0.0000       1.174883        31.9702 
 281   0.0000       1.177269        32.0351 
 282   0.0000       1.181652        32.1544 
 283   0.0000       1.199765        32.6473 
 284   0.0000       1.204292        32.7704 
 285   0.0000       1.204654        32.7803 
 286   0.0000       1.205241        32.7963 
 287   0.0000       1.232261        33.5315 
 288   0.0000       1.237789        33.6819 
 289   0.0000       1.251734        34.0614 
 290   0.0000       1.259943        34.2848 
 291   0.0000       1.274629        34.6844 
 292   0.0000       1.288155        35.0525 
 293   0.0000       1.296319        35.2746 
 294   0.0000       1.307358        35.5750 
 295   0.0000       1.315105        35.7858 
 296   0.0000       1.322407        35.9845 
 297   0.0000       1.327300        36.1177 
 298   0.0000       1.336697        36.3734 
 299   0.0000       1.357190        36.9310 
 300   0.0000       1.364142        37.1202 
 301   0.0000       1.382503        37.6198 
 302   0.0000       1.385114        37.6909 
 303   0.0000       1.390388        37.8344 
 304   0.0000       1.400443        38.1080 
 305   0.0000       1.410609        38.3846 
 306   0.0000       1.420994        38.6672 
 307   0.0000       1.425866        38.7998 
 308   0.0000       1.426781        38.8247 
 309   0.0000       1.442683        39.2574 
 310   0.0000       1.444654        39.3110 
 311   0.0000       1.450979        39.4831 
 312   0.0000       1.454042        39.5665 
 313   0.0000       1.455109        39.5955 
 314   0.0000       1.475439        40.1487 
 315   0.0000       1.482334        40.3364 
 316   0.0000       1.500404        40.8281 
 317   0.0000       1.505288        40.9610 
 318   0.0000       1.513645        41.1884 
 319   0.0000       1.516479        41.2655 
 320   0.0000       1.518380        41.3172 
 321   0.0000       1.524067        41.4720 
 322   0.0000       1.534041        41.7434 
 323   0.0000       1.550381        42.1880 
 324   0.0000       1.556441        42.3529 
 325   0.0000       1.560665        42.4679 
 326   0.0000       1.562729        42.5240 
 327   0.0000       1.568992        42.6944 
 328   0.0000       1.573804        42.8254 
 329   0.0000       1.582057        43.0500 
 330   0.0000       1.582906        43.0731 
 331   0.0000       1.590290        43.2740 
 332   0.0000       1.596910        43.4541 
 333   0.0000       1.600905        43.5628 
 334   0.0000       1.609232        43.7894 
 335   0.0000       1.619563        44.0705 
 336   0.0000       1.621745        44.1299 
 337   0.0000       1.624738        44.2114 
 338   0.0000       1.632507        44.4228 
 339   0.0000       1.637746        44.5653 
 340   0.0000       1.638630        44.5894 
 341   0.0000       1.643491        44.7217 
 342   0.0000       1.648364        44.8543 
 343   0.0000       1.659784        45.1650 
 344   0.0000       1.667988        45.3883 
 345   0.0000       1.678954        45.6867 
 346   0.0000       1.680363        45.7250 
 347   0.0000       1.685405        45.8622 
 348   0.0000       1.694995        46.1232 
 349   0.0000       1.700169        46.2640 
 350   0.0000       1.707679        46.4683 
 351   0.0000       1.708140        46.4809 
 352   0.0000       1.717321        46.7307 
 353   0.0000       1.724090        46.9149 
 354   0.0000       1.729448        47.0607 
 355   0.0000       1.734118        47.1877 
 356   0.0000       1.749655        47.6105 
 357   0.0000       1.757911        47.8352 
 358   0.0000       1.758718        47.8572 
 359   0.0000       1.772616        48.2353 
 360   0.0000       1.774161        48.2774 
 361   0.0000       1.777456        48.3670 
 362   0.0000       1.778473        48.3947 
 363   0.0000       1.787036        48.6277 
 364   0.0000       1.796758        48.8923 
 365   0.0000       1.805936        49.1420 
 366   0.0000       1.815711        49.4080 
 367   0.0000       1.816532        49.4304 
 368   0.0000       1.835323        49.9417 
 369   0.0000       1.843343        50.1599 
 370   0.0000       1.843412        50.1618 
 371   0.0000       1.855754        50.4976 
 372   0.0000       1.856783        50.5256 
 373   0.0000       1.864781        50.7433 
 374   0.0000       1.892962        51.5101 
 375   0.0000       1.904518        51.8246 
 376   0.0000       1.916080        52.1392 
 377   0.0000       1.928441        52.4755 
 378   0.0000       1.934805        52.6487 
 379   0.0000       1.942712        52.8639 
 380   0.0000       1.947215        52.9864 
 381   0.0000       1.954174        53.1758 
 382   0.0000       1.961776        53.3826 
 383   0.0000       1.976533        53.7842 
 384   0.0000       1.997386        54.3516 
 385   0.0000       2.025063        55.1048 
 386   0.0000       2.029169        55.2165 
 387   0.0000       2.030846        55.2621 
 388   0.0000       2.041085        55.5407 
 389   0.0000       2.043899        55.6173 
 390   0.0000       2.068773        56.2942 
 391   0.0000       2.072077        56.3841 
 392   0.0000       2.104788        57.2742 
 393   0.0000       2.115888        57.5762 
 394   0.0000       2.138149        58.1820 
 395   0.0000       2.140020        58.2329 
 396   0.0000       2.151620        58.5486 
 397   0.0000       2.157019        58.6955 
 398   0.0000       2.198892        59.8349 
 399   0.0000       2.204050        59.9753 
 400   0.0000       2.215831        60.2958 
 401   0.0000       2.223642        60.5084 
 402   0.0000       2.232689        60.7546 
 403   0.0000       2.250474        61.2385 
 404   0.0000       2.251472        61.2657 
 405   0.0000       2.254586        61.3504 
 406   0.0000       2.264222        61.6126 
 407   0.0000       2.287722        62.2521 
 408   0.0000       2.305897        62.7466 
 409   0.0000       2.314415        62.9784 
 410   0.0000       2.315994        63.0214 
 411   0.0000       2.318971        63.1024 
 412   0.0000       2.320163        63.1348 
 413   0.0000       2.345264        63.8179 
 414   0.0000       2.351037        63.9750 
 415   0.0000       2.375988        64.6539 
 416   0.0000       2.398009        65.2531 
 417   0.0000       2.404231        65.4224 
 418   0.0000       2.413051        65.6625 
 419   0.0000       2.416494        65.7561 
 420   0.0000       2.417951        65.7958 
 421   0.0000       2.426910        66.0396 
 422   0.0000       2.444969        66.5310 
 423   0.0000       2.454234        66.7831 
 424   0.0000       2.458239        66.8921 
 425   0.0000       2.462983        67.0212 
 426   0.0000       2.468557        67.1729 
 427   0.0000       2.472964        67.2928 
 428   0.0000       2.477744        67.4228 
 429   0.0000       2.493386        67.8485 
 430   0.0000       2.512304        68.3633 
 431   0.0000       2.515951        68.4625 
 432   0.0000       2.520690        68.5915 
 433   0.0000       2.532561        68.9145 
 434   0.0000       2.534188        68.9588 
 435   0.0000       2.548804        69.3565 
 436   0.0000       2.556348        69.5618 
 437   0.0000       2.568658        69.8967 
 438   0.0000       2.571912        69.9853 
 439   0.0000       2.586130        70.3722 
 440   0.0000       2.610800        71.0435 
 441   0.0000       2.611799        71.0707 
 442   0.0000       2.614078        71.1327 
 443   0.0000       2.618714        71.2588 
 444   0.0000       2.631153        71.5973 
 445   0.0000       2.649810        72.1050 
 446   0.0000       2.721911        74.0670 
 447   0.0000       2.732901        74.3660 
 448   0.0000       2.780160        75.6520 
 449   0.0000       2.797021        76.1108 
 450   0.0000       2.805670        76.3462 
 451   0.0000       2.937623        79.9368 
 452   0.0000       3.059411        83.2508 
 453   0.0000       3.184787        86.6625 
 454   0.0000       3.433454        93.4290 
 455   0.0000       4.983610       135.6109 
 456   0.0000       4.984473       135.6344 
 457   0.0000       5.006668       136.2384 
 458   0.0000       5.008681       136.2931 
 459   0.0000       5.009932       136.3272 
 460   0.0000       5.011563       136.3716 
 461   0.0000       5.021582       136.6442 
 462   0.0000       5.032187       136.9328 
 463   0.0000       5.034694       137.0010 
 464   0.0000       5.044148       137.2583 
 465   0.0000       5.047875       137.3597 
 466   0.0000       5.092171       138.5650 
 467   0.0000       5.098695       138.7426 
 468   0.0000       5.181159       140.9865 
 469   0.0000       5.199064       141.4737 
 470   0.0000       5.218218       141.9949 
 471   0.0000       5.232493       142.3834 
 472   0.0000       5.249583       142.8484 
 473   0.0000       5.255265       143.0030 
 474   0.0000       5.269434       143.3886 
 475   0.0000       5.285525       143.8265 
 476   0.0000       5.293403       144.0408 
 477   0.0000       5.299131       144.1967 
 478   0.0000       5.308228       144.4442 
 479   0.0000       5.312156       144.5511 
 480   0.0000       5.349660       145.5717 
 481   0.0000       5.372275       146.1870 
 482   0.0000       5.373063       146.2085 
 483   0.0000       5.414368       147.3324 
 484   0.0000       5.441313       148.0657 
 485   0.0000       5.445672       148.1843 
 486   0.0000       5.481669       149.1638 
 487   0.0000       5.496340       149.5630 
 488   0.0000       5.545376       150.8974 
 489   0.0000       5.586567       152.0182 
 490   0.0000       5.597650       152.3198 
 491   0.0000       5.627177       153.1233 
 492   0.0000       5.660846       154.0394 
 493   0.0000       5.679698       154.5524 
 494   0.0000       5.732046       155.9769 
 495   0.0000       5.747815       156.4060 
 496   0.0000       5.813617       158.1966 
 497   0.0000       5.854107       159.2984 
 498   0.0000       5.875659       159.8848 
 499   0.0000       5.909830       160.8146 
 500   0.0000       6.133912       166.9122 
 501   0.0000       6.310164       171.7083 
 502   0.0000      29.606937       805.6457 
 503   0.0000      29.736172       809.1624 
 504   0.0000      29.793411       810.7199 
 505   0.0000      29.829047       811.6896 
 506   0.0000      29.842225       812.0482 
 507   0.0000      29.861319       812.5678 
 508   0.0000      29.932206       814.4967 
 509   0.0000      29.958552       815.2136 
 510   0.0000      29.986580       815.9763 
 511   0.0000      29.999831       816.3369 
 512   0.0000      30.044880       817.5627 
 513   0.0000      30.078878       818.4879 
 514   0.0000      30.088629       818.7532 
 515   0.0000      30.115380       819.4812 
 516   0.0000      30.134795       820.0095 
 517   0.0000      30.171020       820.9952 
 518   0.0000      30.235149       822.7402 
 519   0.0000      30.255509       823.2942 
 520   0.0000      30.276826       823.8743 
 521   0.0000      30.295978       824.3955 
 522   0.0000      30.450520       828.6008 
 523   0.0000      30.533614       830.8619 
 524   0.0000      36.612074       996.2652 
 525   0.0000      36.612696       996.2821 
 526   0.0000      36.626870       996.6678 
 527   0.0000      36.629637       996.7431 
 528   0.0000      36.634669       996.8800 
 529   0.0000      36.637954       996.9694 
 530   0.0000      36.657927       997.5129 
 531   0.0000      36.661779       997.6177 
 532   0.0000      36.669934       997.8396 
 533   0.0000      36.672870       997.9195 
 534   0.0000      36.705475       998.8068 
 535   0.0000      36.719855       999.1981 
 536   0.0000      36.789928      1001.1048 
 537   0.0000      36.812392      1001.7161 
 538   0.0000      36.827836      1002.1364 
 539   0.0000      36.848758      1002.7057 
 540   0.0000      36.864068      1003.1223 
 541   0.0000      36.873927      1003.3906 
 542   0.0000      36.880547      1003.5707 
 543   0.0000      36.901561      1004.1425 
 544   0.0000      36.929214      1004.8950 
 545   0.0000      36.934181      1005.0302 
 546   0.0000      36.986556      1006.4554 
 547   0.0000      37.011832      1007.1432 
 548   0.0000      37.043883      1008.0153 

                 SPIN DOWN ORBITALS
  NO   OCC          E(Eh)            E(eV) 
   0   1.0000     -10.225173      -278.2411 
   1   1.0000     -10.217262      -278.0258 
   2   1.0000     -10.211452      -277.8677 
   3   1.0000     -10.209450      -277.8132 
   4   1.0000     -10.203025      -277.6384 
   5   1.0000     -10.202848      -277.6336 
   6   1.0000     -10.202627      -277.6276 
   7   1.0000     -10.202070      -277.6124 
   8   1.0000     -10.201820      -277.6056 
   9   1.0000     -10.199954      -277.5548 
  10   1.0000     -10.199232      -277.5352 
  11   1.0000     -10.198568      -277.5172 
  12   1.0000     -10.198328      -277.5106 
  13   1.0000     -10.196413      -277.4585 
  14   1.0000     -10.190507      -277.2978 
  15   1.0000     -10.187833      -277.2250 
  16   1.0000     -10.183391      -277.1041 
  17   1.0000     -10.183140      -277.0973 
  18   1.0000     -10.183112      -277.0966 
  19   1.0000     -10.182894      -277.0906 
  20   1.0000     -10.173784      -276.8427 
  21   1.0000     -10.173722      -276.8410 
  22   1.0000      -0.864526       -23.5249 
  23   1.0000      -0.860574       -23.4174 
  24   1.0000      -0.810349       -22.0507 
  25   1.0000      -0.793737       -21.5987 
  26   1.0000      -0.784680       -21.3522 
  27   1.0000      -0.766720       -20.8635 
  28   1.0000      -0.756166       -20.5763 
  29   1.0000      -0.749152       -20.3855 
  30   1.0000      -0.728652       -19.8276 
  31   1.0000      -0.710310       -19.3285 
  32   1.0000      -0.695117       -18.9151 
  33   1.0000      -0.650290       -17.6953 
  34   1.0000      -0.628728       -17.1086 
  35   1.0000      -0.614867       -16.7314 
  36   1.0000      -0.607558       -16.5325 
  37   1.0000      -0.600528       -16.3412 
  38   1.0000      -0.579715       -15.7748 
  39   1.0000      -0.571527       -15.5520 
  40   1.0000      -0.560731       -15.2583 
  41   1.0000      -0.535132       -14.5617 
  42   1.0000      -0.504992       -13.7415 
  43   1.0000      -0.478719       -13.0266 
  44   1.0000      -0.470875       -12.8132 
  45   1.0000      -0.469870       -12.7858 
  46   1.0000      -0.465827       -12.6758 
  47   1.0000      -0.454761       -12.3747 
  48   1.0000      -0.435767       -11.8578 
  49   1.0000      -0.433948       -11.8083 
  50   1.0000      -0.424396       -11.5484 
  51   1.0000      -0.423308       -11.5188 
  52   1.0000      -0.421810       -11.4780 
  53   1.0000      -0.421158       -11.4603 
  54   1.0000      -0.416818       -11.3422 
  55   1.0000      -0.411089       -11.1863 
  56   1.0000      -0.406467       -11.0605 
  57   1.0000      -0.381093       -10.3701 
  58   1.0000      -0.373655       -10.1677 
  59   1.0000      -0.371433       -10.1072 
  60   1.0000      -0.364089        -9.9074 
  61   1.0000      -0.361265        -9.8305 
  62   1.0000      -0.358470        -9.7545 
  63   1.0000      -0.356627        -9.7043 
  64   1.0000      -0.349649        -9.5144 
  65   1.0000      -0.340677        -9.2703 
  66   1.0000      -0.332102        -9.0370 
  67   1.0000      -0.329706        -8.9718 
  68   1.0000      -0.325517        -8.8578 
  69   1.0000      -0.323833        -8.8119 
  70   1.0000      -0.322120        -8.7653 
  71   1.0000      -0.319941        -8.7060 
  72   1.0000      -0.310936        -8.4610 
  73   1.0000      -0.266254        -7.2451 
  74   1.0000      -0.265605        -7.2275 
  75   1.0000      -0.257227        -6.9995 
  76   1.0000      -0.242295        -6.5932 
  77   1.0000      -0.206307        -5.6139 
  78   0.0000      -0.083773        -2.2796 
  79   0.0000      -0.047365        -1.2889 
  80   0.0000      -0.012472        -0.3394 
  81   0.0000      -0.005655        -0.1539 
  82   0.0000       0.008202         0.2232 
  83   0.0000       0.016007         0.4356 
  84   0.0000       0.022151         0.6028 
  85   0.0000       0.023333         0.6349 
  86   0.0000       0.033286         0.9058 
  87   0.0000       0.035262         0.9595 
  88   0.0000       0.037326         1.0157 
  89   0.0000       0.045993         1.2515 
  90   0.0000       0.048686         1.3248 
  91   0.0000       0.056618         1.5407 
  92   0.0000       0.061380         1.6702 
  93   0.0000       0.069093         1.8801 
  94   0.0000       0.073285         1.9942 
  95   0.0000       0.078108         2.1254 
  96   0.0000       0.085565         2.3283 
  97   0.0000       0.092073         2.5054 
  98   0.0000       0.097995         2.6666 
  99   0.0000       0.100394         2.7319 
 100   0.0000       0.107559         2.9268 
 101   0.0000       0.119201         3.2436 
 102   0.0000       0.129247         3.5170 
 103   0.0000       0.141820         3.8591 
 104   0.0000       0.142161         3.8684 
 105   0.0000       0.152821         4.1585 
 106   0.0000       0.163477         4.4484 
 107   0.0000       0.169423         4.6102 
 108   0.0000       0.172654         4.6981 
 109   0.0000       0.177250         4.8232 
 110   0.0000       0.180917         4.9230 
 111   0.0000       0.192287         5.2324 
 112   0.0000       0.193144         5.2557 
 113   0.0000       0.193671         5.2701 
 114   0.0000       0.198000         5.3879 
 115   0.0000       0.200544         5.4571 
 116   0.0000       0.200974         5.4688 
 117   0.0000       0.208943         5.6856 
 118   0.0000       0.209920         5.7122 
 119   0.0000       0.215487         5.8637 
 120   0.0000       0.222024         6.0416 
 121   0.0000       0.223075         6.0702 
 122   0.0000       0.225520         6.1367 
 123   0.0000       0.231810         6.3079 
 124   0.0000       0.235694         6.4136 
 125   0.0000       0.241978         6.5846 
 126   0.0000       0.245328         6.6757 
 127   0.0000       0.252003         6.8573 
 128   0.0000       0.254176         6.9165 
 129   0.0000       0.256160         6.9705 
 130   0.0000       0.258494         7.0340 
 131   0.0000       0.260801         7.0968 
 132   0.0000       0.268331         7.3016 
 133   0.0000       0.274456         7.4683 
 134   0.0000       0.275926         7.5083 
 135   0.0000       0.278648         7.5824 
 136   0.0000       0.282516         7.6877 
 137   0.0000       0.283824         7.7232 
 138   0.0000       0.286021         7.7830 
 139   0.0000       0.291519         7.9326 
 140   0.0000       0.295361         8.0372 
 141   0.0000       0.295658         8.0453 
 142   0.0000       0.304236         8.2787 
 143   0.0000       0.304274         8.2797 
 144   0.0000       0.310197         8.4409 
 145   0.0000       0.310884         8.4596 
 146   0.0000       0.313179         8.5220 
 147   0.0000       0.315385         8.5821 
 148   0.0000       0.319572         8.6960 
 149   0.0000       0.321860         8.7582 
 150   0.0000       0.322147         8.7661 
[...]
  Y           0.3724563            0.0035295            0.9280430
  Z           0.0018258           -0.9999936            0.0030704

Notes:  (1) The A matrix conforms to the "SAI" spin Hamiltonian convention.
        (2) Tensor is right-handed.

 -----------------------------------------------------------
 Nucleus  44H : A:ISTP=    1 I=  0.5 P=533.5514 MHz/au**3
                Q:ISTP=    2 I=  1.0 Q=  0.0029 barn     
 -----------------------------------------------------------
 Solving for nuclear perturbation:
Forming RHS of the CP-SCF equations         ... 
Calc. nucleus orbit integrals (SHARK)       ... done

------------------------------------------------------------------------------
                           ORCA CP-SCF CALCULATION
------------------------------------------------------------------------------

Input orbitals are from        ... EPRII.gbw
Input Perturbation             ... EPRII.pin.tmp
Wavefunction output            ... EPRII.pout.tmp
Perturbation mode              ... Imaginary perturbation
Solver                         ... POPLE
Max. number of iterations      ... 64
Convergence tolerance          ... 1.000e-03
Integral handling              ... Direct
DFT GridXC                     ... 1
COSX GridX                     ... 1
COSX IntAccX                   ... 3.067
COSX Algorithm                 ... Auto
Number of perturbations        ... 3
Number of operators            ... 2
Orbital ranges used for CP-SCF:
 Operator 0:  Orbitals   0... 78  to  79...548
 Operator 1:  Orbitals   0... 77  to  78...548
Variables per perturbation     ... 73868
DFT calculation                         ... on
XC functional terms                     ... off
Hybrid DFT                              ... on
   Exchange mixing (SCF)                ...  0.200
   Exchange mixing (CP-SCF)             ...  0.200
   GGA exch. scaling(SCF)               ...  0.720
   GGA exch. scaling (CP-SCF)           ...  0.720
   GGA corr. scaling (SCF)              ...  0.810
   GGA corr. scaling (CP-SCF)           ...  0.810

CP-SCF GRID
-----------

General Integration Accuracy     IntAcc      ... 3.467
Radial Grid Type                 RadialGrid  ... OptM3 with GC (2021)
Angular Grid (max. ang.)         AngularGrid ... 1 (Lebedev-50)
Angular grid pruning method      GridPruning ... 4 (adaptive)
Weight generation scheme         WeightScheme... Becke
Basis function cutoff            BFCut       ... 1.0000e-10
Integration weight cutoff        WCut        ... 1.0000e-14
Angular grids for H and He will be reduced by one unit
Partially contracted basis set               ... off
Rotationally invariant grid construction     ... off

Total number of grid points                  ...    30031
Total number of batches                      ...      490
Average number of points per batch           ...       61
Average number of grid points per atom       ...      639

CP-SCF GRIDX
------------

General Integration Accuracy     IntAcc      ... 3.067
Radial Grid Type                 RadialGrid  ... OptM3 with GC (2021)
Angular Grid (max. ang.)         AngularGrid ... 1 (Lebedev-50)
Angular grid pruning method      GridPruning ... 4 (adaptive)
Weight generation scheme         WeightScheme... Becke
Basis function cutoff            BFCut       ... 1.0000e-10
Integration weight cutoff        WCut        ... 1.0000e-14
Angular grids for H and He will be reduced by one unit
Partially contracted basis set               ... on
Rotationally invariant grid construction     ... off

Total number of grid points                  ...    14122
Total number of batches                      ...      250
Average number of points per batch           ...       56
Average number of grid points per atom       ...      300

Memory available               ... 863.5 MB
Memory needed per perturbation ...  17.7 MB
Perturbations treated per batch... 3
Number of batches              ... 1
     CP-SCF ITERATION   0:   4.5507e-02 (   1.9 sec   0/  3 done)
     CP-SCF ITERATION   1:   1.9004e-03 (   1.9 sec   0/  3 done)
     CP-SCF ITERATION   2:   1.3118e-04 (   2.0 sec   3/  3 done)
                    *** THE CP-SCF HAS CONVERGED ***

Forming final perturbed densities           ... done
Transforming perturbed density to AO basis  ... done

 Raw HFC matrix (all values in MHz): 
 -----------------------------------
                 0.7444              -0.2629              -0.0006
                -0.2628               0.0416              -0.0004
                -0.0006              -0.0004               0.1497

 A(FC)           0.3119               0.3119               0.3119
 A(SD)          -0.3579              -0.1622               0.5201
 A(ORB+DIA)      0.0001              -0.0000              -0.0001    A(PC) =  -0.0000
 A(ORB)         -0.0000              -0.0002              -0.0002    A(PC) =  -0.0001
 A(DIA)          0.0001               0.0002               0.0000    A(PC) =   0.0001
             ----------           ----------           ----------
 A(Tot)         -0.0459               0.1497               0.8319    A(iso)=    0.3119
 Orientation: 
  X           0.3156732            0.0003107           -0.9488679
  Y           0.9488638            0.0028685            0.3156727
  Z           0.0028199           -0.9999958            0.0006107

Notes:  (1) The A matrix conforms to the "SAI" spin Hamiltonian convention.
        (2) Tensor is right-handed.

 -----------------------------------------------------------
 Nucleus  45H : A:ISTP=    1 I=  0.5 P=533.5514 MHz/au**3
                Q:ISTP=    2 I=  1.0 Q=  0.0029 barn     
 -----------------------------------------------------------
 Solving for nuclear perturbation:
Forming RHS of the CP-SCF equations         ... 
Calc. nucleus orbit integrals (SHARK)       ... done

------------------------------------------------------------------------------
                           ORCA CP-SCF CALCULATION
------------------------------------------------------------------------------

Input orbitals are from        ... EPRII.gbw
Input Perturbation             ... EPRII.pin.tmp
Wavefunction output            ... EPRII.pout.tmp
Perturbation mode              ... Imaginary perturbation
Solver                         ... POPLE
Max. number of iterations      ... 64
Convergence tolerance          ... 1.000e-03
Integral handling              ... Direct
DFT GridXC                     ... 1
COSX GridX                     ... 1
COSX IntAccX                   ... 3.067
COSX Algorithm                 ... Auto
Number of perturbations        ... 3
Number of operators            ... 2
Orbital ranges used for CP-SCF:
 Operator 0:  Orbitals   0... 78  to  79...548
 Operator 1:  Orbitals   0... 77  to  78...548
Variables per perturbation     ... 73868
DFT calculation                         ... on
XC functional terms                     ... off
Hybrid DFT                              ... on
   Exchange mixing (SCF)                ...  0.200
   Exchange mixing (CP-SCF)             ...  0.200
   GGA exch. scaling(SCF)               ...  0.720
   GGA exch. scaling (CP-SCF)           ...  0.720
   GGA corr. scaling (SCF)              ...  0.810
   GGA corr. scaling (CP-SCF)           ...  0.810

CP-SCF GRID
-----------

General Integration Accuracy     IntAcc      ... 3.467
Radial Grid Type                 RadialGrid  ... OptM3 with GC (2021)
Angular Grid (max. ang.)         AngularGrid ... 1 (Lebedev-50)
Angular grid pruning method      GridPruning ... 4 (adaptive)
Weight generation scheme         WeightScheme... Becke
Basis function cutoff            BFCut       ... 1.0000e-10
Integration weight cutoff        WCut        ... 1.0000e-14
Angular grids for H and He will be reduced by one unit
Partially contracted basis set               ... off
Rotationally invariant grid construction     ... off

Total number of grid points                  ...    30031
Total number of batches                      ...      490
Average number of points per batch           ...       61
Average number of grid points per atom       ...      639

CP-SCF GRIDX
------------

General Integration Accuracy     IntAcc      ... 3.067
Radial Grid Type                 RadialGrid  ... OptM3 with GC (2021)
Angular Grid (max. ang.)         AngularGrid ... 1 (Lebedev-50)
Angular grid pruning method      GridPruning ... 4 (adaptive)
Weight generation scheme         WeightScheme... Becke
Basis function cutoff            BFCut       ... 1.0000e-10
Integration weight cutoff        WCut        ... 1.0000e-14
Angular grids for H and He will be reduced by one unit
Partially contracted basis set               ... on
Rotationally invariant grid construction     ... off

Total number of grid points                  ...    14122
Total number of batches                      ...      250
Average number of points per batch           ...       56
Average number of grid points per atom       ...      300

Memory available               ... 862.9 MB
Memory needed per perturbation ...  17.7 MB
Perturbations treated per batch... 3
Number of batches              ... 1
     CP-SCF ITERATION   0:   4.5668e-02 (   1.9 sec   0/  3 done)
     CP-SCF ITERATION   1:   1.9126e-03 (   2.0 sec   0/  3 done)
     CP-SCF ITERATION   2:   1.3778e-04 (   2.0 sec   3/  3 done)
                    *** THE CP-SCF HAS CONVERGED ***

Forming final perturbed densities           ... done
Transforming perturbed density to AO basis  ... done

 Raw HFC matrix (all values in MHz): 
 -----------------------------------
                 0.7554               0.2252               0.0011
                 0.2251               0.0288              -0.0002
                 0.0011              -0.0002               0.1570

 A(FC)           0.3138               0.3138               0.3138
 A(SD)          -0.3491              -0.1567               0.5059
 A(ORB+DIA)      0.0000              -0.0000              -0.0002    A(PC) =  -0.0001
 A(ORB)         -0.0001              -0.0002              -0.0002    A(PC) =  -0.0001
 A(DIA)          0.0001               0.0002               0.0000    A(PC) =   0.0001
             ----------           ----------           ----------
 A(Tot)         -0.0353               0.1570               0.8195    A(iso)=    0.3137
 Orientation: 
  X           0.2738912            0.0007895            0.9617604
  Y          -0.9617572            0.0029031            0.2738879
  Z          -0.0025759           -0.9999955            0.0015545

Notes:  (1) The A matrix conforms to the "SAI" spin Hamiltonian convention.
        (2) Tensor is right-handed.

 -----------------------------------------------------------
 Nucleus  46H : A:ISTP=    1 I=  0.5 P=533.5514 MHz/au**3
                Q:ISTP=    2 I=  1.0 Q=  0.0029 barn     
 -----------------------------------------------------------
 Solving for nuclear perturbation:
Forming RHS of the CP-SCF equations         ... 
Calc. nucleus orbit integrals (SHARK)       ... done

------------------------------------------------------------------------------
                           ORCA CP-SCF CALCULATION
------------------------------------------------------------------------------

Input orbitals are from        ... EPRII.gbw
Input Perturbation             ... EPRII.pin.tmp
Wavefunction output            ... EPRII.pout.tmp
Perturbation mode              ... Imaginary perturbation
Solver                         ... POPLE
Max. number of iterations      ... 64
Convergence tolerance          ... 1.000e-03
Integral handling              ... Direct
DFT GridXC                     ... 1
COSX GridX                     ... 1
COSX IntAccX                   ... 3.067
COSX Algorithm                 ... Auto
Number of perturbations        ... 3
Number of operators            ... 2
Orbital ranges used for CP-SCF:
 Operator 0:  Orbitals   0... 78  to  79...548
 Operator 1:  Orbitals   0... 77  to  78...548
Variables per perturbation     ... 73868
DFT calculation                         ... on
XC functional terms                     ... off
Hybrid DFT                              ... on
   Exchange mixing (SCF)                ...  0.200
   Exchange mixing (CP-SCF)             ...  0.200
   GGA exch. scaling(SCF)               ...  0.720
   GGA exch. scaling (CP-SCF)           ...  0.720
   GGA corr. scaling (SCF)              ...  0.810
   GGA corr. scaling (CP-SCF)           ...  0.810

CP-SCF GRID
-----------

General Integration Accuracy     IntAcc      ... 3.467
Radial Grid Type                 RadialGrid  ... OptM3 with GC (2021)
Angular Grid (max. ang.)         AngularGrid ... 1 (Lebedev-50)
Angular grid pruning method      GridPruning ... 4 (adaptive)
Weight generation scheme         WeightScheme... Becke
Basis function cutoff            BFCut       ... 1.0000e-10
Integration weight cutoff        WCut        ... 1.0000e-14
Angular grids for H and He will be reduced by one unit
Partially contracted basis set               ... off
Rotationally invariant grid construction     ... off

Total number of grid points                  ...    30031
Total number of batches                      ...      490
Average number of points per batch           ...       61
Average number of grid points per atom       ...      639

CP-SCF GRIDX
------------

General Integration Accuracy     IntAcc      ... 3.067
Radial Grid Type                 RadialGrid  ... OptM3 with GC (2021)
Angular Grid (max. ang.)         AngularGrid ... 1 (Lebedev-50)
Angular grid pruning method      GridPruning ... 4 (adaptive)
Weight generation scheme         WeightScheme... Becke
Basis function cutoff            BFCut       ... 1.0000e-10
Integration weight cutoff        WCut        ... 1.0000e-14
Angular grids for H and He will be reduced by one unit
Partially contracted basis set               ... on
Rotationally invariant grid construction     ... off

Total number of grid points                  ...    14122
Total number of batches                      ...      250
Average number of points per batch           ...       56
Average number of grid points per atom       ...      300

Memory available               ... 862.2 MB
Memory needed per perturbation ...  17.7 MB
Perturbations treated per batch... 3
Number of batches              ... 1
     CP-SCF ITERATION   0:   4.1766e-02 (   2.0 sec   0/  3 done)
     CP-SCF ITERATION   1:   1.6832e-03 (   1.9 sec   2/  3 done)
     CP-SCF ITERATION   2:   7.6100e-05 (   1.4 sec   3/  3 done)
                    *** THE CP-SCF HAS CONVERGED ***

Forming final perturbed densities           ... done
Transforming perturbed density to AO basis  ... done

 Raw HFC matrix (all values in MHz): 
 -----------------------------------
                -0.0208              -0.0909              -0.0002
                -0.0908              -0.1844              -0.0001
                -0.0002              -0.0001              -0.1730

 A(FC)          -0.1261              -0.1261              -0.1261
 A(SD)           0.1457              -0.0469              -0.0988
 A(ORB+DIA)      0.0000               0.0000               0.0001    A(PC) =   0.0000
 A(ORB)         -0.0000              -0.0001              -0.0000    A(PC) =  -0.0000
 A(DIA)          0.0000               0.0001               0.0001    A(PC) =   0.0001
             ----------           ----------           ----------
 A(Tot)          0.0196              -0.1730              -0.2249    A(iso)=   -0.1261
 Orientation: 
  X           0.9135198            0.0006615            0.4067938
  Y          -0.4067934            0.0035533            0.9135133
  Z          -0.0008412           -0.9999935            0.0035151

Notes:  (1) The A matrix conforms to the "SAI" spin Hamiltonian convention.
        (2) Tensor is right-handed.


--------------------------------------------------------------------------------
----------------------------------------------------------------------------
                           ORCA EULER ANGLE PROGRAM
----------------------------------------------------------------------------

Only g-tensor available        -->  using g-tensor as reference tensor

Reference tensor               ...  g

g-tensor ordering              ...  |g_min> --> |gx>
                                    |g_mid> --> |gy>
                                    |g_max> --> |gz>

A- and EFG-tensor ordering     ...  the axes |Ax>, |Qx>, |Ay>, etc. are assigned
                                    such that the Euler rotation is minimal. You
                                    can find the respective eigenvalues as Ax,
                                    EFGx, Ay, etc. in the tables below.
                                    The relation of |Ax>, |Ay>,  etc. to Amin, Amid, etc.
                                    (as printed in the ORCA EPR/NMR CALCULATION Output)
                                    is obtained in the detailed printout.

Euler rotation around          ...  z - y - z
   First rotation              -->  by alpha around z
   Second rotation             -->  by beta around y'
   Third rotation              -->  by gamma around z''
   Positive / Negative angle   -->  clockwise / counterclockwise rotation

Plot EFG-tensors                    (-)
Plot HFC-tensors                    (-)
Detailed Printout                   (-)

-------------------------------------------------------------------------
          Euler rotation of hyperfine tensor to g-tensor
-------------------------------------------------------------------------

-------------------------------------------------------------------
 Atom  |   Alpha    Beta    Gamma   |   Ax       Ay       Az 
       |          [degrees]         |           [MHz]         
-------------------------------------------------------------------
  7H       41.7      0.0      0.0      28.83    21.18    20.59
  8H       -8.4      0.0      0.0      69.34    51.40    50.42
 10H     -129.5     35.3    110.9       2.17    -7.46    -8.72
 11H       50.5     35.4    -69.1       2.14    -7.47    -8.73
 13H     -161.9     15.1   -179.5       2.14    -0.76    -1.02
 14H       17.7     15.0      0.9       2.14    -0.76    -1.02
 16H       59.7     21.9    -69.3       1.09    -0.56    -0.62
 17H     -120.4     22.0    110.8       1.09    -0.56    -0.62
 19H      -68.9     23.9     83.1       0.52    -0.28    -0.30
 20H      111.4     23.9    -97.2       0.52    -0.28    -0.30
 22H     -141.0     29.4   -179.9       3.04     6.39     3.68
 23H       39.2     29.3     -0.1       3.03     6.39     3.67
 25H      -49.0     21.6     33.3       2.37    -0.45    -0.63
 26H      131.1     21.6   -146.8       2.37    -0.46    -0.64
 28H     -169.0     10.4    136.2       0.66    -0.36    -0.38
 29H       11.2     10.4    -44.0       0.66    -0.36    -0.38
 31H      137.4     11.0   -148.6       0.53    -0.25    -0.27
 32H      -42.8     10.9     31.6       0.53    -0.25    -0.27
 34H        0.5      0.0      0.0       0.50    -0.11    -0.13
 35H      -19.6      0.0      0.0       0.32    -0.18    -0.19
 42H      144.8      0.1   -146.3       0.46     0.26     0.27
 43H     -174.9      0.1   -162.2      -0.23     0.02    -0.17
 44H      -17.4      0.0      0.0      -0.05     0.83     0.15
 45H     -178.6      0.1   -164.5      -0.04     0.82     0.16
 46H      142.7      0.1   -165.7      -0.22     0.02    -0.17
-------------------------------------------------------------------


Maximum memory used throughout the entire EPRNMR-calculation: 227.5 MB

Timings for individual modules:

Sum of individual times         ...     4419.843 sec (=  73.664 min)
GTO integral calculation        ...        6.554 sec (=   0.109 min)   0.1 %
Spin-Orbit-Coupling Matrices    ...       13.130 sec (=   0.219 min)   0.3 %
SCF iterations                  ...       36.854 sec (=   0.614 min)   0.8 %
EPR/NMR calculation             ...     4363.304 sec (=  72.722 min)  98.7 %
                             ****ORCA TERMINATED NORMALLY****
TOTAL RUN TIME: 0 days 1 hours 13 minutes 44 seconds 566 msec
