
                                 *****************
                                 * O   R   C   A *
                                 *****************

                                            #,                                       
                                            ###                                      
                                            ####                                     
                                            #####                                    
                                            ######                                   
                                           ########,                                 
                                     ,,################,,,,,                         
                               ,,#################################,,                 
                          ,,##########################################,,             
                       ,#########################################, ''#####,          
                    ,#############################################,,   '####,        
                  ,##################################################,,,,####,       
                ,###########''''           ''''###############################       
              ,#####''   ,,,,##########,,,,          '''####'''          '####       
            ,##' ,,,,###########################,,,                        '##       
           ' ,,###''''                  '''############,,,                           
         ,,##''                                '''############,,,,        ,,,,,,###''
      ,#''                                            '''#######################'''  
     '                                                          ''''####''''         
             ,#######,   #######,   ,#######,      ##                                
            ,#'     '#,  ##    ##  ,#'     '#,    #''#        ######   ,####,        
            ##       ##  ##   ,#'  ##            #'  '#       #        #'  '#        
            ##       ##  #######   ##           ,######,      #####,   #    #        
            '#,     ,#'  ##    ##  '#,     ,#' ,#      #,         ##   #,  ,#        
             '#######'   ##     ##  '#######'  #'      '#     #####' # '####'        



                  #######################################################
                  #                        -***-                        #
                  #          Department of theory and spectroscopy      #
                  #    Directorship and core code : Frank Neese         #
                  #        Max Planck Institute fuer Kohlenforschung    #
                  #                Kaiser Wilhelm Platz 1               #
                  #                 D-45470 Muelheim/Ruhr               #
                  #                      Germany                        #
                  #                                                     #
                  #                  All rights reserved                #
                  #                        -***-                        #
                  #######################################################


                         Program Version 5.0.4 -  RELEASE  -


 With contributions from (in alphabetic order):
   Daniel Aravena         : Magnetic Suceptibility
   Michael Atanasov       : Ab Initio Ligand Field Theory (pilot matlab implementation)
   Alexander A. Auer      : GIAO ZORA, VPT2 properties, NMR spectrum
   Ute Becker             : Parallelization
   Giovanni Bistoni       : ED, misc. LED, open-shell LED, HFLD
   Martin Brehm           : Molecular dynamics
   Dmytro Bykov           : SCF Hessian
   Vijay G. Chilkuri      : MRCI spin determinant printing, contributions to CSF-ICE
   Dipayan Datta          : RHF DLPNO-CCSD density
   Achintya Kumar Dutta   : EOM-CC, STEOM-CC
   Dmitry Ganyushin       : Spin-Orbit,Spin-Spin,Magnetic field MRCI
   Miquel Garcia          : C-PCM and meta-GGA Hessian, CC/C-PCM, Gaussian charge scheme
   Yang Guo               : DLPNO-NEVPT2, F12-NEVPT2, CIM, IAO-localization
   Andreas Hansen         : Spin unrestricted coupled pair/coupled cluster methods
   Benjamin Helmich-Paris : MC-RPA, TRAH-SCF, COSX integrals
   Lee Huntington         : MR-EOM, pCC
   Robert Izsak           : Overlap fitted RIJCOSX, COSX-SCS-MP3, EOM
   Marcus Kettner         : VPT2
   Christian Kollmar      : KDIIS, OOCD, Brueckner-CCSD(T), CCSD density, CASPT2, CASPT2-K
   Simone Kossmann        : Meta GGA functionals, TD-DFT gradient, OOMP2, MP2 Hessian
   Martin Krupicka        : Initial AUTO-CI
   Lucas Lang             : DCDCAS
   Marvin Lechner         : AUTO-CI (C++ implementation), FIC-MRCC
   Dagmar Lenk            : GEPOL surface, SMD
   Dimitrios Liakos       : Extrapolation schemes; Compound Job, initial MDCI parallelization
   Dimitrios Manganas     : Further ROCIS development; embedding schemes
   Dimitrios Pantazis     : SARC Basis sets
   Anastasios Papadopoulos: AUTO-CI, single reference methods and gradients
   Taras Petrenko         : DFT Hessian,TD-DFT gradient, ASA, ECA, R-Raman, ABS, FL, XAS/XES, NRVS
   Peter Pinski           : DLPNO-MP2, DLPNO-MP2 Gradient
   Christoph Reimann      : Effective Core Potentials
   Marius Retegan         : Local ZFS, SOC
   Christoph Riplinger    : Optimizer, TS searches, QM/MM, DLPNO-CCSD(T), (RO)-DLPNO pert. Triples
   Tobias Risthaus        : Range-separated hybrids, TD-DFT gradient, RPA, STAB
   Michael Roemelt        : Original ROCIS implementation
   Masaaki Saitow         : Open-shell DLPNO-CCSD energy and density
   Barbara Sandhoefer     : DKH picture change effects
   Avijit Sen             : IP-ROCIS
   Kantharuban Sivalingam : CASSCF convergence, NEVPT2, FIC-MRCI
   Bernardo de Souza      : ESD, SOC TD-DFT
   Georgi Stoychev        : AutoAux, RI-MP2 NMR, DLPNO-MP2 response
   Willem Van den Heuvel  : Paramagnetic NMR
   Boris Wezisla          : Elementary symmetry handling
   Frank Wennmohs         : Technical directorship


 We gratefully acknowledge several colleagues who have allowed us to
 interface, adapt or use parts of their codes:
   Stefan Grimme, W. Hujo, H. Kruse, P. Pracht,  : VdW corrections, initial TS optimization,
                  C. Bannwarth, S. Ehlert          DFT functionals, gCP, sTDA/sTD-DF
   Ed Valeev, F. Pavosevic, A. Kumar             : LibInt (2-el integral package), F12 methods
   Garnet Chan, S. Sharma, J. Yang, R. Olivares  : DMRG
   Ulf Ekstrom                                   : XCFun DFT Library
   Mihaly Kallay                                 : mrcc  (arbitrary order and MRCC methods)
   Jiri Pittner, Ondrej Demel                    : Mk-CCSD
   Frank Weinhold                                : gennbo (NPA and NBO analysis)
   Christopher J. Cramer and Donald G. Truhlar   : smd solvation model
   Lars Goerigk                                  : TD-DFT with DH, B97 family of functionals
   V. Asgeirsson, H. Jonsson                     : NEB implementation
   FAccTs GmbH                                   : IRC, NEB, NEB-TS, DLPNO-Multilevel, CI-OPT
                                                   MM, QMMM, 2- and 3-layer-ONIOM, Crystal-QMMM,
                                                   LR-CPCM, SF, NACMEs, symmetry and pop. for TD-DFT,
                                                   nearIR, NL-DFT gradient (VV10), updates on ESD,
                                                   ML-optimized integration grids
   S Lehtola, MJT Oliveira, MAL Marques          : LibXC Library
   Liviu Ungur et al                             : ANISO software


 Your calculation uses the libint2 library for the computation of 2-el integrals
 For citations please refer to: http://libint.valeyev.net

 Your ORCA version has been built with support for libXC version: 5.1.0
 For citations please refer to: https://tddft.org/programs/libxc/

 This ORCA versions uses:
   CBLAS   interface :  Fast vector & matrix operations
   LAPACKE interface :  Fast linear algebra routines
   SCALAPACK package :  Parallel linear algebra routines
   Shared memory     :  Shared parallel matrices
   BLAS/LAPACK       :  OpenBLAS 0.3.15  USE64BITINT DYNAMIC_ARCH NO_AFFINITY SkylakeX SINGLE_THREADED
        Core in use  :  SkylakeX
   Copyright (c) 2011-2014, The OpenBLAS Project




***************************************
The coordinates will be read from file: opt_EPRII.xyz
***************************************


================================================================================

----- Orbital basis set information -----
Your calculation utilizes the basis: EPR-II
   V. Barone, in Recent Advances in Density Functional Methods, Part 1 (ed. D. P. Chong), World Scientific, Singapore, 1995, p. 287.

----- AuxJ basis set information -----
Your calculation utilizes the AutoAux generation procedure.
  G. L. Stoychev, A. A. Auer, F. Neese, J. Chem. Theory Comput. 13, 554 (2017)

----- AuxC basis set information -----
Your calculation utilizes the AutoAux generation procedure.
  G. L. Stoychev, A. A. Auer, F. Neese, J. Chem. Theory Comput. 13, 554 (2017)

----- AuxJK basis set information -----
Your calculation utilizes the AutoAux generation procedure.
  G. L. Stoychev, A. A. Auer, F. Neese, J. Chem. Theory Comput. 13, 554 (2017)

================================================================================
                                        WARNINGS
                       Please study these warnings very carefully!
================================================================================

WARNING: Old DensityContainer found on disk!
         Will remove this file - 
         If you want to keep old densities, please start your calculation with a different basename. 


WARNING: your system is open-shell and RHF/RKS was chosen
  ===> : WILL SWITCH to UHF/UKS


INFO   : the flag for use of the SHARK integral package has been found!

================================================================================
                                       INPUT FILE
================================================================================
NAME = EPRII.inp
|  1> ! B3LYP EPR-II AUTOAUX
|  2> %pal nprocs 16 end
|  3> *XYZFile 0 2 opt_EPRII.xyz
|  4> %EPRNMR
|  5>         GTENSOR   TRUE
|  6>         NUCLEI    = ALL H {SHIFT, AISO, ADIP, AORB}
|  7>         ORI       CenterOfElCharge
|  8> END
|  9> 
| 10>                          ****END OF INPUT****
================================================================================

                       ****************************
                       * Single Point Calculation *
                       ****************************

---------------------------------
CARTESIAN COORDINATES (ANGSTROEM)
---------------------------------
  C      2.832750   -0.007026   -0.008538
  C     -1.321227   -0.009087   -0.012934
  C     -0.711139   -1.259621   -0.014747
  C      0.696046   -1.205428   -0.012952
  C      1.400111    0.024530   -0.009719
  C      0.708755    1.269203   -0.007834
  C     -0.704171    1.227961   -0.009590
  H      1.274749   -2.124003   -0.014183
  H     -1.285017    2.144564   -0.008357
  C     -1.521335   -2.550266   -0.018223
  H     -2.184720   -2.534794   -0.893032
  H     -2.184690   -2.539529    0.856693
  C     -0.710102   -3.855592   -0.021701
  H     -0.053522   -3.882624   -0.901529
  H     -0.055086   -3.888234    0.859109
  C     -1.606343   -5.107042   -0.026447
  H     -2.265608   -5.083452    0.851417
  H     -2.263281   -5.078429   -0.905902
  C     -0.803343   -6.419535   -0.029157
  H     -0.161252   -6.490161    0.856030
  H     -0.158238   -6.484648   -0.912573
  C      1.488454    2.575873   -0.004295
  H      2.155155    2.573760    0.868595
  H      2.156044    2.577927   -0.876519
  C      0.657236    3.868331   -0.001653
  H      0.002419    3.893449   -0.882978
  H      0.000572    3.888696    0.878415
  C      1.536624    5.132056    0.002664
  H      2.193846    5.112142    0.882153
  H      2.196059    5.116609   -0.875258
  C      0.716770    6.433947    0.004962
  H      0.070983    6.491216    0.888453
  H      0.073737    6.496095   -0.880208
  C      4.057560   -0.041158   -0.009585
  H     -1.465005   -7.291860   -0.032997
  H      1.367006    7.314871    0.008399
  C      5.489295   -0.089648   -0.008845
  C      6.166131   -1.333882   -0.009628
  C      7.565134   -1.378457   -0.008865
  C      8.314078   -0.189238   -0.007346
  C      7.650717    1.049831   -0.006591
  C      6.251984    1.103767   -0.007353
  H      9.400065   -0.227665   -0.006767
  H      8.224047    1.973231   -0.005425
  H      5.585595   -2.251669   -0.010807
  H      5.738049    2.060418   -0.006803
  H      8.072255   -2.339826   -0.009462

----------------------------
CARTESIAN COORDINATES (A.U.)
----------------------------
  NO LB      ZA    FRAG     MASS         X           Y           Z
   0 C     6.0000    0    12.011    5.353122   -0.013277   -0.016135
   1 C     6.0000    0    12.011   -2.496757   -0.017171   -0.024441
   2 C     6.0000    0    12.011   -1.343857   -2.380338   -0.027867
   3 C     6.0000    0    12.011    1.315336   -2.277929   -0.024475
   4 C     6.0000    0    12.011    2.645827    0.046354   -0.018367
   5 C     6.0000    0    12.011    1.339352    2.398446   -0.014804
   6 C     6.0000    0    12.011   -1.330690    2.320510   -0.018123
   7 H     1.0000    0     1.008    2.408926   -4.013784   -0.026803
   8 H     1.0000    0     1.008   -2.428329    4.052639   -0.015792
   9 C     6.0000    0    12.011   -2.874907   -4.819305   -0.034436
  10 H     1.0000    0     1.008   -4.128523   -4.790067   -1.687585
  11 H     1.0000    0     1.008   -4.128466   -4.799014    1.618916
  12 C     6.0000    0    12.011   -1.341898   -7.286013   -0.041009
  13 H     1.0000    0     1.008   -0.101141   -7.337097   -1.703643
  14 H     1.0000    0     1.008   -0.104098   -7.347697    1.623480
  15 C     6.0000    0    12.011   -3.035548   -9.650911   -0.049977
  16 H     1.0000    0     1.008   -4.281378   -9.606332    1.608944
  17 H     1.0000    0     1.008   -4.276980   -9.596840   -1.711906
  18 C     6.0000    0    12.011   -1.518099  -12.131163   -0.055099
  19 H     1.0000    0     1.008   -0.304721  -12.264627    1.617663
  20 H     1.0000    0     1.008   -0.299027  -12.254210   -1.724514
  21 C     6.0000    0    12.011    2.812771    4.867695   -0.008117
  22 H     1.0000    0     1.008    4.072654    4.863702    1.641406
  23 H     1.0000    0     1.008    4.074332    4.871576   -1.656380
  24 C     6.0000    0    12.011    1.241995    7.310087   -0.003124
  25 H     1.0000    0     1.008    0.004572    7.357552   -1.668587
  26 H     1.0000    0     1.008    0.001081    7.348570    1.659963
  27 C     6.0000    0    12.011    2.903798    9.698181    0.005034
  28 H     1.0000    0     1.008    4.145768    9.660548    1.667027
  29 H     1.0000    0     1.008    4.149950    9.668989   -1.653998
  30 C     6.0000    0    12.011    1.354498   12.158398    0.009376
  31 H     1.0000    0     1.008    0.134138   12.266621    1.678933
  32 H     1.0000    0     1.008    0.139342   12.275840   -1.663352
  33 C     6.0000    0    12.011    7.667676   -0.077777   -0.018113
  34 H     1.0000    0     1.008   -2.768457  -13.779619   -0.062356
  35 H     1.0000    0     1.008    2.583267   13.823102    0.015872
  36 C     6.0000    0    12.011   10.373265   -0.169411   -0.016714
  37 C     6.0000    0    12.011   11.652298   -2.520673   -0.018194
  38 C     6.0000    0    12.011   14.296031   -2.604906   -0.016753
  39 C     6.0000    0    12.011   15.711331   -0.357609   -0.013881
  40 C     6.0000    0    12.011   14.457761    1.983892   -0.012455
  41 C     6.0000    0    12.011   11.814537    2.085818   -0.013896
  42 H     1.0000    0     1.008   17.763548   -0.430225   -0.012787
  43 H     1.0000    0     1.008   15.541196    3.728866   -0.010252
  44 H     1.0000    0     1.008   10.555245   -4.255037   -0.020422
  45 H     1.0000    0     1.008   10.843342    3.893625   -0.012856
  46 H     1.0000    0     1.008   15.254350   -4.421630   -0.017881

--------------------------------
INTERNAL COORDINATES (ANGSTROEM)
--------------------------------
 C      0   0   0     0.000000000000     0.00000000     0.00000000
 C      1   0   0     4.153979456556     0.00000000     0.00000000
 C      2   1   0     1.391418754611    64.02256301     0.00000000
 C      3   2   1     1.408228537448   113.80039457     0.00000000
 C      4   3   2     1.417220916903   121.99367730     0.00000000
 C      5   4   3     1.423794195399   121.16184317     0.00000000
 C      2   1   3     1.382409714582    63.46087259   179.98797709
 H      4   3   2     1.085670018075   120.00537258   180.00342418
 H      7   2   1     1.085147149975   121.12722507   179.99096977
 C      3   2   1     1.523875606367   121.87573171   180.00367421
 H     10   3   2     1.098002208413   108.12575742    56.89252906
 H     10   3   2     1.098013248820   108.12570130   302.95381794
 C     10   3   2     1.536875948121   116.02172541   179.92616058
 H     13  10   3     1.098146506858   109.77448581   301.64218657
 H     13  10   3     1.098151610098   109.77184006    58.47346055
 C     13  10   3     1.539284496875   112.53134790   180.05531189
 H     16  13  10     1.098103146858   109.24633925   302.08934306
 H     16  13  10     1.098101270840   109.24524347    57.97768161
 C     16  13  10     1.538653420279   112.93256039   180.03224543
 H     19  16  13     1.095822299993   111.06027791    59.88043482
 H     19  16  13     1.095821267512   111.05948235   300.17413947
 C      6   5   4     1.521621223435   120.12516725   179.99680729
 H     22   6   5     1.098376939888   108.13307599   303.32373500
 H     22   6   5     1.098386716209   108.13151114    56.74628726
 C     22   6   5     1.536677668943   116.42901144   180.03341051
 H     25  22   6     1.098248327539   109.89955050   301.44329313
 H     25  22   6     1.098244561510   109.90129697    58.48751474
 C     25  22   6     1.539592117598   112.42098830   179.96669814
 H     28  25  22     1.098106567820   109.22114528   302.04887213
 H     28  25  22     1.098107656236   109.22130431    57.91847585
 C     28  25  22     1.538533543809   112.96694056   179.98455829
 H     31  28  25     1.095845611828   111.06672893    59.83755534
 H     31  28  25     1.095846304479   111.06779418   300.11968843
 C      1   2   3     1.225285609217   178.37162018     3.74442046
 H     19  16  13     1.094879747879   111.36096316   180.02719008
 H     31  28  25     1.094917862556   111.36767509   179.97852995
 C     34   1   5     1.432557023979   179.64763823   331.08882135
 C     37  34   1     1.416412774004   120.48492500    12.92968777
 C     38  37  34     1.399713421205   120.37007291   180.00174959
 C     39  38  37     1.405404207524   120.37694293     0.00000000
 C     40  39  38     1.405467927911   119.63489095     0.00000000
 C     41  40  39     1.399773317831   120.37154545     0.00000000
 H     40  39  38     1.086666163376   120.17532987   180.00057970
 H     41  40  39     1.086911215165   120.00104669   180.00058738
 H     38  37  34     1.085980728162   119.13988285     0.00000000
 H     42  41  40     1.085959898179   120.45399165   180.00192472
 H     39  38  37     1.086922948229   119.63647020   179.99896078

---------------------------
INTERNAL COORDINATES (A.U.)
---------------------------
 C      0   0   0     0.000000000000     0.00000000     0.00000000
 C      1   0   0     7.849883538826     0.00000000     0.00000000
 C      2   1   0     2.629400383816    64.02256301     0.00000000
 C      3   2   1     2.661166269750   113.80039457     0.00000000
 C      4   3   2     2.678159404212   121.99367730     0.00000000
 C      5   4   3     2.690581100370   121.16184317     0.00000000
 C      2   1   3     2.612375765432    63.46087259   179.98797709
 H      4   3   2     2.051619005970   120.00537258   180.00342418
 H      7   2   1     2.050630928458   121.12722507   179.99096977
 C      3   2   1     2.879707558197   121.87573171   180.00367421
 H     10   3   2     2.074923468342   108.12575742    56.89252906
 H     10   3   2     2.074944331687   108.12570130   302.95381794
 C     10   3   2     2.904274643759   116.02172541   179.92616058
 H     13  10   3     2.075196152883   109.77448581   301.64218657
 H     13  10   3     2.075205796610   109.77184006    58.47346055
 C     13  10   3     2.908826141284   112.53134790   180.05531189
 H     16  13  10     2.075114214359   109.24633925   302.08934306
 H     16  13  10     2.075110669198   109.24524347    57.97768161
 C     16  13  10     2.907633579348   112.93256039   180.03224543
 H     19  16  13     2.070804038431   111.06027791    59.88043482
 H     19  16  13     2.070802087325   111.05948235   300.17413947
 C      6   5   4     2.875447391854   120.12516725   179.99680729
 H     22   6   5     2.075631608203   108.13307599   303.32373500
 H     22   6   5     2.075650082772   108.13151114    56.74628726
 C     22   6   5     2.903899950416   116.42901144   180.03341051
 H     25  22   6     2.075388566086   109.89955050   301.44329313
 H     25  22   6     2.075381449323   109.90129697    58.48751474
 C     25  22   6     2.909407460204   112.42098830   179.96669814
 H     28  25  22     2.075120679041   109.22114528   302.04887213
 H     28  25  22     2.075122735849   109.22130431    57.91847585
 C     28  25  22     2.907407045651   112.96694056   179.98455829
 H     31  28  25     2.070848091415   111.06672893    59.83755534
 H     31  28  25     2.070849400334   111.06779418   300.11968843
 C      1   2   3     2.315454237255   178.37162018     3.74442046
 H     19  16  13     2.069022873069   111.36096316   180.02719008
 H     31  28  25     2.069094899369   111.36767509   179.97852995
 C     34   1   5     2.707140446545   179.64763823   331.08882135
 C     37  34   1     2.676632235455   120.48492500    12.92968777
 C     38  37  34     2.645075032051   120.37007291   180.00174959
 C     39  38  37     2.655829059680   120.37694293     0.00000000
 C     40  39  38     2.655949473761   119.63489095     0.00000000
 C     41  40  39     2.645188220272   120.37154545     0.00000000
 H     40  39  38     2.053501447780   120.17532987   180.00057970
 H     41  40  39     2.053964528550   120.00104669   180.00058738
 H     38  37  34     2.052206162942   119.13988285     0.00000000
 H     42  41  40     2.052166799980   120.45399165   180.00192472
 H     39  38  37     2.053986700827   119.63647020   179.99896078

---------------------
BASIS SET INFORMATION
---------------------
There are 2 groups of distinct atoms

 Group   1 Type C   : 10s5p1d contracted to 6s2p1d pattern {511111/41/1}
 Group   2 Type H   : 6s1p contracted to 4s1p pattern {3111/1}

Atom   0C    basis set group =>   1
Atom   1C    basis set group =>   1
Atom   2C    basis set group =>   1
Atom   3C    basis set group =>   1
Atom   4C    basis set group =>   1
Atom   5C    basis set group =>   1
Atom   6C    basis set group =>   1
Atom   7H    basis set group =>   2
Atom   8H    basis set group =>   2
Atom   9C    basis set group =>   1
Atom  10H    basis set group =>   2
Atom  11H    basis set group =>   2
Atom  12C    basis set group =>   1
Atom  13H    basis set group =>   2
Atom  14H    basis set group =>   2
Atom  15C    basis set group =>   1
Atom  16H    basis set group =>   2
Atom  17H    basis set group =>   2
Atom  18C    basis set group =>   1
Atom  19H    basis set group =>   2
Atom  20H    basis set group =>   2
Atom  21C    basis set group =>   1
Atom  22H    basis set group =>   2
Atom  23H    basis set group =>   2
Atom  24C    basis set group =>   1
Atom  25H    basis set group =>   2
Atom  26H    basis set group =>   2
Atom  27C    basis set group =>   1
Atom  28H    basis set group =>   2
Atom  29H    basis set group =>   2
Atom  30C    basis set group =>   1
Atom  31H    basis set group =>   2
Atom  32H    basis set group =>   2
Atom  33C    basis set group =>   1
Atom  34H    basis set group =>   2
Atom  35H    basis set group =>   2
Atom  36C    basis set group =>   1
Atom  37C    basis set group =>   1
Atom  38C    basis set group =>   1
Atom  39C    basis set group =>   1
Atom  40C    basis set group =>   1
Atom  41C    basis set group =>   1
Atom  42H    basis set group =>   2
Atom  43H    basis set group =>   2
Atom  44H    basis set group =>   2
Atom  45H    basis set group =>   2
Atom  46H    basis set group =>   2
---------------------------------
AUXILIARY/J BASIS SET INFORMATION
---------------------------------
There are 2 groups of distinct atoms

 Group   1 Type C   : 17s13p12d2f contracted to 17s13p12d2f pattern {11111111111111111/1111111111111/111111111111/11}
 Group   2 Type H   : 15s6p1d contracted to 15s6p1d pattern {111111111111111/111111/1}

Atom   0C    basis set group =>   1
Atom   1C    basis set group =>   1
Atom   2C    basis set group =>   1
Atom   3C    basis set group =>   1
Atom   4C    basis set group =>   1
Atom   5C    basis set group =>   1
Atom   6C    basis set group =>   1
Atom   7H    basis set group =>   2
Atom   8H    basis set group =>   2
Atom   9C    basis set group =>   1
Atom  10H    basis set group =>   2
Atom  11H    basis set group =>   2
Atom  12C    basis set group =>   1
Atom  13H    basis set group =>   2
Atom  14H    basis set group =>   2
Atom  15C    basis set group =>   1
Atom  16H    basis set group =>   2
Atom  17H    basis set group =>   2
Atom  18C    basis set group =>   1
Atom  19H    basis set group =>   2
Atom  20H    basis set group =>   2
Atom  21C    basis set group =>   1
Atom  22H    basis set group =>   2
Atom  23H    basis set group =>   2
Atom  24C    basis set group =>   1
Atom  25H    basis set group =>   2
Atom  26H    basis set group =>   2
Atom  27C    basis set group =>   1
Atom  28H    basis set group =>   2
Atom  29H    basis set group =>   2
Atom  30C    basis set group =>   1
Atom  31H    basis set group =>   2
Atom  32H    basis set group =>   2
Atom  33C    basis set group =>   1
Atom  34H    basis set group =>   2
Atom  35H    basis set group =>   2
Atom  36C    basis set group =>   1
Atom  37C    basis set group =>   1
Atom  38C    basis set group =>   1
Atom  39C    basis set group =>   1
Atom  40C    basis set group =>   1
Atom  41C    basis set group =>   1
Atom  42H    basis set group =>   2
Atom  43H    basis set group =>   2
Atom  44H    basis set group =>   2
Atom  45H    basis set group =>   2
Atom  46H    basis set group =>   2
---------------------------------
AUXILIARY/C BASIS SET INFORMATION
---------------------------------
There are 2 groups of distinct atoms

 Group   1 Type C   : 17s13p12d2f contracted to 17s13p12d2f pattern {11111111111111111/1111111111111/111111111111/11}
 Group   2 Type H   : 15s6p1d contracted to 15s6p1d pattern {111111111111111/111111/1}

Atom   0C    basis set group =>   1
Atom   1C    basis set group =>   1
Atom   2C    basis set group =>   1
Atom   3C    basis set group =>   1
Atom   4C    basis set group =>   1
Atom   5C    basis set group =>   1
Atom   6C    basis set group =>   1
Atom   7H    basis set group =>   2
Atom   8H    basis set group =>   2
Atom   9C    basis set group =>   1
Atom  10H    basis set group =>   2
Atom  11H    basis set group =>   2
Atom  12C    basis set group =>   1
Atom  13H    basis set group =>   2
Atom  14H    basis set group =>   2
Atom  15C    basis set group =>   1
Atom  16H    basis set group =>   2
Atom  17H    basis set group =>   2
Atom  18C    basis set group =>   1
Atom  19H    basis set group =>   2
Atom  20H    basis set group =>   2
Atom  21C    basis set group =>   1
Atom  22H    basis set group =>   2
Atom  23H    basis set group =>   2
Atom  24C    basis set group =>   1
Atom  25H    basis set group =>   2
Atom  26H    basis set group =>   2
Atom  27C    basis set group =>   1
Atom  28H    basis set group =>   2
Atom  29H    basis set group =>   2
Atom  30C    basis set group =>   1
Atom  31H    basis set group =>   2
Atom  32H    basis set group =>   2
Atom  33C    basis set group =>   1
Atom  34H    basis set group =>   2
Atom  35H    basis set group =>   2
Atom  36C    basis set group =>   1
Atom  37C    basis set group =>   1
Atom  38C    basis set group =>   1
Atom  39C    basis set group =>   1
Atom  40C    basis set group =>   1
Atom  41C    basis set group =>   1
Atom  42H    basis set group =>   2
Atom  43H    basis set group =>   2
Atom  44H    basis set group =>   2
Atom  45H    basis set group =>   2
Atom  46H    basis set group =>   2
----------------------------------
AUXILIARY/JK BASIS SET INFORMATION
----------------------------------
There are 2 groups of distinct atoms

 Group   1 Type C   : 17s13p12d2f contracted to 17s13p12d2f pattern {11111111111111111/1111111111111/111111111111/11}
 Group   2 Type H   : 15s6p1d contracted to 15s6p1d pattern {111111111111111/111111/1}

Atom   0C    basis set group =>   1
Atom   1C    basis set group =>   1
Atom   2C    basis set group =>   1
Atom   3C    basis set group =>   1
Atom   4C    basis set group =>   1
Atom   5C    basis set group =>   1
Atom   6C    basis set group =>   1
Atom   7H    basis set group =>   2
Atom   8H    basis set group =>   2
Atom   9C    basis set group =>   1
Atom  10H    basis set group =>   2
Atom  11H    basis set group =>   2
Atom  12C    basis set group =>   1
Atom  13H    basis set group =>   2
Atom  14H    basis set group =>   2
Atom  15C    basis set group =>   1
Atom  16H    basis set group =>   2
Atom  17H    basis set group =>   2
Atom  18C    basis set group =>   1
Atom  19H    basis set group =>   2
Atom  20H    basis set group =>   2
Atom  21C    basis set group =>   1
Atom  22H    basis set group =>   2
Atom  23H    basis set group =>   2
Atom  24C    basis set group =>   1
Atom  25H    basis set group =>   2
Atom  26H    basis set group =>   2
Atom  27C    basis set group =>   1
Atom  28H    basis set group =>   2
Atom  29H    basis set group =>   2
Atom  30C    basis set group =>   1
Atom  31H    basis set group =>   2
Atom  32H    basis set group =>   2
Atom  33C    basis set group =>   1
Atom  34H    basis set group =>   2
Atom  35H    basis set group =>   2
Atom  36C    basis set group =>   1
Atom  37C    basis set group =>   1
Atom  38C    basis set group =>   1
Atom  39C    basis set group =>   1
Atom  40C    basis set group =>   1
Atom  41C    basis set group =>   1
Atom  42H    basis set group =>   2
Atom  43H    basis set group =>   2
Atom  44H    basis set group =>   2
Atom  45H    basis set group =>   2
Atom  46H    basis set group =>   2

Checking for AutoStart:
The File: EPRII.gbw exists
Trying to determine its content:
     ... Fine, the file contains calculation information
     ... Fine, the calculation information was read
     ... Fine, the file contains a basis set
     ... Fine, the basis set was read
     ... Fine, the file contains a geometry
     ... Fine, the geometry was read
     ... Fine, the file contains a set of orbitals
     ... Fine, the orbitals can be read
     => possible old guess file was deleted
     => GBW file was renamed to GES file
     => GES file is set as startup file
     => Guess is set to MORead
     ... now leaving AutoStart



           ************************************************************
           *        Program running with 16 parallel MPI-processes    *
           *              working on a common directory               *
           ************************************************************
------------------------------------------------------------------------------
                           ORCA GTO INTEGRAL CALCULATION
                           -- RI-GTO INTEGRALS CHOSEN --
------------------------------------------------------------------------------
------------------------------------------------------------------------------
                   ___                                                        
                  /   \      - P O W E R E D   B Y -                         
                 /     \                                                     
                 |  |  |   _    _      __       _____    __    __             
                 |  |  |  | |  | |    /  \     |  _  \  |  |  /  |          
                  \  \/   | |  | |   /    \    | | | |  |  | /  /          
                 / \  \   | |__| |  /  /\  \   | |_| |  |  |/  /          
                |  |  |   |  __  | /  /__\  \  |    /   |      \           
                |  |  |   | |  | | |   __   |  |    \   |  |\   \          
                \     /   | |  | | |  |  |  |  | |\  \  |  | \   \       
                 \___/    |_|  |_| |__|  |__|  |_| \__\ |__|  \__/        
                                                                              
                      - O R C A' S   B I G   F R I E N D -                    
                                      &                                       
                       - I N T E G R A L  F E E D E R -                       
                                                                              
 v1 FN, 2020, v2 2021                                                         
------------------------------------------------------------------------------


Reading SHARK input file EPRII.SHARKINP.tmp ... ok
----------------------
SHARK INTEGRAL PACKAGE
----------------------

Number of atoms                             ...     47
Number of basis functions                   ...    549
Number of shells                            ...    323
Maximum angular momentum                    ...      2
Integral batch strategy                     ... SHARK/LIBINT Hybrid
RI-J (if used) integral strategy            ... SPLIT-RIJ (Revised 2003 algorithm where possible)
Printlevel                                  ...      1
Contraction scheme used                     ... SEGMENTED contraction
Coulomb Range Separation                    ... NOT USED
Exchange Range Separation                   ... NOT USED
Finite Nucleus Model                        ... NOT USED
Auxiliary Coulomb fitting basis             ... AVAILABLE
   # of basis functions in Aux-J            ...   3810
   # of shells in Aux-J                     ...   1518
   Maximum angular momentum in Aux-J        ...      3
Auxiliary J/K fitting basis                 ... AVAILABLE
   # of basis functions in Aux-JK           ...   3810
   # of shells in Aux-JK                    ...   1518
   Maximum angular momentum in Aux-JK       ...      3
Auxiliary Correlation fitting basis         ... AVAILABLE
   # of basis functions in Aux-C            ...   3810
   # of shells in Aux-C                     ...   1518
   Maximum angular momentum in Aux-C        ...      3
Auxiliary 'external' fitting basis          ... NOT available
Integral threshold                          ...     1.000000e-10
Primitive cut-off                           ...     1.000000e-11
Primitive pair pre-selection threshold      ...     1.000000e-11

Calculating pre-screening integrals         ... done (  0.0 sec) Dimension = 323
Organizing shell pair data                  ... done (  0.2 sec)
Shell pair information
Total number of shell pairs                 ...     52326
Shell pairs after pre-screening             ...     26482
Total number of primitive shell pairs       ...    139555
Primitive shell pairs kept                  ...     49863
          la=0 lb=0:  12240 shell pairs
          la=1 lb=0:   9106 shell pairs
          la=1 lb=1:   1620 shell pairs
          la=2 lb=0:   2454 shell pairs
          la=2 lb=1:    923 shell pairs
          la=2 lb=2:    139 shell pairs

Calculating one electron integrals          ... done (  0.0 sec)
Calculating RI/J V-Matrix + Cholesky decomp.... done (  0.9 sec)
Calculating RI/JK V-Matrix + Cholesky decomp... done (  0.8 sec)
Calculating RI/C V-Matrix + Cholesky decomp.... done (  0.8 sec)
Calculating Nuclear repulsion               ... done (  0.0 sec) ENN=   1521.532054067479 Eh

SHARK setup successfully completed in   3.1 seconds

Maximum memory used throughout the entire GTOINT-calculation: 53.2 MB


           ************************************************************
           *        Program running with 16 parallel MPI-processes    *
           *              working on a common directory               *
           ************************************************************
-------------------------------------------------------------------------------
                                 ORCA SCF
-------------------------------------------------------------------------------

------------
SCF SETTINGS
------------
Hamiltonian:
 Density Functional     Method          .... DFT(GTOs)
 Exchange Functional    Exchange        .... B88
   X-Alpha parameter    XAlpha          ....  0.666667
   Becke's b parameter  XBeta           ....  0.004200
 Correlation Functional Correlation     .... LYP
 LDA part of GGA corr.  LDAOpt          .... VWN-5
 Gradients option       PostSCFGGA      .... off
 Hybrid DFT is turned on
   Fraction HF Exchange ScalHFX         ....  0.200000
   Scaling of DF-GGA-X  ScalDFX         ....  0.720000
   Scaling of DF-GGA-C  ScalDFC         ....  0.810000
   Scaling of DF-LDA-C  ScalLDAC        ....  1.000000
   Perturbative correction              ....  0.000000
   Density functional embedding theory  .... OFF
   NL short-range parameter             ....  4.800000
 RI-approximation to the Coulomb term is turned on
   Number of AuxJ basis functions       .... 3810
   RIJ-COSX (HFX calculated with COS-X)).... on


General Settings:
 Integral files         IntName         .... EPRII
 Hartree-Fock type      HFTyp           .... UHF
 Total Charge           Charge          ....    0
 Multiplicity           Mult            ....    2
 Number of Electrons    NEL             ....  157
 Basis Dimension        Dim             ....  549
 Nuclear Repulsion      ENuc            ....   1521.5320540675 Eh

Convergence Acceleration:
 DIIS                   CNVDIIS         .... on
   Start iteration      DIISMaxIt       ....    12
   Startup error        DIISStart       ....  0.200000
   # of expansion vecs  DIISMaxEq       ....     5
   Bias factor          DIISBfac        ....   1.050
   Max. coefficient     DIISMaxC        ....  10.000
 Trust-Rad. Augm. Hess. CNVTRAH         .... auto
   Auto Start mean grad. ratio tolernc. ....  1.125000
   Auto Start start iteration           ....     1
   Auto Start num. interpolation iter.  ....    10
   Max. Number of Micro iterations      ....    16
   Max. Number of Macro iterations      .... Maxiter - #DIIS iter
   Number of Davidson start vectors     ....     2
   Converg. threshold I  (grad. norm)   ....   5.000e-05
   Converg. threshold II (energy diff.) ....   1.000e-06
   Grad. Scal. Fac. for Micro threshold ....   0.100
   Minimum threshold for Micro iter.    ....   0.010
   NR start threshold (gradient norm)   ....   0.001
   Initial trust radius                 ....   0.400
   Minimum AH scaling param. (alpha)    ....   1.000
   Maximum AH scaling param. (alpha)    .... 1000.000
   Orbital update algorithm             .... Taylor
   White noise on init. David. guess    .... on
   Maximum white noise                  ....   0.010
   Quad. conv. algorithm                .... NR
 SOSCF                  CNVSOSCF        .... off
 Level Shifting         CNVShift        .... on
   Level shift para.    LevelShift      ....    0.2500
   Turn off err/grad.   ShiftErr        ....    0.0010
 Zerner damping         CNVZerner       .... off
 Static damping         CNVDamp         .... on
   Fraction old density DampFac         ....    0.7000
   Max. Damping (<1)    DampMax         ....    0.9800
   Min. Damping (>=0)   DampMin         ....    0.0000
   Turn off err/grad.   DampErr         ....    0.1000
 Fernandez-Rico         CNVRico         .... off

SCF Procedure:
 Maximum # iterations   MaxIter         ....   125
 SCF integral mode      SCFMode         .... Direct
   Integral package                     .... SHARK and LIBINT hybrid scheme
 Reset frequency        DirectResetFreq ....    20
 Integral Threshold     Thresh          ....  1.000e-10 Eh
 Primitive CutOff       TCut            ....  1.000e-11 Eh

Convergence Tolerance:
 Convergence Check Mode ConvCheckMode   .... Total+1el-Energy
 Convergence forced     ConvForced      .... 0
 Energy Change          TolE            ....  1.000e-06 Eh
 1-El. energy change                    ....  1.000e-03 Eh
 DIIS Error             TolErr          ....  1.000e-06


Diagonalization of the overlap matrix:
Smallest eigenvalue                        ... 8.200e-05
Time for diagonalization                   ...    0.056 sec
Threshold for overlap eigenvalues          ... 1.000e-08
Number of eigenvalues below threshold      ... 0
Time for construction of square roots      ...    0.063 sec
Total time needed                          ...    0.121 sec

---------------------
INITIAL GUESS: MOREAD
---------------------
Guess MOs are being read from file: EPRII.ges
Input geometry compatible with but different from current geometry
Input basis set matches current basis set (good)
MOs were renormalized
MOs were reorthogonalized (Cholesky)
                      ------------------
                      INITIAL GUESS DONE (   0.3 sec)
                      ------------------
-------------------
DFT GRID GENERATION
-------------------

General Integration Accuracy     IntAcc      ... 4.388
Radial Grid Type                 RadialGrid  ... OptM3 with GC (2021)
Angular Grid (max. ang.)         AngularGrid ... 4 (Lebedev-302)
Angular grid pruning method      GridPruning ... 4 (adaptive)
Weight generation scheme         WeightScheme... Becke
Basis function cutoff            BFCut       ... 1.0000e-10
Integration weight cutoff        WCut        ... 1.0000e-14
Angular grids for H and He will be reduced by one unit
Partially contracted basis set               ... off
Rotationally invariant grid construction     ... off

Total number of grid points                  ...   211225
Total number of batches                      ...     3324
Average number of points per batch           ...       63
Average number of grid points per atom       ...     4494
Time for grid setup =    1.310 sec

--------------------
COSX GRID GENERATION
--------------------

GRIDX 1
-------
General Integration Accuracy     IntAcc      ... 3.816
Radial Grid Type                 RadialGrid  ... OptM3 with GC (2021)
Angular Grid (max. ang.)         AngularGrid ... 1 (Lebedev-50)
Angular grid pruning method      GridPruning ... 4 (adaptive)
Weight generation scheme         WeightScheme... Becke
Basis function cutoff            BFCut       ... 1.0000e-10
Integration weight cutoff        WCut        ... 1.0000e-14
Angular grids for H and He will be reduced by one unit
Partially contracted basis set               ... on
Rotationally invariant grid construction     ... off

Total number of grid points                  ...    26941
Total number of batches                      ...      446
Average number of points per batch           ...       60
Average number of grid points per atom       ...      573
UseSFitting                                  ... on

GRIDX 2
-------
General Integration Accuracy     IntAcc      ... 4.020
Radial Grid Type                 RadialGrid  ... OptM3 with GC (2021)
Angular Grid (max. ang.)         AngularGrid ... 2 (Lebedev-110)
Angular grid pruning method      GridPruning ... 4 (adaptive)
Weight generation scheme         WeightScheme... Becke
Basis function cutoff            BFCut       ... 1.0000e-10
Integration weight cutoff        WCut        ... 1.0000e-14
Angular grids for H and He will be reduced by one unit
Partially contracted basis set               ... on
Rotationally invariant grid construction     ... off

Total number of grid points                  ...    57186
Total number of batches                      ...      916
Average number of points per batch           ...       62
Average number of grid points per atom       ...     1217
UseSFitting                                  ... on

GRIDX 3
-------
General Integration Accuracy     IntAcc      ... 4.338
Radial Grid Type                 RadialGrid  ... OptM3 with GC (2021)
Angular Grid (max. ang.)         AngularGrid ... 3 (Lebedev-194)
Angular grid pruning method      GridPruning ... 4 (adaptive)
Weight generation scheme         WeightScheme... Becke
Basis function cutoff            BFCut       ... 1.0000e-10
Integration weight cutoff        WCut        ... 1.0000e-14
Angular grids for H and He will be reduced by one unit
Partially contracted basis set               ... on
Rotationally invariant grid construction     ... off

Total number of grid points                  ...   125069
Total number of batches                      ...     1979
Average number of points per batch           ...       63
Average number of grid points per atom       ...     2661
UseSFitting                                  ... on

Time for X-Grid setup             =    2.331 sec

--------------
SCF ITERATIONS
--------------
ITER       Energy         Delta-E        Max-DP      RMS-DP      [F,P]     Damp
               ***  Starting incremental Fock matrix formation  ***
  0   -852.8240019507   0.000000000000 0.00649950  0.00003923  0.0022171 0.7000
  1   -852.8241573317  -0.000155381016 0.00597657  0.00003431  0.0016046 0.7000
                               ***Turning on DIIS***
  2   -852.8242667373  -0.000109405531 0.01509643  0.00008439  0.0011412 0.0000
  3   -852.8245186263  -0.000251889083 0.00072856  0.00000999  0.0003384 0.0000
               *** Restarting incremental Fock matrix formation ***
                                   *** Resetting DIIS ***
  4   -852.8245122001   0.000006426255 0.00091511  0.00001093  0.0003860 0.0000
  5   -852.8245077083   0.000004491801 0.00053066  0.00000625  0.0004559 0.0000
  6   -852.8245187332  -0.000011024874 0.00019789  0.00000150  0.0001619 0.0000
                 **** Energy Check signals convergence ****

               *****************************************************
               *                     SUCCESS                       *
               *           SCF CONVERGED AFTER   7 CYCLES          *
               *****************************************************

Old exchange energy                            =    -24.546466298 Eh
New exchange energy                            =    -24.546455141 Eh
Exchange energy change after final integration =      0.000011157 Eh
Total energy after final integration           =   -852.824507791 Eh
Final COS-X integration done in                =     8.793 sec

----------------
TOTAL SCF ENERGY
----------------

Total Energy       :         -852.82450779 Eh          -23206.53465 eV

Components:
Nuclear Repulsion  :         1521.53205407 Eh           41402.99208 eV
Electronic Energy  :        -2374.35656186 Eh          -64609.52673 eV
One Electron Energy:        -4170.95019879 Eh         -113497.32500 eV
Two Electron Energy:         1796.59363693 Eh           48887.79827 eV
Max COSX asymmetry :            0.00000372 Eh               0.00010 eV

Virial components:
Potential Energy   :        -1698.84401594 Eh          -46227.89585 eV
Kinetic Energy     :          846.01950815 Eh           23021.36120 eV
Virial Ratio       :            2.00804355


DFT components:
N(Alpha)           :       79.000178670779 electrons
N(Beta)            :       78.000179155352 electrons
N(Total)           :      157.000357826131 electrons
E(X)               :      -97.354152284659 Eh       
E(C)               :       -6.089507718746 Eh       
E(XC)              :     -103.443660003405 Eh       
DFET-embed. en.    :        0.000000000000 Eh       

---------------
SCF CONVERGENCE
---------------

  Last Energy change         ...   -2.1467e-07  Tolerance :   1.0000e-06
  Last MAX-Density change    ...    0.0000e+00  Tolerance :   1.0000e-05
  Last RMS-Density change    ...    0.0000e+00  Tolerance :   1.0000e-06
  Last DIIS Error            ...    1.8291e-04  Tolerance :   1.0000e-06

             **** THE GBW FILE WAS UPDATED (EPRII.gbw) ****
             **** DENSITY EPRII.scfp WAS UPDATED ****
             **** ENERGY FILE WAS UPDATED (EPRII.en.tmp) ****
----------------------
UHF SPIN CONTAMINATION
----------------------

Warning: in a DFT calculation there is little theoretical justification to 
         calculate <S**2> as in Hartree-Fock theory. We will do it anyways
         but you should keep in mind that the values have only limited relevance

Expectation value of <S**2>     :     0.759484
Ideal value S*(S+1) for S=0.5   :     0.750000
Deviation                       :     0.009484

             **** THE GBW FILE WAS UPDATED (EPRII.gbw) ****
             **** DENSITY EPRII.scfp WAS UPDATED ****
----------------
ORBITAL ENERGIES
----------------
                 SPIN UP ORBITALS
  NO   OCC          E(Eh)            E(eV) 
   0   1.0000     -10.226215      -278.2695 
   1   1.0000     -10.217729      -278.0385 
   2   1.0000     -10.214487      -277.9503 
   3   1.0000     -10.213705      -277.9290 
   4   1.0000     -10.210335      -277.8373 
   5   1.0000     -10.203424      -277.6493 
   6   1.0000     -10.203266      -277.6450 
   7   1.0000     -10.203070      -277.6397 
   8   1.0000     -10.202634      -277.6278 
   9   1.0000     -10.202428      -277.6222 
  10   1.0000     -10.201507      -277.5971 
  11   1.0000     -10.199441      -277.5409 
  12   1.0000     -10.199352      -277.5385 
  13   1.0000     -10.197090      -277.4769 
  14   1.0000     -10.190100      -277.2867 
  15   1.0000     -10.187085      -277.2047 
  16   1.0000     -10.182220      -277.0723 
  17   1.0000     -10.181873      -277.0628 
  18   1.0000     -10.181858      -277.0625 
  19   1.0000     -10.181595      -277.0553 
  20   1.0000     -10.171588      -276.7830 
  21   1.0000     -10.171486      -276.7802 
  22   1.0000      -0.868074       -23.6215 
  23   1.0000      -0.858408       -23.3585 
  24   1.0000      -0.810891       -22.0655 
  25   1.0000      -0.792750       -21.5718 
  26   1.0000      -0.785431       -21.3727 
  27   1.0000      -0.767505       -20.8849 
  28   1.0000      -0.758869       -20.6499 
  29   1.0000      -0.748255       -20.3610 
  30   1.0000      -0.730038       -19.8654 
  31   1.0000      -0.712103       -19.3773 
  32   1.0000      -0.696759       -18.9598 
  33   1.0000      -0.651910       -17.7394 
  34   1.0000      -0.630545       -17.1580 
  35   1.0000      -0.617666       -16.8076 
  36   1.0000      -0.607723       -16.5370 
  37   1.0000      -0.605761       -16.4836 
  38   1.0000      -0.582366       -15.8470 
  39   1.0000      -0.577537       -15.7156 
  40   1.0000      -0.564043       -15.3484 
  41   1.0000      -0.535365       -14.5680 
  42   1.0000      -0.506111       -13.7720 
  43   1.0000      -0.480648       -13.0791 
  44   1.0000      -0.471772       -12.8376 
  45   1.0000      -0.470798       -12.8111 
  46   1.0000      -0.469524       -12.7764 
  47   1.0000      -0.453217       -12.3327 
  48   1.0000      -0.442251       -12.0343 
  49   1.0000      -0.436526       -11.8785 
  50   1.0000      -0.426012       -11.5924 
  51   1.0000      -0.423800       -11.5322 
  52   1.0000      -0.423190       -11.5156 
  53   1.0000      -0.421596       -11.4722 
  54   1.0000      -0.418377       -11.3846 
  55   1.0000      -0.412669       -11.2293 
  56   1.0000      -0.411330       -11.1929 
  57   1.0000      -0.379927       -10.3383 
  58   1.0000      -0.376555       -10.2466 
  59   1.0000      -0.372035       -10.1236 
  60   1.0000      -0.365328        -9.9411 
  61   1.0000      -0.363852        -9.9009 
  62   1.0000      -0.359744        -9.7891 
  63   1.0000      -0.358887        -9.7658 
  64   1.0000      -0.350478        -9.5370 
  65   1.0000      -0.342731        -9.3262 
  66   1.0000      -0.331737        -9.0270 
  67   1.0000      -0.330897        -9.0042 
  68   1.0000      -0.326289        -8.8788 
  69   1.0000      -0.325471        -8.8565 
  70   1.0000      -0.324544        -8.8313 
  71   1.0000      -0.320419        -8.7190 
  72   1.0000      -0.311735        -8.4827 
  73   1.0000      -0.267790        -7.2869 
  74   1.0000      -0.266106        -7.2411 
  75   1.0000      -0.256304        -6.9744 
  76   1.0000      -0.242142        -6.5890 
  77   1.0000      -0.237227        -6.4553 
  78   1.0000      -0.209663        -5.7052 
  79   0.0000      -0.051865        -1.4113 
  80   0.0000      -0.013364        -0.3636 
  81   0.0000      -0.006282        -0.1709 
  82   0.0000       0.002673         0.0727 
  83   0.0000       0.016329         0.4443 
  84   0.0000       0.022291         0.6066 
  85   0.0000       0.023351         0.6354 
  86   0.0000       0.032590         0.8868 
  87   0.0000       0.034868         0.9488 
  88   0.0000       0.037569         1.0223 
  89   0.0000       0.046008         1.2520 
  90   0.0000       0.048114         1.3093 
  91   0.0000       0.056695         1.5428 
  92   0.0000       0.061388         1.6704 
  93   0.0000       0.067424         1.8347 
  94   0.0000       0.071198         1.9374 
  95   0.0000       0.078117         2.1257 
  96   0.0000       0.085663         2.3310 
  97   0.0000       0.092947         2.5292 
  98   0.0000       0.093474         2.5436 
  99   0.0000       0.100765         2.7420 
 100   0.0000       0.107137         2.9153 
 101   0.0000       0.118491         3.2243 
 102   0.0000       0.128975         3.5096 
 103   0.0000       0.138960         3.7813 
 104   0.0000       0.139035         3.7833 
 105   0.0000       0.152072         4.1381 
 106   0.0000       0.161416         4.3924 
 107   0.0000       0.168776         4.5926 
 108   0.0000       0.174146         4.7388 
 109   0.0000       0.180894         4.9224 
 110   0.0000       0.182377         4.9627 
 111   0.0000       0.191131         5.2009 
 112   0.0000       0.192152         5.2287 
 113   0.0000       0.194750         5.2994 
 114   0.0000       0.199790         5.4365 
 115   0.0000       0.199953         5.4410 
 116   0.0000       0.202770         5.5176 
 117   0.0000       0.206018         5.6060 
 118   0.0000       0.208919         5.6850 
 119   0.0000       0.219281         5.9669 
 120   0.0000       0.222240         6.0475 
 121   0.0000       0.224753         6.1158 
 122   0.0000       0.225379         6.1329 
 123   0.0000       0.230976         6.2852 
 124   0.0000       0.235300         6.4028 
 125   0.0000       0.241421         6.5694 
 126   0.0000       0.244872         6.6633 
 127   0.0000       0.253132         6.8881 
 128   0.0000       0.253673         6.9028 
 129   0.0000       0.257041         6.9944 
 130   0.0000       0.257601         7.0097 
 131   0.0000       0.258995         7.0476 
 132   0.0000       0.267576         7.2811 
 133   0.0000       0.274289         7.4638 
 134   0.0000       0.275855         7.5064 
 135   0.0000       0.277153         7.5417 
 136   0.0000       0.281729         7.6662 
 137   0.0000       0.282569         7.6891 
 138   0.0000       0.285300         7.7634 
 139   0.0000       0.291682         7.9371 
 140   0.0000       0.293630         7.9901 
 141   0.0000       0.295921         8.0524 
 142   0.0000       0.301256         8.1976 
 143   0.0000       0.303261         8.2521 
 144   0.0000       0.308684         8.3997 
 145   0.0000       0.310468         8.4483 
 146   0.0000       0.311251         8.4696 
 147   0.0000       0.314429         8.5560 
 148   0.0000       0.318321         8.6620 
 149   0.0000       0.321199         8.7403 
 150   0.0000       0.322220         8.7680 
 151   0.0000       0.328021         8.9259 
 152   0.0000       0.331431         9.0187 
 153   0.0000       0.333778         9.0826 
 154   0.0000       0.345060         9.3896 
 155   0.0000       0.346453         9.4275 
 156   0.0000       0.349015         9.4972 
 157   0.0000       0.350292         9.5319 
 158   0.0000       0.354221         9.6388 
 159   0.0000       0.368159        10.0181 
 160   0.0000       0.368267        10.0211 
 161   0.0000       0.374104        10.1799 
 162   0.0000       0.377054        10.2602 
 163   0.0000       0.378621        10.3028 
 164   0.0000       0.386859        10.5270 
 165   0.0000       0.393243        10.7007 
 166   0.0000       0.401825        10.9342 
 167   0.0000       0.405238        11.0271 
 168   0.0000       0.412462        11.2237 
 169   0.0000       0.416385        11.3304 
 170   0.0000       0.417802        11.3690 
 171   0.0000       0.423328        11.5194 
 172   0.0000       0.429962        11.6999 
 173   0.0000       0.432995        11.7824 
 174   0.0000       0.433108        11.7855 
 175   0.0000       0.439580        11.9616 
 176   0.0000       0.447870        12.1872 
 177   0.0000       0.451566        12.2877 
 178   0.0000       0.455276        12.3887 
 179   0.0000       0.457313        12.4441 
 180   0.0000       0.460813        12.5394 
 181   0.0000       0.467028        12.7085 
 182   0.0000       0.471573        12.8321 
 183   0.0000       0.474506        12.9120 
 184   0.0000       0.481928        13.1139 
 185   0.0000       0.483252        13.1500 
 186   0.0000       0.491724        13.3805 
 187   0.0000       0.497791        13.5456 
 188   0.0000       0.505688        13.7605 
 189   0.0000       0.514652        14.0044 
 190   0.0000       0.519255        14.1297 
 191   0.0000       0.520663        14.1680 
 192   0.0000       0.522847        14.2274 
 193   0.0000       0.533168        14.5082 
 194   0.0000       0.539593        14.6831 
 195   0.0000       0.544212        14.8088 
 196   0.0000       0.559151        15.2153 
 197   0.0000       0.559755        15.2317 
 198   0.0000       0.560925        15.2635 
 199   0.0000       0.564565        15.3626 
 200   0.0000       0.581318        15.8185 
 201   0.0000       0.590825        16.0772 
 202   0.0000       0.600260        16.3339 
 203   0.0000       0.600389        16.3374 
 204   0.0000       0.610065        16.6007 
 205   0.0000       0.627771        17.0825 
 206   0.0000       0.638719        17.3804 
 207   0.0000       0.641144        17.4464 
 208   0.0000       0.657133        17.8815 
 209   0.0000       0.657682        17.8964 
 210   0.0000       0.668054        18.1787 
 211   0.0000       0.671830        18.2814 
 212   0.0000       0.684144        18.6165 
 213   0.0000       0.691802        18.8249 
 214   0.0000       0.694292        18.8926 
 215   0.0000       0.714777        19.4501 
 216   0.0000       0.725553        19.7433 
 217   0.0000       0.754597        20.5336 
 218   0.0000       0.760197        20.6860 
 219   0.0000       0.770924        20.9779 
 220   0.0000       0.781911        21.2769 
 221   0.0000       0.782010        21.2796 
 222   0.0000       0.816343        22.2138 
 223   0.0000       0.834649        22.7120 
 224   0.0000       0.836237        22.7552 
 225   0.0000       0.845831        23.0162 
 226   0.0000       0.848031        23.0761 
 227   0.0000       0.851060        23.1585 
 228   0.0000       0.854395        23.2493 
 229   0.0000       0.868521        23.6337 
 230   0.0000       0.869029        23.6475 
 231   0.0000       0.869840        23.6695 
 232   0.0000       0.884392        24.0655 
 233   0.0000       0.894708        24.3462 
 234   0.0000       0.896338        24.3906 
 235   0.0000       0.900180        24.4951 
 236   0.0000       0.902846        24.5677 
 237   0.0000       0.903786        24.5933 
 238   0.0000       0.919124        25.0106 
 239   0.0000       0.920912        25.0593 
 240   0.0000       0.924339        25.1525 
 241   0.0000       0.928052        25.2536 
 242   0.0000       0.929117        25.2826 
 243   0.0000       0.933468        25.4010 
 244   0.0000       0.936843        25.4928 
 245   0.0000       0.938408        25.5354 
 246   0.0000       0.951787        25.8994 
 247   0.0000       0.951919        25.9030 
 248   0.0000       0.957518        26.0554 
 249   0.0000       0.969345        26.3772 
 250   0.0000       0.975479        26.5441 
 251   0.0000       0.979284        26.6477 
 252   0.0000       0.983376        26.7590 
 253   0.0000       0.985101        26.8060 
 254   0.0000       0.995408        27.0864 
 255   0.0000       0.996057        27.1041 
 256   0.0000       0.999033        27.1851 
 257   0.0000       1.004538        27.3349 
 258   0.0000       1.015490        27.6329 
 259   0.0000       1.016269        27.6541 
 260   0.0000       1.022027        27.8108 
 261   0.0000       1.027227        27.9523 
 262   0.0000       1.034789        28.1580 
 263   0.0000       1.042424        28.3658 
 264   0.0000       1.046287        28.4709 
 265   0.0000       1.054614        28.6975 
 266   0.0000       1.058634        28.8069 
 267   0.0000       1.066301        29.0155 
 268   0.0000       1.071098        29.1461 
 269   0.0000       1.091528        29.7020 
 270   0.0000       1.098232        29.8844 
 271   0.0000       1.100626        29.9495 
 272   0.0000       1.103031        30.0150 
 273   0.0000       1.115382        30.3511 
 274   0.0000       1.117206        30.4007 
 275   0.0000       1.123477        30.5714 
 276   0.0000       1.133845        30.8535 
 277   0.0000       1.145640        31.1745 
 278   0.0000       1.160243        31.5718 
 279   0.0000       1.169619        31.8270 
 280   0.0000       1.176063        32.0023 
 281   0.0000       1.176150        32.0047 
 282   0.0000       1.182216        32.1697 
 283   0.0000       1.198033        32.6001 
 284   0.0000       1.203516        32.7493 
 285   0.0000       1.204553        32.7775 
 286   0.0000       1.205342        32.7990 
 287   0.0000       1.231501        33.5108 
 288   0.0000       1.237478        33.6735 
 289   0.0000       1.251298        34.0496 
 290   0.0000       1.259124        34.2625 
 291   0.0000       1.275087        34.6969 
 292   0.0000       1.288756        35.0688 
 293   0.0000       1.294494        35.2250 
 294   0.0000       1.307464        35.5779 
 295   0.0000       1.313269        35.7359 
 296   0.0000       1.321513        35.9602 
 297   0.0000       1.326562        36.0976 
 298   0.0000       1.335409        36.3383 
 299   0.0000       1.356001        36.8987 
 300   0.0000       1.365765        37.1643 
 301   0.0000       1.383897        37.6578 
 302   0.0000       1.384091        37.6630 
 303   0.0000       1.389288        37.8044 
 304   0.0000       1.398879        38.0654 
 305   0.0000       1.408108        38.3166 
 306   0.0000       1.419626        38.6300 
 307   0.0000       1.429257        38.8921 
 308   0.0000       1.430304        38.9206 
 309   0.0000       1.441727        39.2314 
 310   0.0000       1.444906        39.3179 
 311   0.0000       1.452659        39.5289 
 312   0.0000       1.453379        39.5485 
 313   0.0000       1.454376        39.5756 
 314   0.0000       1.474816        40.1318 
 315   0.0000       1.481089        40.3025 
 316   0.0000       1.499344        40.7992 
 317   0.0000       1.504321        40.9347 
 318   0.0000       1.512200        41.1490 
 319   0.0000       1.517224        41.2858 
 320   0.0000       1.517454        41.2920 
 321   0.0000       1.523089        41.4454 
 322   0.0000       1.535286        41.7773 
 323   0.0000       1.548306        42.1316 
 324   0.0000       1.555040        42.3148 
 325   0.0000       1.560592        42.4659 
 326   0.0000       1.561679        42.4954 
 327   0.0000       1.568438        42.6794 
 328   0.0000       1.571849        42.7722 
 329   0.0000       1.580536        43.0086 
 330   0.0000       1.582809        43.0704 
 331   0.0000       1.591348        43.3028 
 332   0.0000       1.594854        43.3982 
 333   0.0000       1.602120        43.5959 
 334   0.0000       1.609254        43.7900 
 335   0.0000       1.619112        44.0583 
 336   0.0000       1.619988        44.0821 
 337   0.0000       1.625765        44.2393 
 338   0.0000       1.635454        44.5030 
 339   0.0000       1.636517        44.5319 
 340   0.0000       1.637496        44.5585 
 341   0.0000       1.646126        44.7934 
 342   0.0000       1.646788        44.8114 
 343   0.0000       1.658419        45.1279 
 344   0.0000       1.666010        45.3344 
 345   0.0000       1.680612        45.7318 
 346   0.0000       1.682239        45.7760 
 347   0.0000       1.688074        45.9348 
 348   0.0000       1.697030        46.1785 
 349   0.0000       1.699003        46.2322 
 350   0.0000       1.708073        46.4790 
 351   0.0000       1.710931        46.5568 
 352   0.0000       1.716986        46.7216 
 353   0.0000       1.719951        46.8023 
 354   0.0000       1.728770        47.0422 
 355   0.0000       1.738471        47.3062 
 356   0.0000       1.748173        47.5702 
 357   0.0000       1.758088        47.8400 
 358   0.0000       1.762514        47.9604 
 359   0.0000       1.769596        48.1532 
 360   0.0000       1.771667        48.2095 
 361   0.0000       1.779579        48.4248 
 362   0.0000       1.780472        48.4491 
 363   0.0000       1.791589        48.7516 
 364   0.0000       1.795707        48.8637 
 365   0.0000       1.803299        49.0703 
 366   0.0000       1.813771        49.3552 
 367   0.0000       1.814844        49.3844 
 368   0.0000       1.833644        49.8960 
 369   0.0000       1.841473        50.1090 
 370   0.0000       1.844745        50.1981 
 371   0.0000       1.853876        50.4465 
 372   0.0000       1.858232        50.5651 
 373   0.0000       1.861399        50.6512 
 374   0.0000       1.895745        51.5858 
 375   0.0000       1.902988        51.7829 
 376   0.0000       1.914002        52.0827 
 377   0.0000       1.931840        52.5680 
 378   0.0000       1.933580        52.6154 
 379   0.0000       1.943451        52.8840 
 380   0.0000       1.947526        52.9949 
 381   0.0000       1.954039        53.1721 
 382   0.0000       1.959582        53.3229 
 383   0.0000       1.978459        53.8366 
 384   0.0000       1.996396        54.3247 
 385   0.0000       2.025993        55.1301 
 386   0.0000       2.029813        55.2340 
 387   0.0000       2.032057        55.2951 
 388   0.0000       2.040293        55.5192 
 389   0.0000       2.045038        55.6483 
 390   0.0000       2.068489        56.2865 
 391   0.0000       2.071756        56.3754 
 392   0.0000       2.102702        57.2174 
 393   0.0000       2.113825        57.5201 
 394   0.0000       2.139328        58.2141 
 395   0.0000       2.145009        58.3687 
 396   0.0000       2.147607        58.4394 
 397   0.0000       2.161650        58.8215 
 398   0.0000       2.191338        59.6294 
 399   0.0000       2.203754        59.9672 
 400   0.0000       2.219445        60.3942 
 401   0.0000       2.223953        60.5168 
 402   0.0000       2.230300        60.6895 
 403   0.0000       2.254375        61.3447 
 404   0.0000       2.258636        61.4606 
 405   0.0000       2.262524        61.5664 
 406   0.0000       2.273357        61.8612 
 407   0.0000       2.294712        62.4423 
 408   0.0000       2.309526        62.8454 
 409   0.0000       2.322583        63.2007 
 410   0.0000       2.323599        63.2283 
 411   0.0000       2.326570        63.3092 
 412   0.0000       2.327028        63.3216 
 413   0.0000       2.351577        63.9897 
 414   0.0000       2.357620        64.1541 
 415   0.0000       2.378852        64.7319 
 416   0.0000       2.402089        65.3642 
 417   0.0000       2.405489        65.4567 
 418   0.0000       2.415344        65.7249 
 419   0.0000       2.424537        65.9750 
 420   0.0000       2.426214        66.0206 
 421   0.0000       2.433270        66.2126 
 422   0.0000       2.453104        66.7524 
 423   0.0000       2.462287        67.0022 
 424   0.0000       2.465595        67.0922 
 425   0.0000       2.468966        67.1840 
 426   0.0000       2.475442        67.3602 
 427   0.0000       2.482995        67.5657 
 428   0.0000       2.489027        67.7299 
 429   0.0000       2.497307        67.9552 
 430   0.0000       2.515024        68.4373 
 431   0.0000       2.523463        68.6669 
 432   0.0000       2.528144        68.7943 
 433   0.0000       2.529570        68.8331 
 434   0.0000       2.534396        68.9644 
 435   0.0000       2.551013        69.4166 
 436   0.0000       2.562672        69.7339 
 437   0.0000       2.569885        69.9301 
 438   0.0000       2.575372        70.0794 
 439   0.0000       2.584391        70.3249 
 440   0.0000       2.613049        71.1047 
 441   0.0000       2.613848        71.1264 
 442   0.0000       2.616263        71.1921 
 443   0.0000       2.622915        71.3732 
 444   0.0000       2.632511        71.6343 
 445   0.0000       2.646988        72.0282 
 446   0.0000       2.719275        73.9952 
 447   0.0000       2.729608        74.2764 
 448   0.0000       2.774340        75.4936 
 449   0.0000       2.794346        76.0380 
 450   0.0000       2.800129        76.1954 
 451   0.0000       2.927619        79.6646 
 452   0.0000       3.049317        82.9761 
 453   0.0000       3.174187        86.3740 
 454   0.0000       3.423491        93.1579 
 455   0.0000       4.989619       135.7744 
 456   0.0000       4.990540       135.7995 
 457   0.0000       5.010758       136.3496 
 458   0.0000       5.011078       136.3584 
 459   0.0000       5.013941       136.4363 
 460   0.0000       5.015744       136.4853 
 461   0.0000       5.021920       136.6534 
 462   0.0000       5.036935       137.0620 
 463   0.0000       5.039263       137.1253 
 464   0.0000       5.048534       137.3776 
 465   0.0000       5.052148       137.4759 
 466   0.0000       5.091585       138.5491 
 467   0.0000       5.099101       138.7536 
 468   0.0000       5.179338       140.9370 
 469   0.0000       5.200083       141.5014 
 470   0.0000       5.219669       142.0344 
 471   0.0000       5.234734       142.4444 
 472   0.0000       5.252003       142.9143 
 473   0.0000       5.256605       143.0395 
 474   0.0000       5.272446       143.4706 
 475   0.0000       5.290053       143.9497 
 476   0.0000       5.299128       144.1966 
 477   0.0000       5.306405       144.3946 
 478   0.0000       5.312839       144.5697 
 479   0.0000       5.317007       144.6831 
 480   0.0000       5.356066       145.7460 
 481   0.0000       5.372043       146.1807 
 482   0.0000       5.378760       146.3635 
 483   0.0000       5.416587       147.3928 
 484   0.0000       5.442512       148.0983 
 485   0.0000       5.446421       148.2047 
 486   0.0000       5.485148       149.2585 
 487   0.0000       5.498047       149.6095 
 488   0.0000       5.548164       150.9732 
 489   0.0000       5.586752       152.0232 
 490   0.0000       5.596867       152.2985 
 491   0.0000       5.625026       153.0647 
 492   0.0000       5.659515       154.0032 
 493   0.0000       5.678280       154.5138 
 494   0.0000       5.730995       155.9483 
 495   0.0000       5.747195       156.3891 
 496   0.0000       5.808390       158.0543 
 497   0.0000       5.850740       159.2067 
 498   0.0000       5.871236       159.7645 
 499   0.0000       5.905413       160.6945 
 500   0.0000       6.125107       166.6726 
 501   0.0000       6.300866       171.4553 
 502   0.0000      29.600224       805.4630 
 503   0.0000      29.728480       808.9531 
 504   0.0000      29.793395       810.7195 
 505   0.0000      29.826874       811.6305 
 506   0.0000      29.837746       811.9264 
 507   0.0000      29.856560       812.4383 
 508   0.0000      29.929500       814.4231 
 509   0.0000      29.958079       815.2008 
 510   0.0000      29.988430       816.0267 
 511   0.0000      29.999341       816.3236 
 512   0.0000      30.042176       817.4892 
 513   0.0000      30.077413       818.4480 
 514   0.0000      30.086426       818.6933 
 515   0.0000      30.114904       819.4682 
 516   0.0000      30.134547       820.0027 
 517   0.0000      30.169427       820.9518 
 518   0.0000      30.232329       822.6635 
 519   0.0000      30.252606       823.2153 
 520   0.0000      30.276041       823.8530 
 521   0.0000      30.293945       824.3402 
 522   0.0000      30.444367       828.4333 
 523   0.0000      30.527431       830.6936 
 524   0.0000      36.616780       996.3932 
 525   0.0000      36.617496       996.4127 
 526   0.0000      36.630074       996.7550 
 527   0.0000      36.632708       996.8267 
 528   0.0000      36.638210       996.9764 
 529   0.0000      36.641389       997.0629 
 530   0.0000      36.661310       997.6050 
 531   0.0000      36.665001       997.7054 
 532   0.0000      36.673057       997.9246 
 533   0.0000      36.675929       998.0028 
 534   0.0000      36.707197       998.8536 
 535   0.0000      36.721435       999.2410 
 536   0.0000      36.791528      1001.1484 
 537   0.0000      36.814993      1001.7869 
 538   0.0000      36.829772      1002.1891 
 539   0.0000      36.851250      1002.7735 
 540   0.0000      36.866990      1003.2018 
 541   0.0000      36.877757      1003.4948 
 542   0.0000      36.884191      1003.6699 
 543   0.0000      36.904936      1004.2344 
 544   0.0000      36.934141      1005.0291 
 545   0.0000      36.939035      1005.1622 
 546   0.0000      36.990553      1006.5641 
 547   0.0000      37.015727      1007.2491 
 548   0.0000      37.045652      1008.0634 

                 SPIN DOWN ORBITALS
  NO   OCC          E(Eh)            E(eV) 
   0   1.0000     -10.226147      -278.2676 
   1   1.0000     -10.218330      -278.0549 
   2   1.0000     -10.212340      -277.8919 
   3   1.0000     -10.210425      -277.8398 
   4   1.0000     -10.203463      -277.6503 
   5   1.0000     -10.203315      -277.6463 
   6   1.0000     -10.203137      -277.6415 
   7   1.0000     -10.202624      -277.6275 
   8   1.0000     -10.202427      -277.6222 
   9   1.0000     -10.200291      -277.5640 
  10   1.0000     -10.199798      -277.5506 
  11   1.0000     -10.199379      -277.5392 
  12   1.0000     -10.199171      -277.5335 
  13   1.0000     -10.197214      -277.4803 
  14   1.0000     -10.189650      -277.2745 
  15   1.0000     -10.186952      -277.2011 
  16   1.0000     -10.182218      -277.0722 
  17   1.0000     -10.181866      -277.0627 
  18   1.0000     -10.181850      -277.0622 
  19   1.0000     -10.181587      -277.0551 
  20   1.0000     -10.171584      -276.7829 
  21   1.0000     -10.171487      -276.7802 
  22   1.0000      -0.862486       -23.4694 
  23   1.0000      -0.858109       -23.3503 
  24   1.0000      -0.809103       -22.0168 
  25   1.0000      -0.792614       -21.5681 
  26   1.0000      -0.783206       -21.3121 
  27   1.0000      -0.765520       -20.8309 
  28   1.0000      -0.755088       -20.5470 
  29   1.0000      -0.748319       -20.3628 
  30   1.0000      -0.728215       -19.8157 
  31   1.0000      -0.709606       -19.3094 
  32   1.0000      -0.694807       -18.9067 
  33   1.0000      -0.650772       -17.7084 
  34   1.0000      -0.628793       -17.1103 
  35   1.0000      -0.615410       -16.7462 
  36   1.0000      -0.607738       -16.5374 
  37   1.0000      -0.601079       -16.3562 
  38   1.0000      -0.581152       -15.8140 
  39   1.0000      -0.572146       -15.5689 
  40   1.0000      -0.561737       -15.2856 
  41   1.0000      -0.534599       -14.5472 
  42   1.0000      -0.504646       -13.7321 
  43   1.0000      -0.480250       -13.0683 
  44   1.0000      -0.471688       -12.8353 
  45   1.0000      -0.470719       -12.8089 
  46   1.0000      -0.464495       -12.6396 
  47   1.0000      -0.453156       -12.3310 
  48   1.0000      -0.436137       -11.8679 
  49   1.0000      -0.435040       -11.8380 
  50   1.0000      -0.423867       -11.5340 
  51   1.0000      -0.423582       -11.5263 
  52   1.0000      -0.422770       -11.5042 
  53   1.0000      -0.420024       -11.4294 
  54   1.0000      -0.418270       -11.3817 
  55   1.0000      -0.411158       -11.1882 
  56   1.0000      -0.406057       -11.0494 
  57   1.0000      -0.379897       -10.3375 
  58   1.0000      -0.372861       -10.1461 
  59   1.0000      -0.371221       -10.1014 
  60   1.0000      -0.364175        -9.9097 
  61   1.0000      -0.361510        -9.8372 
  62   1.0000      -0.358789        -9.7631 
  63   1.0000      -0.358723        -9.7614 
  64   1.0000      -0.350479        -9.5370 
  65   1.0000      -0.342191        -9.3115 
  66   1.0000      -0.331092        -9.0095 
  67   1.0000      -0.329759        -8.9732 
  68   1.0000      -0.326105        -8.8738 
  69   1.0000      -0.324824        -8.8389 
  70   1.0000      -0.324457        -8.8289 
  71   1.0000      -0.318800        -8.6750 
  72   1.0000      -0.310058        -8.4371 
  73   1.0000      -0.265779        -7.2322 
  74   1.0000      -0.264824        -7.2062 
  75   1.0000      -0.256485        -6.9793 
  76   1.0000      -0.242220        -6.5911 
  77   1.0000      -0.205988        -5.6052 
  78   0.0000      -0.083775        -2.2796 
  79   0.0000      -0.047801        -1.3007 
  80   0.0000      -0.013516        -0.3678 
  81   0.0000      -0.006575        -0.1789 
  82   0.0000       0.007374         0.2007 
  83   0.0000       0.016389         0.4460 
  84   0.0000       0.022360         0.6085 
  85   0.0000       0.023670         0.6441 
  86   0.0000       0.033758         0.9186 
  87   0.0000       0.035699         0.9714 
  88   0.0000       0.037682         1.0254 
  89   0.0000       0.046039         1.2528 
  90   0.0000       0.048317         1.3148 
  91   0.0000       0.056715         1.5433 
  92   0.0000       0.061482         1.6730 
  93   0.0000       0.069345         1.8870 
  94   0.0000       0.073540         2.0011 
  95   0.0000       0.078311         2.1309 
  96   0.0000       0.085664         2.3310 
  97   0.0000       0.092947         2.5292 
  98   0.0000       0.096652         2.6300 
  99   0.0000       0.100647         2.7387 
 100   0.0000       0.107966         2.9379 
 101   0.0000       0.119612         3.2548 
 102   0.0000       0.129390         3.5209 
 103   0.0000       0.141018         3.8373 
 104   0.0000       0.142466         3.8767 
 105   0.0000       0.152567         4.1516 
 106   0.0000       0.162933         4.4336 
 107   0.0000       0.169377         4.6090 
 108   0.0000       0.174064         4.7365 
 109   0.0000       0.181070         4.9272 
 110   0.0000       0.182399         4.9633 
 111   0.0000       0.192236         5.2310 
 112   0.0000       0.192869         5.2482 
 113   0.0000       0.195378         5.3165 
 114   0.0000       0.200208         5.4479 
 115   0.0000       0.200400         5.4531 
 116   0.0000       0.202874         5.5205 
 117   0.0000       0.207352         5.6423 
 118   0.0000       0.209259         5.6942 
 119   0.0000       0.219220         5.9653 
 120   0.0000       0.222451         6.0532 
 121   0.0000       0.225722         6.1422 
 122   0.0000       0.226013         6.1501 
 123   0.0000       0.231965         6.3121 
 124   0.0000       0.235617         6.4115 
 125   0.0000       0.242765         6.6060 
 126   0.0000       0.245139         6.6706 
 127   0.0000       0.253298         6.8926 
 128   0.0000       0.253872         6.9082 
 129   0.0000       0.258084         7.0228 
 130   0.0000       0.258291         7.0284 
 131   0.0000       0.260072         7.0769 
 132   0.0000       0.267841         7.2883 
 133   0.0000       0.274578         7.4716 
 134   0.0000       0.276452         7.5226 
[...]
  Y           0.4011067           -0.0007735           -0.9160310
  Z           0.0008245            0.9999995           -0.0004833

Notes:  (1) The A matrix conforms to the "SAI" spin Hamiltonian convention.
        (2) Tensor is right-handed.

 -----------------------------------------------------------
 Nucleus  44H : A:ISTP=    1 I=  0.5 P=533.5514 MHz/au**3
                Q:ISTP=    2 I=  1.0 Q=  0.0029 barn     
 -----------------------------------------------------------
 Solving for nuclear perturbation:
Forming RHS of the CP-SCF equations         ... 
Calc. nucleus orbit integrals (SHARK)       ... done

------------------------------------------------------------------------------
                           ORCA CP-SCF CALCULATION
------------------------------------------------------------------------------

Input orbitals are from        ... EPRII.gbw
Input Perturbation             ... EPRII.pin.tmp
Wavefunction output            ... EPRII.pout.tmp
Perturbation mode              ... Imaginary perturbation
Solver                         ... POPLE
Max. number of iterations      ... 64
Convergence tolerance          ... 1.000e-03
Integral handling              ... Direct
DFT GridXC                     ... 1
COSX GridX                     ... 1
COSX IntAccX                   ... 3.067
COSX Algorithm                 ... Auto
Number of perturbations        ... 3
Number of operators            ... 2
Orbital ranges used for CP-SCF:
 Operator 0:  Orbitals   0... 78  to  79...548
 Operator 1:  Orbitals   0... 77  to  78...548
Variables per perturbation     ... 73868
DFT calculation                         ... on
XC functional terms                     ... off
Hybrid DFT                              ... on
   Exchange mixing (SCF)                ...  0.200
   Exchange mixing (CP-SCF)             ...  0.200
   GGA exch. scaling(SCF)               ...  0.720
   GGA exch. scaling (CP-SCF)           ...  0.720
   GGA corr. scaling (SCF)              ...  0.810
   GGA corr. scaling (CP-SCF)           ...  0.810

CP-SCF GRID
-----------

General Integration Accuracy     IntAcc      ... 3.467
Radial Grid Type                 RadialGrid  ... OptM3 with GC (2021)
Angular Grid (max. ang.)         AngularGrid ... 1 (Lebedev-50)
Angular grid pruning method      GridPruning ... 4 (adaptive)
Weight generation scheme         WeightScheme... Becke
Basis function cutoff            BFCut       ... 1.0000e-10
Integration weight cutoff        WCut        ... 1.0000e-14
Angular grids for H and He will be reduced by one unit
Partially contracted basis set               ... off
Rotationally invariant grid construction     ... off

Total number of grid points                  ...    30039
Total number of batches                      ...      490
Average number of points per batch           ...       61
Average number of grid points per atom       ...      639

CP-SCF GRIDX
------------

General Integration Accuracy     IntAcc      ... 3.067
Radial Grid Type                 RadialGrid  ... OptM3 with GC (2021)
Angular Grid (max. ang.)         AngularGrid ... 1 (Lebedev-50)
Angular grid pruning method      GridPruning ... 4 (adaptive)
Weight generation scheme         WeightScheme... Becke
Basis function cutoff            BFCut       ... 1.0000e-10
Integration weight cutoff        WCut        ... 1.0000e-14
Angular grids for H and He will be reduced by one unit
Partially contracted basis set               ... on
Rotationally invariant grid construction     ... off

Total number of grid points                  ...    14123
Total number of batches                      ...      251
Average number of points per batch           ...       56
Average number of grid points per atom       ...      300

Memory available               ... 863.7 MB
Memory needed per perturbation ...  17.7 MB
Perturbations treated per batch... 3
Number of batches              ... 1
     CP-SCF ITERATION   0:   4.5739e-02 (   2.1 sec   0/  3 done)
     CP-SCF ITERATION   1:   1.9262e-03 (   1.9 sec   0/  3 done)
     CP-SCF ITERATION   2:   1.3457e-04 (   1.9 sec   3/  3 done)
                    *** THE CP-SCF HAS CONVERGED ***

Forming final perturbed densities           ... done
Transforming perturbed density to AO basis  ... done

 Raw HFC matrix (all values in MHz): 
 -----------------------------------
                 0.7703              -0.2732               0.0001
                -0.2731               0.0609              -0.0003
                 0.0001              -0.0003               0.1739

 A(FC)           0.3351               0.3351               0.3351
 A(SD)          -0.3672              -0.1612               0.5284
 A(ORB+DIA)      0.0001              -0.0000              -0.0002    A(PC) =  -0.0000
 A(ORB)         -0.0000              -0.0002              -0.0002    A(PC) =  -0.0001
 A(DIA)          0.0001               0.0002               0.0000    A(PC) =   0.0001
             ----------           ----------           ----------
 A(Tot)         -0.0320               0.1739               0.8633    A(iso)=    0.3350
 Orientation: 
  X           0.3222679           -0.0006688            0.9466483
  Y           0.9466475           -0.0012055           -0.3222685
  Z           0.0013567            0.9999990            0.0002446

Notes:  (1) The A matrix conforms to the "SAI" spin Hamiltonian convention.
        (2) Tensor is right-handed.

 -----------------------------------------------------------
 Nucleus  45H : A:ISTP=    1 I=  0.5 P=533.5514 MHz/au**3
                Q:ISTP=    2 I=  1.0 Q=  0.0029 barn     
 -----------------------------------------------------------
 Solving for nuclear perturbation:
Forming RHS of the CP-SCF equations         ... 
Calc. nucleus orbit integrals (SHARK)       ... done

------------------------------------------------------------------------------
                           ORCA CP-SCF CALCULATION
------------------------------------------------------------------------------

Input orbitals are from        ... EPRII.gbw
Input Perturbation             ... EPRII.pin.tmp
Wavefunction output            ... EPRII.pout.tmp
Perturbation mode              ... Imaginary perturbation
Solver                         ... POPLE
Max. number of iterations      ... 64
Convergence tolerance          ... 1.000e-03
Integral handling              ... Direct
DFT GridXC                     ... 1
COSX GridX                     ... 1
COSX IntAccX                   ... 3.067
COSX Algorithm                 ... Auto
Number of perturbations        ... 3
Number of operators            ... 2
Orbital ranges used for CP-SCF:
 Operator 0:  Orbitals   0... 78  to  79...548
 Operator 1:  Orbitals   0... 77  to  78...548
Variables per perturbation     ... 73868
DFT calculation                         ... on
XC functional terms                     ... off
Hybrid DFT                              ... on
   Exchange mixing (SCF)                ...  0.200
   Exchange mixing (CP-SCF)             ...  0.200
   GGA exch. scaling(SCF)               ...  0.720
   GGA exch. scaling (CP-SCF)           ...  0.720
   GGA corr. scaling (SCF)              ...  0.810
   GGA corr. scaling (CP-SCF)           ...  0.810

CP-SCF GRID
-----------

General Integration Accuracy     IntAcc      ... 3.467
Radial Grid Type                 RadialGrid  ... OptM3 with GC (2021)
Angular Grid (max. ang.)         AngularGrid ... 1 (Lebedev-50)
Angular grid pruning method      GridPruning ... 4 (adaptive)
Weight generation scheme         WeightScheme... Becke
Basis function cutoff            BFCut       ... 1.0000e-10
Integration weight cutoff        WCut        ... 1.0000e-14
Angular grids for H and He will be reduced by one unit
Partially contracted basis set               ... off
Rotationally invariant grid construction     ... off

Total number of grid points                  ...    30039
Total number of batches                      ...      490
Average number of points per batch           ...       61
Average number of grid points per atom       ...      639

CP-SCF GRIDX
------------

General Integration Accuracy     IntAcc      ... 3.067
Radial Grid Type                 RadialGrid  ... OptM3 with GC (2021)
Angular Grid (max. ang.)         AngularGrid ... 1 (Lebedev-50)
Angular grid pruning method      GridPruning ... 4 (adaptive)
Weight generation scheme         WeightScheme... Becke
Basis function cutoff            BFCut       ... 1.0000e-10
Integration weight cutoff        WCut        ... 1.0000e-14
Angular grids for H and He will be reduced by one unit
Partially contracted basis set               ... on
Rotationally invariant grid construction     ... off

Total number of grid points                  ...    14123
Total number of batches                      ...      251
Average number of points per batch           ...       56
Average number of grid points per atom       ...      300

Memory available               ... 863.0 MB
Memory needed per perturbation ...  17.7 MB
Perturbations treated per batch... 3
Number of batches              ... 1
     CP-SCF ITERATION   0:   4.5849e-02 (   1.9 sec   0/  3 done)
     CP-SCF ITERATION   1:   1.9364e-03 (   1.9 sec   0/  3 done)
     CP-SCF ITERATION   2:   1.4149e-04 (   1.9 sec   3/  3 done)
                    *** THE CP-SCF HAS CONVERGED ***

Forming final perturbed densities           ... done
Transforming perturbed density to AO basis  ... done

 Raw HFC matrix (all values in MHz): 
 -----------------------------------
                 0.7840               0.2311               0.0005
                 0.2310               0.0451              -0.0001
                 0.0005              -0.0001               0.1820

 A(FC)           0.3371               0.3371               0.3371
 A(SD)          -0.3583              -0.1551               0.5133
 A(ORB+DIA)      0.0000              -0.0000              -0.0002    A(PC) =  -0.0001
 A(ORB)         -0.0001              -0.0002              -0.0002    A(PC) =  -0.0001
 A(DIA)          0.0001               0.0002               0.0000    A(PC) =   0.0001
             ----------           ----------           ----------
 A(Tot)         -0.0212               0.1820               0.8503    A(iso)=    0.3370
 Orientation: 
  X           0.2758805            0.0003163            0.9611919
  Y          -0.9611913            0.0012238            0.2758799
  Z          -0.0010890           -0.9999992            0.0006417

Notes:  (1) The A matrix conforms to the "SAI" spin Hamiltonian convention.
        (2) Tensor is right-handed.

 -----------------------------------------------------------
 Nucleus  46H : A:ISTP=    1 I=  0.5 P=533.5514 MHz/au**3
                Q:ISTP=    2 I=  1.0 Q=  0.0029 barn     
 -----------------------------------------------------------
 Solving for nuclear perturbation:
Forming RHS of the CP-SCF equations         ... 
Calc. nucleus orbit integrals (SHARK)       ... done

------------------------------------------------------------------------------
                           ORCA CP-SCF CALCULATION
------------------------------------------------------------------------------

Input orbitals are from        ... EPRII.gbw
Input Perturbation             ... EPRII.pin.tmp
Wavefunction output            ... EPRII.pout.tmp
Perturbation mode              ... Imaginary perturbation
Solver                         ... POPLE
Max. number of iterations      ... 64
Convergence tolerance          ... 1.000e-03
Integral handling              ... Direct
DFT GridXC                     ... 1
COSX GridX                     ... 1
COSX IntAccX                   ... 3.067
COSX Algorithm                 ... Auto
Number of perturbations        ... 3
Number of operators            ... 2
Orbital ranges used for CP-SCF:
 Operator 0:  Orbitals   0... 78  to  79...548
 Operator 1:  Orbitals   0... 77  to  78...548
Variables per perturbation     ... 73868
DFT calculation                         ... on
XC functional terms                     ... off
Hybrid DFT                              ... on
   Exchange mixing (SCF)                ...  0.200
   Exchange mixing (CP-SCF)             ...  0.200
   GGA exch. scaling(SCF)               ...  0.720
   GGA exch. scaling (CP-SCF)           ...  0.720
   GGA corr. scaling (SCF)              ...  0.810
   GGA corr. scaling (CP-SCF)           ...  0.810

CP-SCF GRID
-----------

General Integration Accuracy     IntAcc      ... 3.467
Radial Grid Type                 RadialGrid  ... OptM3 with GC (2021)
Angular Grid (max. ang.)         AngularGrid ... 1 (Lebedev-50)
Angular grid pruning method      GridPruning ... 4 (adaptive)
Weight generation scheme         WeightScheme... Becke
Basis function cutoff            BFCut       ... 1.0000e-10
Integration weight cutoff        WCut        ... 1.0000e-14
Angular grids for H and He will be reduced by one unit
Partially contracted basis set               ... off
Rotationally invariant grid construction     ... off

Total number of grid points                  ...    30039
Total number of batches                      ...      490
Average number of points per batch           ...       61
Average number of grid points per atom       ...      639

CP-SCF GRIDX
------------

General Integration Accuracy     IntAcc      ... 3.067
Radial Grid Type                 RadialGrid  ... OptM3 with GC (2021)
Angular Grid (max. ang.)         AngularGrid ... 1 (Lebedev-50)
Angular grid pruning method      GridPruning ... 4 (adaptive)
Weight generation scheme         WeightScheme... Becke
Basis function cutoff            BFCut       ... 1.0000e-10
Integration weight cutoff        WCut        ... 1.0000e-14
Angular grids for H and He will be reduced by one unit
Partially contracted basis set               ... on
Rotationally invariant grid construction     ... off

Total number of grid points                  ...    14123
Total number of batches                      ...      251
Average number of points per batch           ...       56
Average number of grid points per atom       ...      300

Memory available               ... 862.4 MB
Memory needed per perturbation ...  17.7 MB
Perturbations treated per batch... 3
Number of batches              ... 1
     CP-SCF ITERATION   0:   4.2047e-02 (   1.9 sec   0/  3 done)
     CP-SCF ITERATION   1:   1.7092e-03 (   2.1 sec   1/  3 done)
     CP-SCF ITERATION   2:   7.7236e-05 (   1.6 sec   3/  3 done)
                    *** THE CP-SCF HAS CONVERGED ***

Forming final perturbed densities           ... done
Transforming perturbed density to AO basis  ... done

 Raw HFC matrix (all values in MHz): 
 -----------------------------------
                -0.0464              -0.0977              -0.0000
                -0.0977              -0.1986              -0.0001
                -0.0000              -0.0001              -0.1898

 A(FC)          -0.1450              -0.1450              -0.1450
 A(SD)           0.1463              -0.0449              -0.1014
 A(ORB+DIA)      0.0000               0.0000               0.0001    A(PC) =   0.0000
 A(ORB)         -0.0000              -0.0001              -0.0000    A(PC) =  -0.0000
 A(DIA)          0.0000               0.0001               0.0001    A(PC) =   0.0001
             ----------           ----------           ----------
 A(Tot)          0.0013              -0.1898              -0.2463    A(iso)=   -0.1449
 Orientation: 
  X           0.8984426            0.0004518            0.4390908
  Y          -0.4390910            0.0007084            0.8984423
  Z           0.0000949           -0.9999996            0.0008348

Notes:  (1) The A matrix conforms to the "SAI" spin Hamiltonian convention.
        (2) Tensor is right-handed.


--------------------------------------------------------------------------------
----------------------------------------------------------------------------
                           ORCA EULER ANGLE PROGRAM
----------------------------------------------------------------------------

Only g-tensor available        -->  using g-tensor as reference tensor

Reference tensor               ...  g

g-tensor ordering              ...  |g_min> --> |gx>
                                    |g_mid> --> |gy>
                                    |g_max> --> |gz>

A- and EFG-tensor ordering     ...  the axes |Ax>, |Qx>, |Ay>, etc. are assigned
                                    such that the Euler rotation is minimal. You
                                    can find the respective eigenvalues as Ax,
                                    EFGx, Ay, etc. in the tables below.
                                    The relation of |Ax>, |Ay>,  etc. to Amin, Amid, etc.
                                    (as printed in the ORCA EPR/NMR CALCULATION Output)
                                    is obtained in the detailed printout.

Euler rotation around          ...  z - y - z
   First rotation              -->  by alpha around z
   Second rotation             -->  by beta around y'
   Third rotation              -->  by gamma around z''
   Positive / Negative angle   -->  clockwise / counterclockwise rotation

Plot EFG-tensors                    (-)
Plot HFC-tensors                    (-)
Detailed Printout                   (-)

-------------------------------------------------------------------------
          Euler rotation of hyperfine tensor to g-tensor
-------------------------------------------------------------------------

-------------------------------------------------------------------
 Atom  |   Alpha    Beta    Gamma   |   Ax       Ay       Az 
       |          [degrees]         |           [MHz]         
-------------------------------------------------------------------
  7H       41.4      0.0      0.0      28.39    20.65    20.08
  8H       -8.7      0.0      0.0      67.11    49.09    48.09
 10H     -129.1     35.4    110.5       2.16    -7.40    -8.64
 11H       50.9     35.5    -69.5       2.15    -7.40    -8.64
 13H     -161.5     15.0    179.8       2.13    -0.76    -1.02
 14H       18.3     15.0      0.1       2.13    -0.76    -1.02
 16H       59.9     21.9    -69.4       1.08    -0.55    -0.61
 17H     -120.2     22.0    110.7       1.08    -0.55    -0.61
 19H      -69.5     24.4     83.7       0.51    -0.28    -0.30
 20H      110.7     24.4    -96.5       0.51    -0.28    -0.30
 22H     -140.5     29.3    179.7       2.96     6.34     3.62
 23H       39.6     29.2     -0.4       2.96     6.33     3.62
 25H      -48.3     21.1     32.5       2.34    -0.47    -0.65
 26H      131.8     21.1   -147.6       2.34    -0.47    -0.65
 28H     -176.8     10.2    144.2       0.66    -0.35    -0.37
 29H        3.3     10.1    -35.9       0.66    -0.35    -0.37
 31H      138.2     10.8   -149.3       0.53    -0.25    -0.27
 32H      -42.0     10.7     30.8       0.53    -0.25    -0.27
 34H        0.6      0.0      0.0       0.50    -0.12    -0.14
 35H      -19.6      0.0      0.0       0.32    -0.18    -0.19
 42H       45.3      0.1    -47.1       0.50     0.27     0.29
 43H       24.5      0.0      0.0      -0.25     0.00    -0.19
 44H      -17.9      0.0      0.0      -0.03     0.86     0.17
 45H       58.5      0.1    -41.6      -0.02     0.85     0.18
 46H       -1.0      0.1    -24.1      -0.25     0.00    -0.19
-------------------------------------------------------------------


Maximum memory used throughout the entire EPRNMR-calculation: 227.0 MB

Timings for individual modules:

Sum of individual times         ...     4488.309 sec (=  74.805 min)
GTO integral calculation        ...        5.484 sec (=   0.091 min)   0.1 %
Spin-Orbit-Coupling Matrices    ...       13.008 sec (=   0.217 min)   0.3 %
SCF iterations                  ...       69.989 sec (=   1.166 min)   1.6 %
EPR/NMR calculation             ...     4399.829 sec (=  73.330 min)  98.0 %
                             ****ORCA TERMINATED NORMALLY****
TOTAL RUN TIME: 0 days 1 hours 14 minutes 52 seconds 599 msec
