
                                 *****************
                                 * O   R   C   A *
                                 *****************

           --- An Ab Initio, DFT and Semiempirical electronic structure package ---

                  #######################################################
                  #                        -***-                        #
                  #          Department of theory and spectroscopy      #
                  #               Directorship: Frank Neese             #
                  #        Max Planck Institute fuer Kohlenforschung    #
                  #                Kaiser Wilhelm Platz 1               #
                  #                 D-45470 Muelheim/Ruhr               #
                  #                      Germany                        #
                  #                                                     #
                  #                  All rights reserved                #
                  #                        -***-                        #
                  #######################################################


                         Program Version 4.2.1 -  RELEASE  -


 With contributions from (in alphabetic order):
   Daniel Aravena         : Magnetic Suceptibility
   Michael Atanasov       : Ab Initio Ligand Field Theory (pilot matlab implementation)
   Alexander A. Auer      : GIAO ZORA, VPT2
   Ute Becker             : Parallelization
   Giovanni Bistoni       : ED, misc. LED, open-shell LED, HFLD
   Martin Brehm           : Molecular dynamics
   Dmytro Bykov           : SCF Hessian
   Vijay G. Chilkuri      : MRCI spin determinant printing, contributions to CSF-ICE
   Dipayan Datta          : RHF DLPNO-CCSD density
   Achintya Kumar Dutta   : EOM-CC, STEOM-CC
   Dmitry Ganyushin       : Spin-Orbit,Spin-Spin,Magnetic field MRCI
   Miquel Garcia          : C-PCM Hessian, Gaussian charge scheme
   Yang Guo               : DLPNO-NEVPT2, CIM, IAO-localization
   Andreas Hansen         : Spin unrestricted coupled pair/coupled cluster methods
   Benjamin Helmich-Paris : CASSCF linear response (MC-RPA)
   Lee Huntington         : MR-EOM, pCC
   Robert Izsak           : Overlap fitted RIJCOSX, COSX-SCS-MP3, EOM
   Christian Kollmar      : KDIIS, OOCD, Brueckner-CCSD(T), CCSD density
   Simone Kossmann        : Meta GGA functionals, TD-DFT gradient, OOMP2, MP2 Hessian
   Martin Krupicka        : AUTO-CI
   Lucas Lang             : DCDCAS
   Dagmar Lenk            : GEPOL surface, SMD
   Dimitrios Liakos       : Extrapolation schemes; Compound Job, initial MDCI parallelization
   Dimitrios Manganas     : Further ROCIS development; embedding schemes
   Dimitrios Pantazis     : SARC Basis sets
   Taras Petrenko         : DFT Hessian,TD-DFT gradient, ASA, ECA, R-Raman, ABS, FL, XAS/XES, NRVS
   Peter Pinski           : DLPNO-MP2, DLPNO-MP2 Gradient
   Christoph Reimann      : Effective Core Potentials
   Marius Retegan         : Local ZFS, SOC
   Christoph Riplinger    : Optimizer, TS searches, QM/MM, DLPNO-CCSD(T), (RO)-DLPNO pert. Triples
   Tobias Risthaus        : Range-separated hybrids, TD-DFT gradient, RPA, STAB
   Michael Roemelt        : Original ROCIS implementation
   Masaaki Saitow         : Open-shell DLPNO-CCSD energy and density
   Barbara Sandhoefer     : DKH picture change effects
   Avijit Sen             : IP-ROCIS
   Kantharuban Sivalingam : CASSCF convergence, NEVPT2, FIC-MRCI
   Bernardo de Souza      : ESD, SOC TD-DFT
   Georgi Stoychev        : AutoAux, RI-MP2 NMR
   Willem Van den Heuvel  : Paramagnetic NMR
   Boris Wezisla          : Elementary symmetry handling
   Frank Wennmohs         : Technical directorship


 We gratefully acknowledge several colleagues who have allowed us to
 interface, adapt or use parts of their codes:
   Stefan Grimme, W. Hujo, H. Kruse,             : VdW corrections, initial TS optimization,
                  C. Bannwarth                     DFT functionals, gCP, sTDA/sTD-DF
   Ed Valeev, F. Pavosevic, A. Kumar             : LibInt (2-el integral package), F12 methods
   Garnet Chan, S. Sharma, J. Yang, R. Olivares  : DMRG
   Ulf Ekstrom                                   : XCFun DFT Library
   Mihaly Kallay                                 : mrcc  (arbitrary order and MRCC methods)
   Andreas Klamt, Michael Diedenhofen            : otool_cosmo (COSMO solvation model)
   Jiri Pittner, Ondrej Demel                    : Mk-CCSD
   Frank Weinhold                                : gennbo (NPA and NBO analysis)
   Christopher J. Cramer and Donald G. Truhlar   : smd solvation model
   Lars Goerigk                                  : TD-DFT with DH, B97 family of functionals
   V. Asgeirsson, H. Jonsson                     : NEB implementation
   FAccTs GmbH                                   : IRC, NEB, NEB-TS, Multilevel, MM, QM/MM, CI optimization
   S Lehtola, MJT Oliveira, MAL Marques          : LibXC Library


 Your calculation uses the libint2 library for the computation of 2-el integrals
 For citations please refer to: http://libint.valeyev.net

 Your ORCA version has been built with support for libXC version: 4.2.3
 For citations please refer to: https://tddft.org/programs/libxc/

 This ORCA versions uses:
   CBLAS   interface :  Fast vector & matrix operations
   LAPACKE interface :  Fast linear algebra routines
   SCALAPACK package :  Parallel linear algebra routines




***************************************
The coordinates will be read from file: opt.xyz
***************************************


----- Orbital basis set information -----
Your calculation utilizes the basis: EPR-II
   V. Barone, in Recent Advances in Density Functional Methods, Part 1 (ed. D. P. Chong), World Scientific, Singapore, 1995, p. 287.

----- AuxJ basis set information -----
Your calculation utilizes the AutoAux generation procedure.
  G. L. Stoychev, A. A. Auer, F. Neese, J. Chem. Theory Comput. 13, 554 (2017)

----- AuxC basis set information -----
Your calculation utilizes the AutoAux generation procedure.
  G. L. Stoychev, A. A. Auer, F. Neese, J. Chem. Theory Comput. 13, 554 (2017)

----- AuxJK basis set information -----
Your calculation utilizes the AutoAux generation procedure.
  G. L. Stoychev, A. A. Auer, F. Neese, J. Chem. Theory Comput. 13, 554 (2017)

================================================================================
                                        WARNINGS
                       Please study these warnings very carefully!
================================================================================


WARNING: your system is open-shell and RHF/RKS was chosen
  ===> : WILL SWITCH to UHF/UKS


INFO   : the flag for use of LIBINT has been found!

================================================================================
                                       INPUT FILE
================================================================================
NAME = EPRII_i.inp
|  1> ! B3LYP EPR-II AUTOAUX
|  2> %pal nprocs 16 end
|  3> *XYZFile 0 2 opt.xyz
|  4> %EPRNMR
|  5>         GTENSOR   TRUE
|  6>         NUCLEI    = ALL H {AISO, ADIP, AORB}
|  7>         ORI       GIAO
|  8> END
|  9> 
| 10>                          ****END OF INPUT****
================================================================================

                       ****************************
                       * Single Point Calculation *
                       ****************************

---------------------------------
CARTESIAN COORDINATES (ANGSTROEM)
---------------------------------
  C      2.832555   -0.007076   -0.008095
  C     -1.313497   -0.015116   -0.012872
  C     -0.703416   -1.260389   -0.013943
  C      0.699749   -1.204610   -0.012161
  C      1.403039    0.021918   -0.009480
  C      0.709456    1.262414   -0.008309
  C     -0.698798    1.216963   -0.010181
  H      1.283492   -2.126794   -0.012884
  H     -1.283339    2.138456   -0.009530
  C     -1.510185   -2.547944   -0.016431
  H     -2.183510   -2.529548   -0.893476
  H     -2.180708   -2.534611    0.862879
  C     -0.710213   -3.852977   -0.021273
  H     -0.047138   -3.881333   -0.906144
  H     -0.046634   -3.887573    0.863002
  C     -1.605558   -5.097224   -0.025224
  H     -2.271946   -5.069379    0.857472
  H     -2.271165   -5.064255   -0.908327
  C     -0.814938   -6.407520   -0.028677
  H     -0.166172   -6.486821    0.861015
  H     -0.164973   -6.481390   -0.917970
  C      1.485361    2.565508   -0.005459
  H      2.161743    2.561750    0.869830
  H      2.161886    2.565468   -0.880665
  C      0.664424    3.857459   -0.002856
  H      0.001691    3.883015   -0.888179
  H      0.000488    3.878690    0.881681
  C      1.541658    5.114789    0.000681
  H      2.207167    5.091661    0.884114
  H      2.208804    5.095503   -0.881611
  C      0.732465    6.413588    0.002755
  H      0.081035    6.478935    0.891672
  H      0.083052    6.483044   -0.887318
  C      4.054122   -0.041607   -0.009185
  H     -1.484315   -7.282892   -0.031824
  H      1.389047    7.298590    0.005556
  C      5.482055   -0.085029   -0.008313
  C      6.164317   -1.321223   -0.017649
  C      7.558378   -1.358292   -0.016711
  C      8.298216   -0.170529   -0.006574
  C      7.632263    1.060320    0.002671
  C      6.238559    1.107216    0.001834
  H      9.390566   -0.204333   -0.005846
  H      8.203600    1.991853    0.010736
  H      5.585737   -2.246961   -0.025754
  H      5.717110    2.066429    0.009216
  H      8.072617   -2.322542   -0.024104

----------------------------
CARTESIAN COORDINATES (A.U.)
----------------------------
  NO LB      ZA    FRAG     MASS         X           Y           Z
   0 C     6.0000    0    12.011    5.352753   -0.013373   -0.015298
   1 C     6.0000    0    12.011   -2.482149   -0.028564   -0.024325
   2 C     6.0000    0    12.011   -1.329263   -2.381789   -0.026349
   3 C     6.0000    0    12.011    1.322333   -2.276382   -0.022982
   4 C     6.0000    0    12.011    2.651359    0.041419   -0.017915
   5 C     6.0000    0    12.011    1.340678    2.385617   -0.015703
   6 C     6.0000    0    12.011   -1.320537    2.299727   -0.019239
   7 H     1.0000    0     1.008    2.425449   -4.019059   -0.024346
   8 H     1.0000    0     1.008   -2.425160    4.041096   -0.018009
   9 C     6.0000    0    12.011   -2.853836   -4.814916   -0.031051
  10 H     1.0000    0     1.008   -4.126235   -4.780154   -1.688425
  11 H     1.0000    0     1.008   -4.120940   -4.789721    1.630604
  12 C     6.0000    0    12.011   -1.342109   -7.281071   -0.040200
  13 H     1.0000    0     1.008   -0.089078   -7.334656   -1.712364
  14 H     1.0000    0     1.008   -0.088125   -7.346448    1.630838
  15 C     6.0000    0    12.011   -3.034065   -9.632357   -0.047667
  16 H     1.0000    0     1.008   -4.293356   -9.579737    1.620386
  17 H     1.0000    0     1.008   -4.291880   -9.570054   -1.716489
  18 C     6.0000    0    12.011   -1.540010  -12.108458   -0.054192
  19 H     1.0000    0     1.008   -0.314020  -12.258315    1.627082
  20 H     1.0000    0     1.008   -0.311755  -12.248053   -1.734712
  21 C     6.0000    0    12.011    2.806925    4.848107   -0.010316
  22 H     1.0000    0     1.008    4.085103    4.841007    1.643740
  23 H     1.0000    0     1.008    4.085372    4.848032   -1.664216
  24 C     6.0000    0    12.011    1.255579    7.289540   -0.005397
  25 H     1.0000    0     1.008    0.003195    7.337836   -1.678415
  26 H     1.0000    0     1.008    0.000921    7.329662    1.666135
  27 C     6.0000    0    12.011    2.913312    9.665550    0.001287
  28 H     1.0000    0     1.008    4.170941    9.621845    1.670734
  29 H     1.0000    0     1.008    4.174034    9.629106   -1.666003
  30 C     6.0000    0    12.011    1.384159   12.119925    0.005207
  31 H     1.0000    0     1.008    0.153134   12.243413    1.685015
  32 H     1.0000    0     1.008    0.156946   12.251177   -1.676787
  33 C     6.0000    0    12.011    7.661180   -0.078626   -0.017357
  34 H     1.0000    0     1.008   -2.804948  -13.762671   -0.060139
  35 H     1.0000    0     1.008    2.624919   13.792337    0.010500
  36 C     6.0000    0    12.011   10.359583   -0.160681   -0.015709
  37 C     6.0000    0    12.011   11.648871   -2.496750   -0.033351
  38 C     6.0000    0    12.011   14.283265   -2.566799   -0.031579
  39 C     6.0000    0    12.011   15.681356   -0.322254   -0.012423
  40 C     6.0000    0    12.011   14.422887    2.003714    0.005048
  41 C     6.0000    0    12.011   11.789168    2.092335    0.003466
  42 H     1.0000    0     1.008   17.745599   -0.386133   -0.011047
  43 H     1.0000    0     1.008   15.502557    3.764057    0.020287
  44 H     1.0000    0     1.008   10.555513   -4.246140   -0.048667
  45 H     1.0000    0     1.008   10.803772    3.904986    0.017416
  46 H     1.0000    0     1.008   15.255036   -4.388969   -0.045551

--------------------------------
INTERNAL COORDINATES (ANGSTROEM)
--------------------------------
 C      0   0   0     0.000000000000     0.00000000     0.00000000
 C      1   0   0     4.146061979681     0.00000000     0.00000000
 C      2   1   0     1.386688363165    64.01014962     0.00000000
 C      3   2   1     1.404273879647   113.82449841     0.00000000
 C      4   3   2     1.413858174266   122.10644590     0.00000000
 C      5   4   3     1.421227711071   120.95979319     0.00000000
 C      2   1   3     1.376909059199    63.37368510   179.98923607
 H      4   3   2     1.091412846148   120.05731728   180.00539417
 H      7   2   1     1.091255569428   121.09620661   179.99007738
 C      3   2   1     1.519434345316   121.82816513   179.98794009
 H     10   3   2     1.105853663393   108.08900499    56.48449439
 H     10   3   2     1.105877508661   108.08460612   303.17114121
 C     10   3   2     1.530715339523   116.42146158   179.83811797
 H     13  10   3     1.106105668947   109.73533569   301.90613090
 H     13  10   3     1.106108887248   109.73464984    58.24805835
 C     13  10   3     1.532908600840   112.75411882   180.06943403
 H     16  13  10     1.106345359170   109.22786508   302.36749664
 H     16  13  10     1.106340495618   109.22448056    57.74912600
 C     16  13  10     1.530349134070   113.15550946   180.05712456
 H     19  16  13     1.103964498440   111.30246727    59.87906130
 H     19  16  13     1.103971138084   111.30140429   300.15662137
 C      6   5   4     1.516604341005   120.01878620   180.00129785
 H     22   6   5     1.106181718094   108.14324354   303.69722281
 H     22   6   5     1.106196675480   108.14174693    56.43553072
 C     22   6   5     1.530712582437   116.79629945   180.06248190
 H     25  22   6     1.106194064426   109.84324450   301.69984038
 H     25  22   6     1.106194902970   109.84347298    58.22702846
 C     25  22   6     1.533111447277   112.66394921   179.96886228
 H     28  25  22     1.106295877530   109.20252292   302.29944746
 H     28  25  22     1.106297715858   109.20325761    57.65518494
 C     28  25  22     1.530253927122   113.17258121   179.97750225
 H     31  28  25     1.103994475266   111.30638950    59.84796489
 H     31  28  25     1.103988751681   111.30700626   300.12319116
 C      1   2   3     1.222055219470   178.26577682     3.78976524
 H     19  16  13     1.101975695747   111.48956474   180.01958550
 H     31  28  25     1.101969371965   111.50425091   179.98461838
 C     34   1   5     1.428593880529   179.85023468   311.81131853
 C     37  34   1     1.412000417946   120.63526075    35.52803593
 C     38  37  34     1.394554401212   120.41664815   180.00209113
 C     39  38  37     1.399372010795   120.39437981     0.00000000
 C     40  39  38     1.399488805944   119.66779362     0.00000000
 C     41  40  39     1.394493049154   120.34187856     0.00000000
 H     40  39  38     1.092873362688   120.14506609   179.99809898
 H     41  40  39     1.092815256158   120.06390851   179.99260087
 H     38  37  34     1.091700980918   119.10198805     0.00000000
 H     42  41  40     1.091812232837   120.45559697   179.98907307
 H     39  38  37     1.092829128288   119.59330257   180.00574758

---------------------------
INTERNAL COORDINATES (A.U.)
---------------------------
 C      0   0   0     0.000000000000     0.00000000     0.00000000
 C      1   0   0     7.834921675860     0.00000000     0.00000000
 C      2   1   0     2.620461239477    64.01014962     0.00000000
 C      3   2   1     2.653693049551   113.82449841     0.00000000
 C      4   3   2     2.671804741569   122.10644590     0.00000000
 C      5   4   3     2.685731147864   120.95979319     0.00000000
 C      2   1   3     2.601981033201    63.37368510   179.98923607
 H      4   3   2     2.062471378263   120.05731728   180.00539417
 H      7   2   1     2.062174168336   121.09620661   179.99007738
 C      3   2   1     2.871314791121   121.82816513   179.98794009
 H     10   3   2     2.089760568006   108.08900499    56.48449439
 H     10   3   2     2.089805629033   108.08460612   303.17114121
 C     10   3   2     2.892632780690   116.42146158   179.83811797
 H     13  10   3     2.090236789488   109.73533569   301.90613090
 H     13  10   3     2.090242871196   109.73464984    58.24805835
 C     13  10   3     2.896777443920   112.75411882   180.06943403
 H     16  13  10     2.090689738367   109.22786508   302.36749664
 H     16  13  10     2.090680547584   109.22448056    57.74912600
 C     16  13  10     2.891940752675   113.15550946   180.05712456
 H     19  16  13     2.086190563624   111.30246727    59.87906130
 H     19  16  13     2.086203110733   111.30140429   300.15662137
 C      6   5   4     2.865966858015   120.01878620   180.00129785
 H     22   6   5     2.090380501548   108.14324354   303.69722281
 H     22   6   5     2.090408766912   108.14174693    56.43553072
 C     22   6   5     2.892627570554   116.79629945   180.06248190
 H     25  22   6     2.090403832734   109.84324450   301.69984038
 H     25  22   6     2.090405417353   109.84347298    58.22702846
 C     25  22   6     2.897160768134   112.66394921   179.96886228
 H     28  25  22     2.090596231618   109.20252292   302.29944746
 H     28  25  22     2.090599705554   109.20325761    57.65518494
 C     28  25  22     2.891760837619   113.17258121   179.97750225
 H     31  28  25     2.086247211616   111.30638950    59.84796489
 H     31  28  25     2.086236395608   111.30700626   300.12319116
 C      1   2   3     2.309349685328   178.26577682     3.78976524
 H     19  16  13     2.082432271199   111.48956474   180.01958550
 H     31  28  25     2.082420320984   111.50425091   179.98461838
 C     34   1   5     2.699651190795   179.85023468   311.81131853
 C     37  34   1     2.668294090901   120.63526075    35.52803593
 C     38  37  34     2.635325897146   120.41664815   180.00209113
 C     39  38  37     2.644429859878   120.39437981     0.00000000
 C     40  39  38     2.644650570723   119.66779362     0.00000000
 C     41  40  39     2.635209958557   120.34187856     0.00000000
 H     40  39  38     2.065231354539   120.14506609   179.99809898
 H     41  40  39     2.065121549109   120.06390851   179.99260087
 H     38  37  34     2.063015874068   119.10198805     0.00000000
 H     42  41  40     2.063226109727   120.45559697   179.98907307
 H     39  38  37     2.065147763637   119.59330257   180.00574758

---------------------
BASIS SET INFORMATION
---------------------
There are 2 groups of distinct atoms

 Group   1 Type C   : 10s5p1d contracted to 6s2p1d pattern {511111/41/1}
 Group   2 Type H   : 6s1p contracted to 4s1p pattern {3111/1}

Atom   0C    basis set group =>   1
Atom   1C    basis set group =>   1
Atom   2C    basis set group =>   1
Atom   3C    basis set group =>   1
Atom   4C    basis set group =>   1
Atom   5C    basis set group =>   1
Atom   6C    basis set group =>   1
Atom   7H    basis set group =>   2
Atom   8H    basis set group =>   2
Atom   9C    basis set group =>   1
Atom  10H    basis set group =>   2
Atom  11H    basis set group =>   2
Atom  12C    basis set group =>   1
Atom  13H    basis set group =>   2
Atom  14H    basis set group =>   2
Atom  15C    basis set group =>   1
Atom  16H    basis set group =>   2
Atom  17H    basis set group =>   2
Atom  18C    basis set group =>   1
Atom  19H    basis set group =>   2
Atom  20H    basis set group =>   2
Atom  21C    basis set group =>   1
Atom  22H    basis set group =>   2
Atom  23H    basis set group =>   2
Atom  24C    basis set group =>   1
Atom  25H    basis set group =>   2
Atom  26H    basis set group =>   2
Atom  27C    basis set group =>   1
Atom  28H    basis set group =>   2
Atom  29H    basis set group =>   2
Atom  30C    basis set group =>   1
Atom  31H    basis set group =>   2
Atom  32H    basis set group =>   2
Atom  33C    basis set group =>   1
Atom  34H    basis set group =>   2
Atom  35H    basis set group =>   2
Atom  36C    basis set group =>   1
Atom  37C    basis set group =>   1
Atom  38C    basis set group =>   1
Atom  39C    basis set group =>   1
Atom  40C    basis set group =>   1
Atom  41C    basis set group =>   1
Atom  42H    basis set group =>   2
Atom  43H    basis set group =>   2
Atom  44H    basis set group =>   2
Atom  45H    basis set group =>   2
Atom  46H    basis set group =>   2
---------------------------------
AUXILIARY/J BASIS SET INFORMATION
---------------------------------
There are 2 groups of distinct atoms

 Group   1 Type C   : 17s13p12d2f contracted to 17s13p12d2f pattern {11111111111111111/1111111111111/111111111111/11}
 Group   2 Type H   : 15s6p1d contracted to 15s6p1d pattern {111111111111111/111111/1}

Atom   0C    basis set group =>   1
Atom   1C    basis set group =>   1
Atom   2C    basis set group =>   1
Atom   3C    basis set group =>   1
Atom   4C    basis set group =>   1
Atom   5C    basis set group =>   1
Atom   6C    basis set group =>   1
Atom   7H    basis set group =>   2
Atom   8H    basis set group =>   2
Atom   9C    basis set group =>   1
Atom  10H    basis set group =>   2
Atom  11H    basis set group =>   2
Atom  12C    basis set group =>   1
Atom  13H    basis set group =>   2
Atom  14H    basis set group =>   2
Atom  15C    basis set group =>   1
Atom  16H    basis set group =>   2
Atom  17H    basis set group =>   2
Atom  18C    basis set group =>   1
Atom  19H    basis set group =>   2
Atom  20H    basis set group =>   2
Atom  21C    basis set group =>   1
Atom  22H    basis set group =>   2
Atom  23H    basis set group =>   2
Atom  24C    basis set group =>   1
Atom  25H    basis set group =>   2
Atom  26H    basis set group =>   2
Atom  27C    basis set group =>   1
Atom  28H    basis set group =>   2
Atom  29H    basis set group =>   2
Atom  30C    basis set group =>   1
Atom  31H    basis set group =>   2
Atom  32H    basis set group =>   2
Atom  33C    basis set group =>   1
Atom  34H    basis set group =>   2
Atom  35H    basis set group =>   2
Atom  36C    basis set group =>   1
Atom  37C    basis set group =>   1
Atom  38C    basis set group =>   1
Atom  39C    basis set group =>   1
Atom  40C    basis set group =>   1
Atom  41C    basis set group =>   1
Atom  42H    basis set group =>   2
Atom  43H    basis set group =>   2
Atom  44H    basis set group =>   2
Atom  45H    basis set group =>   2
Atom  46H    basis set group =>   2
---------------------------------
AUXILIARY/C BASIS SET INFORMATION
---------------------------------
There are 2 groups of distinct atoms

 Group   1 Type C   : 17s13p12d2f contracted to 17s13p12d2f pattern {11111111111111111/1111111111111/111111111111/11}
 Group   2 Type H   : 15s6p1d contracted to 15s6p1d pattern {111111111111111/111111/1}

Atom   0C    basis set group =>   1
Atom   1C    basis set group =>   1
Atom   2C    basis set group =>   1
Atom   3C    basis set group =>   1
Atom   4C    basis set group =>   1
Atom   5C    basis set group =>   1
Atom   6C    basis set group =>   1
Atom   7H    basis set group =>   2
Atom   8H    basis set group =>   2
Atom   9C    basis set group =>   1
Atom  10H    basis set group =>   2
Atom  11H    basis set group =>   2
Atom  12C    basis set group =>   1
Atom  13H    basis set group =>   2
Atom  14H    basis set group =>   2
Atom  15C    basis set group =>   1
Atom  16H    basis set group =>   2
Atom  17H    basis set group =>   2
Atom  18C    basis set group =>   1
Atom  19H    basis set group =>   2
Atom  20H    basis set group =>   2
Atom  21C    basis set group =>   1
Atom  22H    basis set group =>   2
Atom  23H    basis set group =>   2
Atom  24C    basis set group =>   1
Atom  25H    basis set group =>   2
Atom  26H    basis set group =>   2
Atom  27C    basis set group =>   1
Atom  28H    basis set group =>   2
Atom  29H    basis set group =>   2
Atom  30C    basis set group =>   1
Atom  31H    basis set group =>   2
Atom  32H    basis set group =>   2
Atom  33C    basis set group =>   1
Atom  34H    basis set group =>   2
Atom  35H    basis set group =>   2
Atom  36C    basis set group =>   1
Atom  37C    basis set group =>   1
Atom  38C    basis set group =>   1
Atom  39C    basis set group =>   1
Atom  40C    basis set group =>   1
Atom  41C    basis set group =>   1
Atom  42H    basis set group =>   2
Atom  43H    basis set group =>   2
Atom  44H    basis set group =>   2
Atom  45H    basis set group =>   2
Atom  46H    basis set group =>   2
----------------------------------
AUXILIARY/JK BASIS SET INFORMATION
----------------------------------
There are 2 groups of distinct atoms

 Group   1 Type C   : 17s13p12d2f contracted to 17s13p12d2f pattern {11111111111111111/1111111111111/111111111111/11}
 Group   2 Type H   : 15s6p1d contracted to 15s6p1d pattern {111111111111111/111111/1}

Atom   0C    basis set group =>   1
Atom   1C    basis set group =>   1
Atom   2C    basis set group =>   1
Atom   3C    basis set group =>   1
Atom   4C    basis set group =>   1
Atom   5C    basis set group =>   1
Atom   6C    basis set group =>   1
Atom   7H    basis set group =>   2
Atom   8H    basis set group =>   2
Atom   9C    basis set group =>   1
Atom  10H    basis set group =>   2
Atom  11H    basis set group =>   2
Atom  12C    basis set group =>   1
Atom  13H    basis set group =>   2
Atom  14H    basis set group =>   2
Atom  15C    basis set group =>   1
Atom  16H    basis set group =>   2
Atom  17H    basis set group =>   2
Atom  18C    basis set group =>   1
Atom  19H    basis set group =>   2
Atom  20H    basis set group =>   2
Atom  21C    basis set group =>   1
Atom  22H    basis set group =>   2
Atom  23H    basis set group =>   2
Atom  24C    basis set group =>   1
Atom  25H    basis set group =>   2
Atom  26H    basis set group =>   2
Atom  27C    basis set group =>   1
Atom  28H    basis set group =>   2
Atom  29H    basis set group =>   2
Atom  30C    basis set group =>   1
Atom  31H    basis set group =>   2
Atom  32H    basis set group =>   2
Atom  33C    basis set group =>   1
Atom  34H    basis set group =>   2
Atom  35H    basis set group =>   2
Atom  36C    basis set group =>   1
Atom  37C    basis set group =>   1
Atom  38C    basis set group =>   1
Atom  39C    basis set group =>   1
Atom  40C    basis set group =>   1
Atom  41C    basis set group =>   1
Atom  42H    basis set group =>   2
Atom  43H    basis set group =>   2
Atom  44H    basis set group =>   2
Atom  45H    basis set group =>   2
Atom  46H    basis set group =>   2


           ************************************************************
           *        Program running with 16 parallel MPI-processes    *
           *              working on a common directory               *
           ************************************************************
------------------------------------------------------------------------------
                           ORCA GTO INTEGRAL CALCULATION
------------------------------------------------------------------------------

                         BASIS SET STATISTICS AND STARTUP INFO

 # of primitive gaussian shells          ...  527
 # of primitive gaussian functions       ...  885
 # of contracted shells                  ...  323
 # of contracted basis functions         ...  549
 Highest angular momentum                ...    2
 Maximum contraction depth               ...    5
 Integral package used                   ... LIBINT
 Integral threshhold            Thresh   ...  1.000e-10
 Primitive cut-off              TCut     ...  1.000e-11


------------------------------ INTEGRAL EVALUATION ----------------------------


 * One electron integrals 
 Pre-screening matrix                    ... done
 Shell pair data                         ... done (   0.010 sec)



           ************************************************************
           *        Program running with 16 parallel MPI-processes    *
           *              working on a common directory               *
           ************************************************************
-------------------------------------------------------------------------------
                                 ORCA SCF
-------------------------------------------------------------------------------

------------
SCF SETTINGS
------------
Hamiltonian:
 Density Functional     Method          .... DFT(GTOs)
 Exchange Functional    Exchange        .... B88
   X-Alpha parameter    XAlpha          ....  0.666667
   Becke's b parameter  XBeta           ....  0.004200
 Correlation Functional Correlation     .... LYP
 LDA part of GGA corr.  LDAOpt          .... VWN-5
 Gradients option       PostSCFGGA      .... off
 Hybrid DFT is turned on
   Fraction HF Exchange ScalHFX         ....  0.200000
   Scaling of DF-GGA-X  ScalDFX         ....  0.720000
   Scaling of DF-GGA-C  ScalDFC         ....  0.810000
   Scaling of DF-LDA-C  ScalLDAC        ....  1.000000
   Perturbative correction              ....  0.000000
   Density functional embedding theory  .... OFF
   NL short-range parameter             ....  4.800000


General Settings:
 Integral files         IntName         .... EPRII_i
 Hartree-Fock type      HFTyp           .... UHF
 Total Charge           Charge          ....    0
 Multiplicity           Mult            ....    2
 Number of Electrons    NEL             ....  157
 Basis Dimension        Dim             ....  549
 Nuclear Repulsion      ENuc            ....   1524.5171807111 Eh

Convergence Acceleration:
 DIIS                   CNVDIIS         .... on
   Start iteration      DIISMaxIt       ....    12
   Startup error        DIISStart       ....  0.200000
   # of expansion vecs  DIISMaxEq       ....     5
   Bias factor          DIISBfac        ....   1.050
   Max. coefficient     DIISMaxC        ....  10.000
 Newton-Raphson         CNVNR           .... off
 SOSCF                  CNVSOSCF        .... off
 Level Shifting         CNVShift        .... on
   Level shift para.    LevelShift      ....    0.2500
   Turn off err/grad.   ShiftErr        ....    0.0010
 Zerner damping         CNVZerner       .... off
 Static damping         CNVDamp         .... on
   Fraction old density DampFac         ....    0.7000
   Max. Damping (<1)    DampMax         ....    0.9800
   Min. Damping (>=0)   DampMin         ....    0.0000
   Turn off err/grad.   DampErr         ....    0.1000
 Fernandez-Rico         CNVRico         .... off

SCF Procedure:
 Maximum # iterations   MaxIter         ....   125
 SCF integral mode      SCFMode         .... Direct
   Integral package                     .... LIBINT
 Reset frequency        DirectResetFreq ....    20
 Integral Threshold     Thresh          ....  1.000e-10 Eh
 Primitive CutOff       TCut            ....  1.000e-11 Eh

Convergence Tolerance:
 Convergence Check Mode ConvCheckMode   .... Total+1el-Energy
 Convergence forced     ConvForced      .... 0
 Energy Change          TolE            ....  1.000e-06 Eh
 1-El. energy change                    ....  1.000e-03 Eh
 DIIS Error             TolErr          ....  1.000e-06


Diagonalization of the overlap matrix:
Smallest eigenvalue                        ... 7.949e-05
Time for diagonalization                   ...    0.095 sec
Threshold for overlap eigenvalues          ... 1.000e-08
Number of eigenvalues below threshold      ... 0
Time for construction of square roots      ...    0.063 sec
Total time needed                          ...    0.160 sec

-------------------
DFT GRID GENERATION
-------------------

General Integration Accuracy     IntAcc      ...  4.340
Radial Grid Type                 RadialGrid  ... Gauss-Chebyshev
Angular Grid (max. acc.)         AngularGrid ... Lebedev-110
Angular grid pruning method      GridPruning ... 3 (G Style)
Weight generation scheme         WeightScheme... Becke
Basis function cutoff            BFCut       ...    1.0000e-10
Integration weight cutoff        WCut        ...    1.0000e-14
Grids for H and He will be reduced by one unit

# of grid points (after initial pruning)     ...  56282 (   0.0 sec)
# of grid points (after weights+screening)   ...  50314 (   0.1 sec)
nearest neighbour list constructed           ...    0.0 sec
Grid point re-assignment to atoms done       ...    0.0 sec
Grid point division into batches done        ...    0.0 sec
Reduced shell lists constructed in    0.1 sec

Total number of grid points                  ...    50314
Total number of batches                      ...      809
Average number of points per batch           ...       62
Average number of grid points per atom       ...     1071
Average number of shells per batch           ...   120.63 (37.35%)
Average number of basis functions per batch  ...   232.33 (42.32%)
Average number of large shells per batch     ...    82.21 (68.15%)
Average number of large basis fcns per batch ...   158.37 (68.16%)
Maximum spatial batch extension              ...   8.09,  4.79, 40.11 au
Average spatial batch extension              ...   0.13,  0.14,  0.23 au

Time for grid setup =    0.290 sec

------------------------------
INITIAL GUESS: MODEL POTENTIAL
------------------------------
Loading Hartree-Fock densities                     ... done
Calculating cut-offs                               ... done
Setting up the integral package                    ... done
Initializing the effective Hamiltonian             ... done
Starting the Coulomb interaction                   ... done (   0.1 sec)
Reading the grid                                   ... done
Mapping shells                                     ... done
Starting the XC term evaluation                    ... done (   0.2 sec)
  promolecular density results
     # of electrons  =    157.024484220
     EX              =   -120.432898960
     EC              =     -5.156684727
     EX+EC           =   -125.589583687
Transforming the Hamiltonian                       ... done (   0.0 sec)
Diagonalizing the Hamiltonian                      ... done (   0.1 sec)
Back transforming the eigenvectors                 ... done (   0.0 sec)
Now organizing SCF variables                       ... done
                      ------------------
                      INITIAL GUESS DONE (   1.0 sec)
                      ------------------
--------------
SCF ITERATIONS
--------------
ITER       Energy         Delta-E        Max-DP      RMS-DP      [F,P]     Damp
               ***  Starting incremental Fock matrix formation  ***
  0   -852.3209580280   0.000000000000 0.06557892  0.00073529  0.1587229 0.7000
  1   -852.5456724319  -0.224714403883 0.03098519  0.00050582  0.0848981 0.7000
                               ***Turning on DIIS***
  2   -852.6454617891  -0.099789357206 0.06053741  0.00098173  0.0328648 0.0000
  3   -852.7854266603  -0.139964871207 0.03236548  0.00032170  0.0466570 0.0000
  4   -852.8238767213  -0.038450061025 0.03205065  0.00016461  0.0091183 0.0000
  5   -852.8255310407  -0.001654319345 0.01594008  0.00007345  0.0023136 0.0000
  6   -852.8256983505  -0.000167309814 0.01214256  0.00005664  0.0006243 0.0000
  7   -852.8257420688  -0.000043718260 0.00123397  0.00000694  0.0008107 0.0000
  8   -852.8257521038  -0.000010035004 0.00079220  0.00000443  0.0009121 0.0000
  9   -852.8257580804  -0.000005976668 0.00093415  0.00000447  0.0004422 0.0000
 10   -852.8257628705  -0.000004790099 0.00066755  0.00000319  0.0001360 0.0000
 11   -852.8257654455  -0.000002574977 0.00034755  0.00000186  0.0000248 0.0000
 12   -852.8257666520  -0.000001206455 0.00036843  0.00000185  0.0000178 0.0000
                 **** Energy Check signals convergence ****

               *****************************************************
               *                     SUCCESS                       *
               *           SCF CONVERGED AFTER  13 CYCLES          *
               *****************************************************

Setting up the final grid:

General Integration Accuracy     IntAcc      ...  4.670
Radial Grid Type                 RadialGrid  ... Gauss-Chebyshev
Angular Grid (max. acc.)         AngularGrid ... Lebedev-302
Angular grid pruning method      GridPruning ... 3 (G Style)
Weight generation scheme         WeightScheme... Becke
Basis function cutoff            BFCut       ...    1.0000e-10
Integration weight cutoff        WCut        ...    1.0000e-14
Grids for H and He will be reduced by one unit

# of grid points (after initial pruning)     ... 221514 (   0.0 sec)
# of grid points (after weights+screening)   ... 194595 (   0.4 sec)
nearest neighbour list constructed           ...    0.0 sec
Grid point re-assignment to atoms done       ...    0.0 sec
Grid point division into batches done        ...    0.7 sec
Reduced shell lists constructed in    1.0 sec

Total number of grid points                  ...   194595
Total number of batches                      ...     3067
Average number of points per batch           ...       63
Average number of grid points per atom       ...     4140
Average number of shells per batch           ...   114.64 (35.49%)
Average number of basis functions per batch  ...   220.27 (40.12%)
Average number of large shells per batch     ...    77.97 (68.02%)
Average number of large basis fcns per batch ...   150.06 (68.12%)
Maximum spatial batch extension              ...   8.66,  4.00, 16.86 au
Average spatial batch extension              ...   0.09,  0.09,  0.11 au

Final grid set up in    1.5 sec
Final integration                            ... done (   0.7 sec)
Change in XC energy                          ...     0.002742222
Integrated number of electrons               ...   157.000342763
Previous integrated no of electrons          ...   157.024445936

----------------
TOTAL SCF ENERGY
----------------

Total Energy       :         -852.82302532 Eh          -23206.49431 eV

Components:
Nuclear Repulsion  :         1524.51718071 Eh           41484.22150 eV
Electronic Energy  :        -2377.34020604 Eh          -64690.71582 eV
One Electron Energy:        -4176.88608716 Eh         -113658.84874 eV
Two Electron Energy:         1799.54588112 Eh           48968.13292 eV

Virial components:
Potential Energy   :        -1698.82391793 Eh          -46227.34896 eV
Kinetic Energy     :          846.00089260 Eh           23020.85465 eV
Virial Ratio       :            2.00806398


DFT components:
N(Alpha)           :       79.000166762846 electrons
N(Beta)            :       78.000176000653 electrons
N(Total)           :      157.000342763498 electrons
E(X)               :      -97.344226517672 Eh       
E(C)               :       -6.090051964643 Eh       
E(XC)              :     -103.434278482315 Eh       
DFET-embed. en.    :        0.000000000000 Eh       

---------------
SCF CONVERGENCE
---------------

  Last Energy change         ...   -8.9524e-07  Tolerance :   1.0000e-06
  Last MAX-Density change    ...    2.8348e-04  Tolerance :   1.0000e-05
  Last RMS-Density change    ...    1.5739e-06  Tolerance :   1.0000e-06
  Last DIIS Error            ...    1.1584e-05  Tolerance :   1.0000e-06

             **** THE GBW FILE WAS UPDATED (EPRII_i.gbw) ****
             **** DENSITY FILE WAS UPDATED (EPRII_i.scfp) ****
             **** ENERGY FILE WAS UPDATED (EPRII_i.en.tmp) ****
----------------------
UHF SPIN CONTAMINATION
----------------------

Warning: in a DFT calculation there is little theoretical justification to 
         calculate <S**2> as in Hartree-Fock theory. We will do it anyways
         but you should keep in mind that the values have only limited relevance

Expectation value of <S**2>     :     0.758662
Ideal value S*(S+1) for S=0.5   :     0.750000
Deviation                       :     0.008662

             **** THE GBW FILE WAS UPDATED (EPRII_i.gbw) ****
             **** DENSITY FILE WAS UPDATED (EPRII_i.scfp) ****
----------------
ORBITAL ENERGIES
----------------
                 SPIN UP ORBITALS
  NO   OCC          E(Eh)            E(eV) 
   0   1.0000     -10.225093      -278.2389 
   1   1.0000     -10.216703      -278.0106 
   2   1.0000     -10.213500      -277.9235 
   3   1.0000     -10.212893      -277.9069 
   4   1.0000     -10.209584      -277.8169 
   5   1.0000     -10.203167      -277.6423 
   6   1.0000     -10.202993      -277.6376 
   7   1.0000     -10.202810      -277.6326 
   8   1.0000     -10.202292      -277.6185 
   9   1.0000     -10.202081      -277.6127 
  10   1.0000     -10.201216      -277.5892 
  11   1.0000     -10.198990      -277.5286 
  12   1.0000     -10.198688      -277.5204 
  13   1.0000     -10.196391      -277.4579 
  14   1.0000     -10.191467      -277.3239 
  15   1.0000     -10.188365      -277.2395 
  16   1.0000     -10.183848      -277.1166 
  17   1.0000     -10.183581      -277.1093 
  18   1.0000     -10.183554      -277.1086 
  19   1.0000     -10.183328      -277.1024 
  20   1.0000     -10.174213      -276.8544 
  21   1.0000     -10.174181      -276.8535 
  22   1.0000      -0.870225       -23.6800 
  23   1.0000      -0.861054       -23.4305 
  24   1.0000      -0.812379       -22.1060 
  25   1.0000      -0.794111       -21.6088 
  26   1.0000      -0.786986       -21.4150 
  27   1.0000      -0.768974       -20.9249 
  28   1.0000      -0.760016       -20.6811 
  29   1.0000      -0.749185       -20.3864 
  30   1.0000      -0.730723       -19.8840 
  31   1.0000      -0.712946       -19.4002 
  32   1.0000      -0.697204       -18.9719 
  33   1.0000      -0.651639       -17.7320 
  34   1.0000      -0.630814       -17.1653 
  35   1.0000      -0.617037       -16.7904 
  36   1.0000      -0.607681       -16.5359 
  37   1.0000      -0.605685       -16.4815 
  38   1.0000      -0.581699       -15.8288 
  39   1.0000      -0.576532       -15.6882 
  40   1.0000      -0.563033       -15.3209 
  41   1.0000      -0.536000       -14.5853 
  42   1.0000      -0.506617       -13.7858 
  43   1.0000      -0.479213       -13.0401 
  44   1.0000      -0.471175       -12.8213 
  45   1.0000      -0.471047       -12.8178 
  46   1.0000      -0.470149       -12.7934 
  47   1.0000      -0.455009       -12.3814 
  48   1.0000      -0.441383       -12.0106 
  49   1.0000      -0.436045       -11.8654 
  50   1.0000      -0.426930       -11.6174 
  51   1.0000      -0.423393       -11.5211 
  52   1.0000      -0.422911       -11.5080 
  53   1.0000      -0.422395       -11.4939 
  54   1.0000      -0.417078       -11.3493 
  55   1.0000      -0.413270       -11.2456 
  56   1.0000      -0.411542       -11.1986 
  57   1.0000      -0.381042       -10.3687 
  58   1.0000      -0.377670       -10.2769 
  59   1.0000      -0.372444       -10.1347 
  60   1.0000      -0.365386        -9.9427 
  61   1.0000      -0.363973        -9.9042 
  62   1.0000      -0.359394        -9.7796 
  63   1.0000      -0.356959        -9.7134 
  64   1.0000      -0.349740        -9.5169 
  65   1.0000      -0.341237        -9.2855 
  66   1.0000      -0.333018        -9.0619 
  67   1.0000      -0.331361        -9.0168 
  68   1.0000      -0.326426        -8.8825 
  69   1.0000      -0.324382        -8.8269 
  70   1.0000      -0.322508        -8.7759 
  71   1.0000      -0.321747        -8.7552 
  72   1.0000      -0.312602        -8.5063 
  73   1.0000      -0.268588        -7.3087 
  74   1.0000      -0.266538        -7.2529 
  75   1.0000      -0.257097        -6.9960 
  76   1.0000      -0.242306        -6.5935 
  77   1.0000      -0.237205        -6.4547 
  78   1.0000      -0.209990        -5.7141 
  79   0.0000      -0.051638        -1.4051 
  80   0.0000      -0.012364        -0.3364 
  81   0.0000      -0.005376        -0.1463 
  82   0.0000       0.003262         0.0888 
  83   0.0000       0.016565         0.4508 
  84   0.0000       0.022085         0.6010 
  85   0.0000       0.023192         0.6311 
  86   0.0000       0.033676         0.9164 
  87   0.0000       0.034698         0.9442 
  88   0.0000       0.036917         1.0046 
  89   0.0000       0.045480         1.2376 
  90   0.0000       0.048354         1.3158 
  91   0.0000       0.056719         1.5434 
  92   0.0000       0.061271         1.6673 
  93   0.0000       0.067213         1.8290 
  94   0.0000       0.071329         1.9410 
  95   0.0000       0.078195         2.1278 
  96   0.0000       0.086017         2.3406 
  97   0.0000       0.092282         2.5111 
  98   0.0000       0.094396         2.5686 
  99   0.0000       0.100744         2.7414 
 100   0.0000       0.107251         2.9184 
 101   0.0000       0.117807         3.2057 
 102   0.0000       0.128518         3.4972 
 103   0.0000       0.137980         3.7546 
 104   0.0000       0.139346         3.7918 
 105   0.0000       0.151206         4.1145 
 106   0.0000       0.161223         4.3871 
 107   0.0000       0.168596         4.5877 
 108   0.0000       0.172155         4.6846 
 109   0.0000       0.176767         4.8101 
 110   0.0000       0.179899         4.8953 
 111   0.0000       0.190935         5.1956 
 112   0.0000       0.191808         5.2194 
 113   0.0000       0.193109         5.2548 
 114   0.0000       0.197194         5.3659 
 115   0.0000       0.200235         5.4487 
 116   0.0000       0.200404         5.4533 
 117   0.0000       0.207985         5.6596 
 118   0.0000       0.209680         5.7057 
 119   0.0000       0.215228         5.8567 
 120   0.0000       0.221232         6.0200 
 121   0.0000       0.222612         6.0576 
 122   0.0000       0.225415         6.1339 
 123   0.0000       0.231916         6.3108 
 124   0.0000       0.236175         6.4266 
 125   0.0000       0.240361         6.5405 
 126   0.0000       0.246356         6.7037 
 127   0.0000       0.251308         6.8384 
 128   0.0000       0.254397         6.9225 
 129   0.0000       0.255297         6.9470 
 130   0.0000       0.257545         7.0081 
 131   0.0000       0.259869         7.0714 
 132   0.0000       0.268574         7.3083 
 133   0.0000       0.274698         7.4749 
 134   0.0000       0.275518         7.4972 
 135   0.0000       0.275844         7.5061 
 136   0.0000       0.280776         7.6403 
 137   0.0000       0.283214         7.7066 
 138   0.0000       0.284975         7.7546 
 139   0.0000       0.291491         7.9319 
 140   0.0000       0.294479         8.0132 
 141   0.0000       0.294971         8.0266 
 142   0.0000       0.301459         8.2031 
 143   0.0000       0.303103         8.2478 
 144   0.0000       0.308585         8.3970 
 145   0.0000       0.309553         8.4234 
 146   0.0000       0.310861         8.4590 
 147   0.0000       0.315214         8.5774 
 148   0.0000       0.318839         8.6760 
 149   0.0000       0.319196         8.6858 
 150   0.0000       0.322492         8.7754 
 151   0.0000       0.329609         8.9691 
 152   0.0000       0.329912         8.9774 
 153   0.0000       0.335152         9.1199 
 154   0.0000       0.344288         9.3685 
 155   0.0000       0.346717         9.4346 
 156   0.0000       0.347277         9.4499 
 157   0.0000       0.351510         9.5651 
 158   0.0000       0.356186         9.6923 
 159   0.0000       0.367591        10.0026 
 160   0.0000       0.369260        10.0481 
 161   0.0000       0.375991        10.2312 
 162   0.0000       0.376344        10.2409 
 163   0.0000       0.380062        10.3420 
 164   0.0000       0.387494        10.5442 
 165   0.0000       0.395786        10.7699 
 166   0.0000       0.401679        10.9302 
 167   0.0000       0.407336        11.0842 
 168   0.0000       0.413839        11.2611 
 169   0.0000       0.415318        11.3014 
 170   0.0000       0.419687        11.4203 
 171   0.0000       0.421800        11.4778 
 172   0.0000       0.430488        11.7142 
 173   0.0000       0.432844        11.7783 
 174   0.0000       0.434257        11.8167 
 175   0.0000       0.439792        11.9673 
 176   0.0000       0.448797        12.2124 
 177   0.0000       0.451957        12.2984 
 178   0.0000       0.455924        12.4063 
 179   0.0000       0.456730        12.4282 
 180   0.0000       0.462006        12.5718 
 181   0.0000       0.467419        12.7191 
 182   0.0000       0.470723        12.8090 
 183   0.0000       0.473336        12.8801 
 184   0.0000       0.481349        13.0982 
 185   0.0000       0.482847        13.1389 
 186   0.0000       0.493086        13.4175 
 187   0.0000       0.500215        13.6115 
 188   0.0000       0.503246        13.6940 
 189   0.0000       0.516809        14.0631 
 190   0.0000       0.519553        14.1378 
 191   0.0000       0.520651        14.1676 
 192   0.0000       0.524408        14.2699 
 193   0.0000       0.535263        14.5653 
 194   0.0000       0.539476        14.6799 
 195   0.0000       0.545727        14.8500 
 196   0.0000       0.560022        15.2390 
 197   0.0000       0.560235        15.2448 
 198   0.0000       0.561485        15.2788 
 199   0.0000       0.566835        15.4244 
 200   0.0000       0.582372        15.8471 
 201   0.0000       0.592635        16.1264 
 202   0.0000       0.598918        16.2974 
 203   0.0000       0.599997        16.3267 
 204   0.0000       0.612152        16.6575 
 205   0.0000       0.627834        17.0842 
 206   0.0000       0.638843        17.3838 
 207   0.0000       0.642074        17.4717 
 208   0.0000       0.658058        17.9067 
 209   0.0000       0.659277        17.9398 
 210   0.0000       0.670246        18.2383 
 211   0.0000       0.672582        18.3019 
 212   0.0000       0.685663        18.6578 
 213   0.0000       0.693932        18.8829 
 214   0.0000       0.695201        18.9174 
 215   0.0000       0.714862        19.4524 
 216   0.0000       0.729079        19.8392 
 217   0.0000       0.755020        20.5451 
 218   0.0000       0.760265        20.6879 
 219   0.0000       0.764233        20.7958 
 220   0.0000       0.775430        21.1005 
 221   0.0000       0.782867        21.3029 
 222   0.0000       0.815147        22.1813 
 223   0.0000       0.832998        22.6670 
 224   0.0000       0.834309        22.7027 
 225   0.0000       0.843797        22.9609 
 226   0.0000       0.844594        22.9826 
 227   0.0000       0.848010        23.0755 
 228   0.0000       0.853088        23.2137 
 229   0.0000       0.865435        23.5497 
 230   0.0000       0.866965        23.5913 
 231   0.0000       0.867470        23.6051 
 232   0.0000       0.879190        23.9240 
 233   0.0000       0.892158        24.2769 
 234   0.0000       0.894668        24.3451 
 235   0.0000       0.896577        24.3971 
 236   0.0000       0.902440        24.5567 
 237   0.0000       0.904458        24.6116 
 238   0.0000       0.917930        24.9781 
 239   0.0000       0.920638        25.0518 
 240   0.0000       0.924033        25.1442 
 241   0.0000       0.926095        25.2003 
 242   0.0000       0.928456        25.2646 
 243   0.0000       0.932663        25.3791 
 244   0.0000       0.935598        25.4589 
 245   0.0000       0.936751        25.4903 
 246   0.0000       0.947727        25.7890 
 247   0.0000       0.950608        25.8674 
 248   0.0000       0.956887        26.0382 
 249   0.0000       0.969288        26.3757 
 250   0.0000       0.974396        26.5147 
 251   0.0000       0.979237        26.6464 
 252   0.0000       0.983950        26.7747 
 253   0.0000       0.984635        26.7933 
 254   0.0000       0.993987        27.0478 
 255   0.0000       0.996617        27.1193 
 256   0.0000       1.000253        27.2183 
 257   0.0000       1.004449        27.3324 
 258   0.0000       1.016190        27.6519 
 259   0.0000       1.016403        27.6577 
 260   0.0000       1.022354        27.8197 
 261   0.0000       1.026417        27.9302 
 262   0.0000       1.035971        28.1902 
 263   0.0000       1.043117        28.3847 
 264   0.0000       1.047473        28.5032 
 265   0.0000       1.055054        28.7095 
 266   0.0000       1.060940        28.8696 
 267   0.0000       1.067330        29.0435 
 268   0.0000       1.072748        29.1909 
 269   0.0000       1.090981        29.6871 
 270   0.0000       1.098634        29.8953 
 271   0.0000       1.100343        29.9419 
 272   0.0000       1.101695        29.9787 
 273   0.0000       1.114442        30.3255 
 274   0.0000       1.117466        30.4078 
 275   0.0000       1.124043        30.5868 
 276   0.0000       1.134427        30.8693 
 277   0.0000       1.146097        31.1869 
 278   0.0000       1.161569        31.6079 
 279   0.0000       1.169449        31.8223 
 280   0.0000       1.173539        31.9336 
 281   0.0000       1.176821        32.0229 
 282   0.0000       1.180680        32.1279 
 283   0.0000       1.200375        32.6639 
 284   0.0000       1.203903        32.7599 
 285   0.0000       1.204492        32.7759 
 286   0.0000       1.204679        32.7810 
 287   0.0000       1.232660        33.5424 
 288   0.0000       1.238629        33.7048 
 289   0.0000       1.254414        34.1343 
 290   0.0000       1.259300        34.2673 
 291   0.0000       1.276270        34.7291 
 292   0.0000       1.289624        35.0924 
 293   0.0000       1.295705        35.2579 
 294   0.0000       1.307966        35.5916 
 295   0.0000       1.316079        35.8123 
 296   0.0000       1.322622        35.9904 
 297   0.0000       1.328399        36.1476 
 298   0.0000       1.337100        36.3843 
 299   0.0000       1.357735        36.9459 
 300   0.0000       1.363789        37.1106 
 301   0.0000       1.382249        37.6129 
 302   0.0000       1.384580        37.6763 
 303   0.0000       1.390165        37.8283 
 304   0.0000       1.400016        38.0964 
 305   0.0000       1.410583        38.3839 
 306   0.0000       1.421744        38.6876 
 307   0.0000       1.425410        38.7874 
 308   0.0000       1.426310        38.8119 
 309   0.0000       1.441703        39.2307 
 310   0.0000       1.443805        39.2879 
 311   0.0000       1.450275        39.4640 
 312   0.0000       1.453565        39.5535 
 313   0.0000       1.454916        39.5903 
 314   0.0000       1.475037        40.1378 
 315   0.0000       1.482548        40.3422 
 316   0.0000       1.500536        40.8316 
 317   0.0000       1.505499        40.9667 
 318   0.0000       1.513863        41.1943 
 319   0.0000       1.515869        41.2489 
 320   0.0000       1.518559        41.3221 
 321   0.0000       1.524437        41.4820 
 322   0.0000       1.533465        41.7277 
 323   0.0000       1.550616        42.1944 
 324   0.0000       1.556400        42.3518 
 325   0.0000       1.560060        42.4514 
 326   0.0000       1.563243        42.5380 
 327   0.0000       1.568646        42.6850 
 328   0.0000       1.573743        42.8237 
 329   0.0000       1.581219        43.0272 
 330   0.0000       1.583193        43.0809 
 331   0.0000       1.589391        43.2495 
 332   0.0000       1.597060        43.4582 
 333   0.0000       1.599563        43.5263 
 334   0.0000       1.608012        43.7562 
 335   0.0000       1.619748        44.0756 
 336   0.0000       1.621937        44.1351 
 337   0.0000       1.624503        44.2050 
 338   0.0000       1.632305        44.4173 
 339   0.0000       1.637746        44.5653 
 340   0.0000       1.638684        44.5909 
 341   0.0000       1.643362        44.7182 
 342   0.0000       1.648464        44.8570 
 343   0.0000       1.659476        45.1567 
 344   0.0000       1.668276        45.3961 
 345   0.0000       1.678761        45.6814 
 346   0.0000       1.680238        45.7216 
 347   0.0000       1.685346        45.8606 
 348   0.0000       1.694689        46.1148 
 349   0.0000       1.699925        46.2573 
 350   0.0000       1.707518        46.4639 
 351   0.0000       1.708328        46.4860 
 352   0.0000       1.717026        46.7227 
 353   0.0000       1.723722        46.9048 
 354   0.0000       1.729213        47.0543 
 355   0.0000       1.734129        47.1880 
 356   0.0000       1.749140        47.5965 
 357   0.0000       1.757801        47.8322 
 358   0.0000       1.758673        47.8559 
 359   0.0000       1.772237        48.2250 
 360   0.0000       1.774554        48.2881 
 361   0.0000       1.776987        48.3543 
 362   0.0000       1.778613        48.3985 
 363   0.0000       1.786492        48.6129 
 364   0.0000       1.796726        48.8914 
 365   0.0000       1.805951        49.1424 
 366   0.0000       1.815921        49.4137 
 367   0.0000       1.816508        49.4297 
 368   0.0000       1.835246        49.9396 
 369   0.0000       1.843213        50.1564 
 370   0.0000       1.843434        50.1624 
 371   0.0000       1.855465        50.4898 
 372   0.0000       1.856794        50.5259 
 373   0.0000       1.864823        50.7444 
 374   0.0000       1.892409        51.4951 
 375   0.0000       1.904527        51.8248 
 376   0.0000       1.915598        52.1261 
 377   0.0000       1.928192        52.4688 
 378   0.0000       1.934337        52.6360 
 379   0.0000       1.942624        52.8615 
 380   0.0000       1.946592        52.9695 
 381   0.0000       1.953757        53.1644 
 382   0.0000       1.961498        53.3751 
 383   0.0000       1.976456        53.7821 
 384   0.0000       1.997026        54.3418 
 385   0.0000       2.025000        55.1030 
 386   0.0000       2.029015        55.2123 
 387   0.0000       2.030824        55.2615 
 388   0.0000       2.041000        55.5384 
 389   0.0000       2.043469        55.6056 
 390   0.0000       2.068535        56.2877 
 391   0.0000       2.071726        56.3745 
 392   0.0000       2.104540        57.2675 
 393   0.0000       2.116010        57.5796 
 394   0.0000       2.137808        58.1727 
 395   0.0000       2.139829        58.2277 
 396   0.0000       2.151176        58.5365 
 397   0.0000       2.156757        58.6883 
 398   0.0000       2.198761        59.8313 
 399   0.0000       2.203286        59.9545 
 400   0.0000       2.215590        60.2893 
 401   0.0000       2.223194        60.4962 
 402   0.0000       2.232408        60.7469 
 403   0.0000       2.250595        61.2418 
 404   0.0000       2.250971        61.2520 
 405   0.0000       2.254808        61.3564 
 406   0.0000       2.263786        61.6008 
 407   0.0000       2.287711        62.2518 
 408   0.0000       2.305693        62.7411 
 409   0.0000       2.313802        62.9618 
 410   0.0000       2.315718        63.0139 
 411   0.0000       2.318362        63.0858 
 412   0.0000       2.319860        63.1266 
 413   0.0000       2.344841        63.8064 
 414   0.0000       2.350645        63.9643 
 415   0.0000       2.375888        64.6512 
 416   0.0000       2.397754        65.2462 
 417   0.0000       2.403964        65.4152 
 418   0.0000       2.412765        65.6547 
 419   0.0000       2.415786        65.7369 
 420   0.0000       2.417237        65.7764 
 421   0.0000       2.426415        66.0261 
 422   0.0000       2.444414        66.5159 
 423   0.0000       2.453068        66.7514 
 424   0.0000       2.457055        66.8599 
 425   0.0000       2.462686        67.0131 
 426   0.0000       2.468350        67.1672 
 427   0.0000       2.472662        67.2846 
 428   0.0000       2.477642        67.4201 
 429   0.0000       2.493147        67.8420 
 430   0.0000       2.512186        68.3601 
 431   0.0000       2.515811        68.4587 
 432   0.0000       2.520441        68.5847 
 433   0.0000       2.532146        68.9032 
 434   0.0000       2.534219        68.9596 
 435   0.0000       2.548446        69.3467 
 436   0.0000       2.556256        69.5593 
 437   0.0000       2.568350        69.8883 
 438   0.0000       2.571254        69.9674 
 439   0.0000       2.586159        70.3730 
 440   0.0000       2.609743        71.0147 
 441   0.0000       2.610832        71.0443 
 442   0.0000       2.614077        71.1326 
 443   0.0000       2.617740        71.2323 
 444   0.0000       2.630243        71.5726 
 445   0.0000       2.649964        72.1092 
 446   0.0000       2.721535        74.0567 
 447   0.0000       2.732514        74.3555 
 448   0.0000       2.780295        75.6557 
 449   0.0000       2.797015        76.1107 
 450   0.0000       2.805243        76.3346 
 451   0.0000       2.937709        79.9391 
 452   0.0000       3.059158        83.2439 
 453   0.0000       3.184763        86.6618 
 454   0.0000       3.433283        93.4244 
 455   0.0000       4.983061       135.5960 
 456   0.0000       4.983935       135.6198 
 457   0.0000       5.006238       136.2267 
 458   0.0000       5.008447       136.2868 
 459   0.0000       5.009834       136.3245 
 460   0.0000       5.011173       136.3610 
 461   0.0000       5.021540       136.6431 
 462   0.0000       5.031709       136.9198 
 463   0.0000       5.034248       136.9888 
 464   0.0000       5.043811       137.2491 
 465   0.0000       5.047567       137.3513 
 466   0.0000       5.092184       138.5654 
 467   0.0000       5.099060       138.7525 
 468   0.0000       5.181113       140.9853 
 469   0.0000       5.199337       141.4812 
 470   0.0000       5.218710       142.0083 
 471   0.0000       5.232643       142.3874 
 472   0.0000       5.250070       142.8617 
 473   0.0000       5.255153       143.0000 
 474   0.0000       5.269129       143.3803 
 475   0.0000       5.285297       143.8202 
 476   0.0000       5.293473       144.0427 
 477   0.0000       5.298402       144.1769 
 478   0.0000       5.307976       144.4374 
 479   0.0000       5.311553       144.5347 
 480   0.0000       5.349599       145.5700 
 481   0.0000       5.372245       146.1862 
 482   0.0000       5.372850       146.2027 
 483   0.0000       5.413856       147.3185 
 484   0.0000       5.440564       148.0453 
 485   0.0000       5.445693       148.1849 
 486   0.0000       5.482004       149.1729 
 487   0.0000       5.495946       149.5523 
 488   0.0000       5.545322       150.8959 
 489   0.0000       5.586725       152.0225 
 490   0.0000       5.597852       152.3253 
 491   0.0000       5.627400       153.1293 
 492   0.0000       5.661138       154.0474 
 493   0.0000       5.679609       154.5500 
 494   0.0000       5.732554       155.9907 
 495   0.0000       5.748370       156.4211 
 496   0.0000       5.813954       158.2057 
 497   0.0000       5.854539       159.3101 
 498   0.0000       5.876098       159.8967 
 499   0.0000       5.909894       160.8164 
 500   0.0000       6.134060       166.9163 
 501   0.0000       6.310135       171.7075 
 502   0.0000      29.606608       805.6368 
 503   0.0000      29.735578       809.1462 
 504   0.0000      29.793003       810.7088 
 505   0.0000      29.828736       811.6812 
 506   0.0000      29.841769       812.0358 
 507   0.0000      29.860794       812.5535 
 508   0.0000      29.931818       814.4862 
 509   0.0000      29.958117       815.2018 
 510   0.0000      29.986150       815.9646 
 511   0.0000      29.999340       816.3235 
 512   0.0000      30.044487       817.5521 
 513   0.0000      30.078385       818.4745 
 514   0.0000      30.088305       818.7444 
 515   0.0000      30.115030       819.4716 
 516   0.0000      30.134468       820.0006 
 517   0.0000      30.170724       820.9871 
 518   0.0000      30.234812       822.7311 
 519   0.0000      30.255123       823.2838 
 520   0.0000      30.276546       823.8667 
 521   0.0000      30.295626       824.3859 
 522   0.0000      30.450134       828.5903 
 523   0.0000      30.533242       830.8518 
 524   0.0000      36.611554       996.2510 
 525   0.0000      36.612177       996.2680 
 526   0.0000      36.626371       996.6542 
 527   0.0000      36.629180       996.7307 
 528   0.0000      36.634403       996.8728 
 529   0.0000      36.637710       996.9628 
 530   0.0000      36.657424       997.4992 
 531   0.0000      36.661305       997.6048 
 532   0.0000      36.669491       997.8276 
 533   0.0000      36.672453       997.9082 
 534   0.0000      36.705256       998.8008 
 535   0.0000      36.720072       999.2039 
 536   0.0000      36.789959      1001.1057 
 537   0.0000      36.812456      1001.7178 
 538   0.0000      36.828051      1002.1422 
 539   0.0000      36.848513      1002.6990 
 540   0.0000      36.863876      1003.1171 
 541   0.0000      36.873463      1003.3779 
 542   0.0000      36.880291      1003.5637 
 543   0.0000      36.901574      1004.1429 
 544   0.0000      36.928831      1004.8846 
 545   0.0000      36.933830      1005.0206 
 546   0.0000      36.985871      1006.4367 
 547   0.0000      37.011212      1007.1263 
 548   0.0000      37.043937      1008.0168 

                 SPIN DOWN ORBITALS
  NO   OCC          E(Eh)            E(eV) 
   0   1.0000     -10.225048      -278.2377 
   1   1.0000     -10.217232      -278.0250 
   2   1.0000     -10.211600      -277.8718 
   3   1.0000     -10.209605      -277.8175 
   4   1.0000     -10.203198      -277.6431 
   5   1.0000     -10.203033      -277.6386 
   6   1.0000     -10.202857      -277.6339 
   7   1.0000     -10.202287      -277.6183 
   8   1.0000     -10.202080      -277.6127 
   9   1.0000     -10.200072      -277.5581 
  10   1.0000     -10.199263      -277.5361 
  11   1.0000     -10.198662      -277.5197 
  12   1.0000     -10.198350      -277.5112 
  13   1.0000     -10.196477      -277.4602 
  14   1.0000     -10.191013      -277.3116 
  15   1.0000     -10.188227      -277.2357 
  16   1.0000     -10.183845      -277.1165 
  17   1.0000     -10.183574      -277.1091 
  18   1.0000     -10.183546      -277.1084 
  19   1.0000     -10.183319      -277.1022 
  20   1.0000     -10.174209      -276.8543 
  21   1.0000     -10.174181      -276.8535 
  22   1.0000      -0.864627       -23.5277 
  23   1.0000      -0.860695       -23.4207 
  24   1.0000      -0.810555       -22.0563 
  25   1.0000      -0.793970       -21.6050 
  26   1.0000      -0.784794       -21.3553 
  27   1.0000      -0.766931       -20.8692 
  28   1.0000      -0.756261       -20.5789 
  29   1.0000      -0.749239       -20.3878 
  30   1.0000      -0.728903       -19.8345 
  31   1.0000      -0.710399       -19.3309 
  32   1.0000      -0.695296       -18.9200 
  33   1.0000      -0.650468       -17.7001 
  34   1.0000      -0.628850       -17.1119 
  35   1.0000      -0.615021       -16.7356 
  36   1.0000      -0.607688       -16.5360 
  37   1.0000      -0.600685       -16.3455 
  38   1.0000      -0.579975       -15.7819 
  39   1.0000      -0.571757       -15.5583 
  40   1.0000      -0.560928       -15.2636 
  41   1.0000      -0.535249       -14.5649 
  42   1.0000      -0.505125       -13.7451 
  43   1.0000      -0.478791       -13.0286 
  44   1.0000      -0.471073       -12.8186 
  45   1.0000      -0.470077       -12.7914 
  46   1.0000      -0.466026       -12.6812 
  47   1.0000      -0.454937       -12.3795 
  48   1.0000      -0.435876       -11.8608 
  49   1.0000      -0.433966       -11.8088 
  50   1.0000      -0.424598       -11.5539 
  51   1.0000      -0.423359       -11.5202 
  52   1.0000      -0.421943       -11.4816 
  53   1.0000      -0.421403       -11.4670 
  54   1.0000      -0.416969       -11.3463 
  55   1.0000      -0.411405       -11.1949 
  56   1.0000      -0.406639       -11.0652 
  57   1.0000      -0.381091       -10.3700 
  58   1.0000      -0.373792       -10.1714 
  59   1.0000      -0.371477       -10.1084 
  60   1.0000      -0.364357        -9.9146 
  61   1.0000      -0.361474        -9.8362 
  62   1.0000      -0.358630        -9.7588 
  63   1.0000      -0.356767        -9.7081 
  64   1.0000      -0.349740        -9.5169 
  65   1.0000      -0.340777        -9.2730 
  66   1.0000      -0.332387        -9.0447 
  67   1.0000      -0.330117        -8.9829 
  68   1.0000      -0.325850        -8.8668 
  69   1.0000      -0.324127        -8.8199 
  70   1.0000      -0.322433        -8.7738 
  71   1.0000      -0.320080        -8.7098 
  72   1.0000      -0.310977        -8.4621 
  73   1.0000      -0.266264        -7.2454 
  74   1.0000      -0.265564        -7.2264 
  75   1.0000      -0.257252        -7.0002 
  76   1.0000      -0.242390        -6.5958 
  77   1.0000      -0.206352        -5.6151 
  78   0.0000      -0.083875        -2.2823 
  79   0.0000      -0.047643        -1.2964 
  80   0.0000      -0.012494        -0.3400 
  81   0.0000      -0.005701        -0.1551 
  82   0.0000       0.007945         0.2162 
  83   0.0000       0.016641         0.4528 
  84   0.0000       0.022126         0.6021 
  85   0.0000       0.023514         0.6398 
  86   0.0000       0.034680         0.9437 
  87   0.0000       0.035859         0.9758 
  88   0.0000       0.036953         1.0055 
  89   0.0000       0.045463         1.2371 
  90   0.0000       0.048525         1.3204 
  91   0.0000       0.056741         1.5440 
  92   0.0000       0.061435         1.6717 
  93   0.0000       0.069421         1.8890 
  94   0.0000       0.073317         1.9951 
  95   0.0000       0.078393         2.1332 
  96   0.0000       0.086005         2.3403 
  97   0.0000       0.092288         2.5113 
  98   0.0000       0.097620         2.6564 
  99   0.0000       0.100560         2.7364 
 100   0.0000       0.108109         2.9418 
 101   0.0000       0.118888         3.2351 
 102   0.0000       0.128974         3.5096 
 103   0.0000       0.141194         3.8421 
 104   0.0000       0.141391         3.8475 
 105   0.0000       0.151816         4.1311 
 106   0.0000       0.162779         4.4294 
 107   0.0000       0.169088         4.6011 
 108   0.0000       0.172078         4.6825 
 109   0.0000       0.176790         4.8107 
 110   0.0000       0.180051         4.8994 
 111   0.0000       0.192079         5.2267 
 112   0.0000       0.192497         5.2381 
 113   0.0000       0.193805         5.2737 
 114   0.0000       0.197442         5.3727 
 115   0.0000       0.200462         5.4549 
 116   0.0000       0.200841         5.4652 
 117   0.0000       0.209260         5.6943 
 118   0.0000       0.210099         5.7171 
 119   0.0000       0.215185         5.8555 
 120   0.0000       0.222628         6.0580 
 121   0.0000       0.222809         6.0629 
 122   0.0000       0.225599         6.1389 
 123   0.0000       0.233024         6.3409 
 124   0.0000       0.236479         6.4349 
 125   0.0000       0.241842         6.5809 
 126   0.0000       0.246468         6.7067 
 127   0.0000       0.251538         6.8447 
 128   0.0000       0.254536         6.9263 
 129   0.0000       0.255800         6.9607 
 130   0.0000       0.258927         7.0458 
 131   0.0000       0.260889         7.0991 
 132   0.0000       0.268838         7.3155 
 133   0.0000       0.274988         7.4828 
 134   0.0000       0.276149         7.5144 
 135   0.0000       0.276467         7.5230 
 136   0.0000       0.280889         7.6434 
 137   0.0000       0.284579         7.7438 
 138   0.0000       0.285786         7.7766 
 139   0.0000       0.291869         7.9422 
 140   0.0000       0.294530         8.0146 
 141   0.0000       0.295920         8.0524 
 142   0.0000       0.301948         8.2164 
 143   0.0000       0.304832         8.2949 
 144   0.0000       0.308624         8.3981 
 145   0.0000       0.310392         8.4462 
 146   0.0000       0.311560         8.4780 
 147   0.0000       0.315687         8.5903 
 148   0.0000       0.319128         8.6839 
 149   0.0000       0.320211         8.7134 
 150   0.0000       0.322847         8.7851 
 151   0.0000       0.330981         9.0065 
 152   0.0000       0.331630         9.0241 
 153   0.0000       0.335564         9.1312 
 154   0.0000       0.344187         9.3658 
 155   0.0000       0.347189         9.4475 
 156   0.0000       0.348799         9.4913 
 157   0.0000       0.354278         9.6404 
 158   0.0000       0.357723         9.7341 
 159   0.0000       0.370256        10.0752 
 160   0.0000       0.371040        10.0965 
 161   0.0000       0.376437        10.2434 
 162   0.0000       0.376635        10.2488 
 163   0.0000       0.380875        10.3641 
 164   0.0000       0.389739        10.6053 
 165   0.0000       0.397639        10.8203 
 166   0.0000       0.402553        10.9540 
 167   0.0000       0.409164        11.1339 
 168   0.0000       0.415437        11.3046 
 169   0.0000       0.416511        11.3338 
 170   0.0000       0.420637        11.4461 
 171   0.0000       0.421832        11.4786 
 172   0.0000       0.431747        11.7484 
 173   0.0000       0.432816        11.7775 
 174   0.0000       0.436967        11.8905 
 175   0.0000       0.446190        12.1414 
 176   0.0000       0.450273        12.2526 
 177   0.0000       0.455380        12.3915 
 178   0.0000       0.455610        12.3978 
 179   0.0000       0.461135        12.5481 
 180   0.0000       0.465006        12.6535 
 181   0.0000       0.470628        12.8064 
 182   0.0000       0.471906        12.8412 
 183   0.0000       0.476297        12.9607 
 184   0.0000       0.482143        13.1198 
 185   0.0000       0.485641        13.2150 
 186   0.0000       0.494020        13.4430 
 187   0.0000       0.501419        13.6443 
 188   0.0000       0.503312        13.6958 
 189   0.0000       0.518619        14.1123 
 190   0.0000       0.522525        14.2186 
 191   0.0000       0.523633        14.2488 
 192   0.0000       0.525033        14.2869 
 193   0.0000       0.536142        14.5892 
 194   0.0000       0.540621        14.7110 
 195   0.0000       0.546516        14.8715 
 196   0.0000       0.560540        15.2531 
 197   0.0000       0.561929        15.2909 
 198   0.0000       0.563658        15.3379 
 199   0.0000       0.567973        15.4553 
 200   0.0000       0.583053        15.8657 
 201   0.0000       0.594950        16.1894 
 202   0.0000       0.599153        16.3038 
 203   0.0000       0.601115        16.3572 
 204   0.0000       0.614077        16.7099 
 205   0.0000       0.631979        17.1970 
 206   0.0000       0.641289        17.4503 
 207   0.0000       0.645448        17.5635 
 208   0.0000       0.657713        17.8973 
 209   0.0000       0.661120        17.9900 
 210   0.0000       0.671060        18.2605 
 211   0.0000       0.673518        18.3274 
 212   0.0000       0.689021        18.7492 
 213   0.0000       0.698122        18.9969 
 214   0.0000       0.700982        19.0747 
 215   0.0000       0.717956        19.5366 
 216   0.0000       0.729295        19.8451 
 217   0.0000       0.755789        20.5661 
 218   0.0000       0.761264        20.7150 
 219   0.0000       0.764225        20.7956 
 220   0.0000       0.775528        21.1032 
 221   0.0000       0.786298        21.3962 
 222   0.0000       0.815346        22.1867 
 223   0.0000       0.833508        22.6809 
 224   0.0000       0.835221        22.7275 
 225   0.0000       0.844122        22.9697 
 226   0.0000       0.844732        22.9863 
 227   0.0000       0.848458        23.0877 
 228   0.0000       0.853364        23.2212 
 229   0.0000       0.865586        23.5538 
 230   0.0000       0.867319        23.6010 
 231   0.0000       0.868256        23.6265 
 232   0.0000       0.879308        23.9272 
 233   0.0000       0.892373        24.2827 
 234   0.0000       0.896854        24.4046 
 235   0.0000       0.897537        24.4232 
 236   0.0000       0.904380        24.6094 
 237   0.0000       0.904832        24.6217 
 238   0.0000       0.918405        24.9911 
 239   0.0000       0.922618        25.1057 
 240   0.0000       0.925255        25.1775 
 241   0.0000       0.926797        25.2194 
 242   0.0000       0.929306        25.2877 
 243   0.0000       0.933265        25.3954 
 244   0.0000       0.937716        25.5165 
 245   0.0000       0.938085        25.5266 
 246   0.0000       0.948317        25.8050 
 247   0.0000       0.951487        25.8913 
 248   0.0000       0.957826        26.0638 
 249   0.0000       0.970671        26.4133 
 250   0.0000       0.974742        26.5241 
 251   0.0000       0.979583        26.6558 
 252   0.0000       0.984071        26.7779 
 253   0.0000       0.985221        26.8092 
 254   0.0000       0.994241        27.0547 
 255   0.0000       0.996771        27.1235 
 256   0.0000       1.000248        27.2181 
 257   0.0000       1.004959        27.3463 
 258   0.0000       1.017961        27.7001 
 259   0.0000       1.018003        27.7013 
 260   0.0000       1.023079        27.8394 
 261   0.0000       1.026602        27.9353 
 262   0.0000       1.037447        28.2304 
 263   0.0000       1.043343        28.3908 
 264   0.0000       1.050180        28.5769 
 265   0.0000       1.056410        28.7464 
 266   0.0000       1.060831        28.8667 
 267   0.0000       1.067493        29.0480 
 268   0.0000       1.076130        29.2830 
 269   0.0000       1.094399        29.7801 
 270   0.0000       1.098815        29.9003 
 271   0.0000       1.100917        29.9575 
 272   0.0000       1.102109        29.9899 
 273   0.0000       1.115071        30.3426 
 274   0.0000       1.124406        30.5966 
 275   0.0000       1.134816        30.8799 
 276   0.0000       1.136648        30.9298 
 277   0.0000       1.146516        31.1983 
 278   0.0000       1.162807        31.6416 
 279   0.0000       1.169723        31.8298 
 280   0.0000       1.174514        31.9601 
 281   0.0000       1.178163        32.0594 
 282   0.0000       1.181153        32.1408 
 283   0.0000       1.203097        32.7379 
 284   0.0000       1.204098        32.7652 
 285   0.0000       1.204696        32.7815 
 286   0.0000       1.211287        32.9608 
 287   0.0000       1.233424        33.5632 
 288   0.0000       1.242132        33.8001 
 289   0.0000       1.260367        34.2963 
 290   0.0000       1.262543        34.3555 
 291   0.0000       1.281836        34.8805 
 292   0.0000       1.290334        35.1118 
 293   0.0000       1.298703        35.3395 
 294   0.0000       1.308885        35.6166 
 295   0.0000       1.316136        35.8139 
 296   0.0000       1.324457        36.0403 
 297   0.0000       1.328682        36.1553 
 298   0.0000       1.338914        36.4337 
 299   0.0000       1.359030        36.9811 
 300   0.0000       1.369961        37.2785 
 301   0.0000       1.383411        37.6445 
 302   0.0000       1.386872        37.7387 
 303   0.0000       1.390679        37.8423 
 304   0.0000       1.401197        38.1285 
 305   0.0000       1.416140        38.5351 
 306   0.0000       1.425478        38.7892 
 307   0.0000       1.426322        38.8122 
 308   0.0000       1.427314        38.8392 
 309   0.0000       1.441846        39.2346 
 310   0.0000       1.445035        39.3214 
 311   0.0000       1.450406        39.4676 
 312   0.0000       1.453533        39.5527 
 313   0.0000       1.455930        39.6179 
 314   0.0000       1.477729        40.2111 
 315   0.0000       1.484854        40.4049 
 316   0.0000       1.500889        40.8413 
 317   0.0000       1.506020        40.9809 
[...]
Density matrix formation    ....       0.166 sec  (  0.1%)
Population analysis         ....       0.381 sec  (  0.3%)
Initial guess               ....       0.713 sec  (  0.5%)
Orbital Transformation      ....       0.000 sec  (  0.0%)
Orbital Orthonormalization  ....       0.000 sec  (  0.0%)
DIIS solution               ....       2.524 sec  (  1.7%)
Grid generation             ....       1.823 sec  (  1.2%)

-------------------------   --------------------
FINAL SINGLE POINT ENERGY      -852.823025324946
-------------------------   --------------------

   --->>> g-tensor requested, so NeedSOC=true

                            ***************************************
                            *     ORCA property calculations      *
                            ***************************************

                                    ---------------------
                                    Active property flags
                                    ---------------------
   (+) Dipole Moment
   (+) g-tensor
   (+) Nuclear properties (Hyperfine,Quadrupole)
   (+) Spin-Orbit Integrals are needed


------------------------------------------------------------------------------
                       ORCA ELECTRIC PROPERTIES CALCULATION
------------------------------------------------------------------------------

Dipole Moment Calculation                       ... on
Quadrupole Moment Calculation                   ... off
Polarizability Calculation                      ... off
GBWName                                         ... EPRII_i.gbw
Electron density file                           ... EPRII_i.scfp
The origin for moment calculation is the CENTER OF MASS  = ( 4.014918, -0.062614 -0.019499)

-------------
DIPOLE MOMENT
-------------
                                X             Y             Z
Electronic contribution:     15.86915      -0.22722       0.01744
Nuclear contribution   :    -15.63654       0.22826      -0.01735
                        -----------------------------------------
Total Dipole Moment    :      0.23261       0.00104       0.00008
                        -----------------------------------------
Magnitude (a.u.)       :      0.23261
Magnitude (Debye)      :      0.59125



--------------------
Rotational spectrum 
--------------------
 
Rotational constants in cm-1:     0.007062     0.004912     0.002909 
Rotational constants in MHz :   211.706210   147.251620    87.223548 

 Dipole components along the rotational axes: 
x,y,z [a.u.] :     0.184288     0.141937    -0.000070 
x,y,z [Debye]:     0.468423     0.360775    -0.000177 

 


           ************************************************************
           *        Program running with 16 parallel MPI-processes    *
           *              working on a common directory               *
           ************************************************************
------------------------------------------------------------------------------
                         ORCA SPIN-ORBIT COUPLING CALCULATION
------------------------------------------------------------------------------

GBW file                                    ... EPRII_i.gbw
Input density                               ... EPRII_i.scfp
Output integrals                            ... EPRII_i
Operator type                               ... Mean-field/Effective potential
   One-Electron Terms                       ... 1
   Coulomb Contribution                     ... 2
   Exchange Contribution                    ... 3
   Correlation Contribution                 ... 0
   Maximum number of centers                ... 4
Setting up the integration grid             ... done
Evaluating density on the grid              ... (NumEl=  157.024446) done
Evaluating Coulomb term semi-analytically   ... done
One-Center Exchange (+SOO)                  ... done
Evaluating the spin-orbit operator          ... done
Total time for SOC: 23.589


           ************************************************************
           *        Program running with 16 parallel MPI-processes    *
           *              working on a common directory               *
           ************************************************************
------------------------------------------------------------------------------
                                ORCA EPR/NMR CALCULATION
------------------------------------------------------------------------------

GBWName                      ... EPRII_i.gbw
Electron density file        ... EPRII_i.scfp
Spin density file            ... EPRII_i.scfr
Spin-orbit integrals         ... EPRII_i
Treatment of gauge           ... GIAO (approximations 1/2el = 0,3)
Details of the CP(SCF) procedure:
       Solver   = POPLE   
       MaxIter  =    64   
       Tolerance=    1.000e-06
       Op-0     =   0- 78 =>  79-548
       Op-1     =   0- 77 =>  78-548
Multiplicity                 ... 2
g-tensor                     ... 1
NMR chemical shifts          ... 0
Number of nuclei for epr/nmr ... 25
   Nucleus:   7H 
       Hyperfine : Isotope=    1 I=   0.500 P= 533.551
       Quadrupole: Isotope=    2 I=   1.000 Q=   0.003
       Spin-Orbit: Zeff=   1.000
       Ncuelar Spin-Spin: Gn=   0.000
       rho(0)=N f(grad)=N a(iso)=Y a(dip)=Y a(orb)=Y sigma(nmr)=N spin-spin(nmr)=all-N,DSO-N,PSO-N,FC-N,SD-N
   Nucleus:   8H 
       Hyperfine : Isotope=    1 I=   0.500 P= 533.551
       Quadrupole: Isotope=    2 I=   1.000 Q=   0.003
       Spin-Orbit: Zeff=   1.000
       Ncuelar Spin-Spin: Gn=   0.000
       rho(0)=N f(grad)=N a(iso)=Y a(dip)=Y a(orb)=Y sigma(nmr)=N spin-spin(nmr)=all-N,DSO-N,PSO-N,FC-N,SD-N
   Nucleus:  10H 
       Hyperfine : Isotope=    1 I=   0.500 P= 533.551
       Quadrupole: Isotope=    2 I=   1.000 Q=   0.003
       Spin-Orbit: Zeff=   1.000
       Ncuelar Spin-Spin: Gn=   0.000
       rho(0)=N f(grad)=N a(iso)=Y a(dip)=Y a(orb)=Y sigma(nmr)=N spin-spin(nmr)=all-N,DSO-N,PSO-N,FC-N,SD-N
   Nucleus:  11H 
       Hyperfine : Isotope=    1 I=   0.500 P= 533.551
       Quadrupole: Isotope=    2 I=   1.000 Q=   0.003
       Spin-Orbit: Zeff=   1.000
       Ncuelar Spin-Spin: Gn=   0.000
       rho(0)=N f(grad)=N a(iso)=Y a(dip)=Y a(orb)=Y sigma(nmr)=N spin-spin(nmr)=all-N,DSO-N,PSO-N,FC-N,SD-N
   Nucleus:  13H 
       Hyperfine : Isotope=    1 I=   0.500 P= 533.551
       Quadrupole: Isotope=    2 I=   1.000 Q=   0.003
       Spin-Orbit: Zeff=   1.000
       Ncuelar Spin-Spin: Gn=   0.000
       rho(0)=N f(grad)=N a(iso)=Y a(dip)=Y a(orb)=Y sigma(nmr)=N spin-spin(nmr)=all-N,DSO-N,PSO-N,FC-N,SD-N
   Nucleus:  14H 
       Hyperfine : Isotope=    1 I=   0.500 P= 533.551
       Quadrupole: Isotope=    2 I=   1.000 Q=   0.003
       Spin-Orbit: Zeff=   1.000
       Ncuelar Spin-Spin: Gn=   0.000
       rho(0)=N f(grad)=N a(iso)=Y a(dip)=Y a(orb)=Y sigma(nmr)=N spin-spin(nmr)=all-N,DSO-N,PSO-N,FC-N,SD-N
   Nucleus:  16H 
       Hyperfine : Isotope=    1 I=   0.500 P= 533.551
       Quadrupole: Isotope=    2 I=   1.000 Q=   0.003
       Spin-Orbit: Zeff=   1.000
       Ncuelar Spin-Spin: Gn=   0.000
       rho(0)=N f(grad)=N a(iso)=Y a(dip)=Y a(orb)=Y sigma(nmr)=N spin-spin(nmr)=all-N,DSO-N,PSO-N,FC-N,SD-N
   Nucleus:  17H 
       Hyperfine : Isotope=    1 I=   0.500 P= 533.551
       Quadrupole: Isotope=    2 I=   1.000 Q=   0.003
       Spin-Orbit: Zeff=   1.000
       Ncuelar Spin-Spin: Gn=   0.000
       rho(0)=N f(grad)=N a(iso)=Y a(dip)=Y a(orb)=Y sigma(nmr)=N spin-spin(nmr)=all-N,DSO-N,PSO-N,FC-N,SD-N
   Nucleus:  19H 
       Hyperfine : Isotope=    1 I=   0.500 P= 533.551
       Quadrupole: Isotope=    2 I=   1.000 Q=   0.003
       Spin-Orbit: Zeff=   1.000
       Ncuelar Spin-Spin: Gn=   0.000
       rho(0)=N f(grad)=N a(iso)=Y a(dip)=Y a(orb)=Y sigma(nmr)=N spin-spin(nmr)=all-N,DSO-N,PSO-N,FC-N,SD-N
   Nucleus:  20H 
       Hyperfine : Isotope=    1 I=   0.500 P= 533.551
       Quadrupole: Isotope=    2 I=   1.000 Q=   0.003
       Spin-Orbit: Zeff=   1.000
       Ncuelar Spin-Spin: Gn=   0.000
       rho(0)=N f(grad)=N a(iso)=Y a(dip)=Y a(orb)=Y sigma(nmr)=N spin-spin(nmr)=all-N,DSO-N,PSO-N,FC-N,SD-N
   Nucleus:  22H 
       Hyperfine : Isotope=    1 I=   0.500 P= 533.551
       Quadrupole: Isotope=    2 I=   1.000 Q=   0.003
       Spin-Orbit: Zeff=   1.000
       Ncuelar Spin-Spin: Gn=   0.000
       rho(0)=N f(grad)=N a(iso)=Y a(dip)=Y a(orb)=Y sigma(nmr)=N spin-spin(nmr)=all-N,DSO-N,PSO-N,FC-N,SD-N
   Nucleus:  23H 
       Hyperfine : Isotope=    1 I=   0.500 P= 533.551
       Quadrupole: Isotope=    2 I=   1.000 Q=   0.003
       Spin-Orbit: Zeff=   1.000
       Ncuelar Spin-Spin: Gn=   0.000
       rho(0)=N f(grad)=N a(iso)=Y a(dip)=Y a(orb)=Y sigma(nmr)=N spin-spin(nmr)=all-N,DSO-N,PSO-N,FC-N,SD-N
   Nucleus:  25H 
       Hyperfine : Isotope=    1 I=   0.500 P= 533.551
       Quadrupole: Isotope=    2 I=   1.000 Q=   0.003
       Spin-Orbit: Zeff=   1.000
       Ncuelar Spin-Spin: Gn=   0.000
       rho(0)=N f(grad)=N a(iso)=Y a(dip)=Y a(orb)=Y sigma(nmr)=N spin-spin(nmr)=all-N,DSO-N,PSO-N,FC-N,SD-N
   Nucleus:  26H 
       Hyperfine : Isotope=    1 I=   0.500 P= 533.551
       Quadrupole: Isotope=    2 I=   1.000 Q=   0.003
       Spin-Orbit: Zeff=   1.000
       Ncuelar Spin-Spin: Gn=   0.000
       rho(0)=N f(grad)=N a(iso)=Y a(dip)=Y a(orb)=Y sigma(nmr)=N spin-spin(nmr)=all-N,DSO-N,PSO-N,FC-N,SD-N
   Nucleus:  28H 
       Hyperfine : Isotope=    1 I=   0.500 P= 533.551
       Quadrupole: Isotope=    2 I=   1.000 Q=   0.003
       Spin-Orbit: Zeff=   1.000
       Ncuelar Spin-Spin: Gn=   0.000
       rho(0)=N f(grad)=N a(iso)=Y a(dip)=Y a(orb)=Y sigma(nmr)=N spin-spin(nmr)=all-N,DSO-N,PSO-N,FC-N,SD-N
   Nucleus:  29H 
       Hyperfine : Isotope=    1 I=   0.500 P= 533.551
       Quadrupole: Isotope=    2 I=   1.000 Q=   0.003
       Spin-Orbit: Zeff=   1.000
       Ncuelar Spin-Spin: Gn=   0.000
       rho(0)=N f(grad)=N a(iso)=Y a(dip)=Y a(orb)=Y sigma(nmr)=N spin-spin(nmr)=all-N,DSO-N,PSO-N,FC-N,SD-N
   Nucleus:  31H 
       Hyperfine : Isotope=    1 I=   0.500 P= 533.551
       Quadrupole: Isotope=    2 I=   1.000 Q=   0.003
       Spin-Orbit: Zeff=   1.000
       Ncuelar Spin-Spin: Gn=   0.000
       rho(0)=N f(grad)=N a(iso)=Y a(dip)=Y a(orb)=Y sigma(nmr)=N spin-spin(nmr)=all-N,DSO-N,PSO-N,FC-N,SD-N
   Nucleus:  32H 
       Hyperfine : Isotope=    1 I=   0.500 P= 533.551
       Quadrupole: Isotope=    2 I=   1.000 Q=   0.003
       Spin-Orbit: Zeff=   1.000
       Ncuelar Spin-Spin: Gn=   0.000
       rho(0)=N f(grad)=N a(iso)=Y a(dip)=Y a(orb)=Y sigma(nmr)=N spin-spin(nmr)=all-N,DSO-N,PSO-N,FC-N,SD-N
   Nucleus:  34H 
       Hyperfine : Isotope=    1 I=   0.500 P= 533.551
       Quadrupole: Isotope=    2 I=   1.000 Q=   0.003
       Spin-Orbit: Zeff=   1.000
       Ncuelar Spin-Spin: Gn=   0.000
       rho(0)=N f(grad)=N a(iso)=Y a(dip)=Y a(orb)=Y sigma(nmr)=N spin-spin(nmr)=all-N,DSO-N,PSO-N,FC-N,SD-N
   Nucleus:  35H 
       Hyperfine : Isotope=    1 I=   0.500 P= 533.551
       Quadrupole: Isotope=    2 I=   1.000 Q=   0.003
       Spin-Orbit: Zeff=   1.000
       Ncuelar Spin-Spin: Gn=   0.000
       rho(0)=N f(grad)=N a(iso)=Y a(dip)=Y a(orb)=Y sigma(nmr)=N spin-spin(nmr)=all-N,DSO-N,PSO-N,FC-N,SD-N
   Nucleus:  42H 
       Hyperfine : Isotope=    1 I=   0.500 P= 533.551
       Quadrupole: Isotope=    2 I=   1.000 Q=   0.003
       Spin-Orbit: Zeff=   1.000
       Ncuelar Spin-Spin: Gn=   0.000
       rho(0)=N f(grad)=N a(iso)=Y a(dip)=Y a(orb)=Y sigma(nmr)=N spin-spin(nmr)=all-N,DSO-N,PSO-N,FC-N,SD-N
   Nucleus:  43H 
       Hyperfine : Isotope=    1 I=   0.500 P= 533.551
       Quadrupole: Isotope=    2 I=   1.000 Q=   0.003
       Spin-Orbit: Zeff=   1.000
       Ncuelar Spin-Spin: Gn=   0.000
       rho(0)=N f(grad)=N a(iso)=Y a(dip)=Y a(orb)=Y sigma(nmr)=N spin-spin(nmr)=all-N,DSO-N,PSO-N,FC-N,SD-N
   Nucleus:  44H 
       Hyperfine : Isotope=    1 I=   0.500 P= 533.551
       Quadrupole: Isotope=    2 I=   1.000 Q=   0.003
       Spin-Orbit: Zeff=   1.000
       Ncuelar Spin-Spin: Gn=   0.000
       rho(0)=N f(grad)=N a(iso)=Y a(dip)=Y a(orb)=Y sigma(nmr)=N spin-spin(nmr)=all-N,DSO-N,PSO-N,FC-N,SD-N
   Nucleus:  45H 
       Hyperfine : Isotope=    1 I=   0.500 P= 533.551
       Quadrupole: Isotope=    2 I=   1.000 Q=   0.003
       Spin-Orbit: Zeff=   1.000
       Ncuelar Spin-Spin: Gn=   0.000
       rho(0)=N f(grad)=N a(iso)=Y a(dip)=Y a(orb)=Y sigma(nmr)=N spin-spin(nmr)=all-N,DSO-N,PSO-N,FC-N,SD-N
   Nucleus:  46H 
       Hyperfine : Isotope=    1 I=   0.500 P= 533.551
       Quadrupole: Isotope=    2 I=   1.000 Q=   0.003
       Spin-Orbit: Zeff=   1.000
       Ncuelar Spin-Spin: Gn=   0.000
       rho(0)=N f(grad)=N a(iso)=Y a(dip)=Y a(orb)=Y sigma(nmr)=N spin-spin(nmr)=all-N,DSO-N,PSO-N,FC-N,SD-N
Forming RHS of the CP-SCF equations         ... 
Calculating right hand sides for GIAO treatment        ... 
  Entering RightHandSide GIAO. ScalHFX=    0.2000 NeedHFX=1
     -> 1-electron GIAO integrals will be done analytically
     -> SCF done analytically but RIJK chosen for GIAO calculation.
     Making grid for GIAO integrations   ... 
General Integration Accuracy     IntAcc      ...  4.340
Radial Grid Type                 RadialGrid  ... Gauss-Chebyshev
Angular Grid (max. acc.)         AngularGrid ... Lebedev-110
Angular grid pruning method      GridPruning ... 3 (G Style)
Weight generation scheme         WeightScheme... Becke
Basis function cutoff            BFCut       ...    1.0000e-10
Integration weight cutoff        WCut        ...    1.0000e-14
Grids for H and He will be reduced by one unit

# of grid points (after initial pruning)     ...  56282 (   0.0 sec)
# of grid points (after weights+screening)   ...  50314 (   0.1 sec)
nearest neighbour list constructed           ...    0.0 sec
Grid point re-assignment to atoms done       ...    0.0 sec
Grid point division into batches done        ...    0.1 sec
Reduced shell lists constructed in    0.2 sec

Total number of grid points                  ...    50314
Total number of batches                      ...      809
Average number of points per batch           ...       62
Average number of grid points per atom       ...     1071
Average number of shells per batch           ...   120.63 (37.35%)
Average number of basis functions per batch  ...   232.33 (42.32%)
Average number of large shells per batch     ...    82.21 (68.15%)
Average number of large basis fcns per batch ...   158.37 (68.16%)
Maximum spatial batch extension              ...   8.09,  4.79, 40.11 au
Average spatial batch extension              ...   0.13,  0.14,  0.23 au

done
  One-electron GIAO integrals             ... done
  Calculating G(B)[P]                     ... (RI-JK: P(aux)-ok JK-RI-ok) (add-J+K:ok) => dG/dB done
  DFT XC-terms                            ... done
  Extracting occupied and virtual blocks  ... 
  Operator  0  NO=  79 NV= 470 
  Operator  1  NO=  78 NV= 471 
  Transforming and RHS contribution       ... done
  Adding eps_i * S(B)_ai terms            ... done
  Projecting overlap derivatives          ... done
  Building G[dS/dB_ij] (Direct)           ... done
  Transforming to MO basis                ... done
  Summing G[dS/dB_ij] into RHS contribs.  ... done

  GIAO profiling information: 
    Total GIAO time               ...     305.6 sec
       GIAO 1-electron integrals  ...       0.1 sec (  0.0%)
       GIAO G(dS/dB) terms        ...      29.8 sec (  9.8%)
       GIAO RI-JK                 ...     271.8 sec ( 88.9%)
       GIAO XC-terms              ...       1.6 sec (  0.5%)
       Right hand side assembly   ...       0.1 sec (  0.0%)

  GIAO right hand side done


------------------------------------------------------------------------------
                           ORCA CP-SCF CALCULATION
------------------------------------------------------------------------------

Input orbitals are from        ... EPRII_i.gbw
Input Perturbation             ... EPRII_i.pin.tmp
Wavefunction output            ... EPRII_i.pout.tmp
Perturbation mode              ... Imaginary perturbation
Solver                         ... POPLE
Max. number of iterations      ... 64
Convergence tolerance          ... 1.000e-06
Integral handling              ... Direct
Number of perturbations        ... 3
Number of operators            ... 2
Orbital ranges used for CP-SCF:
 Operator 0:  Orbitals   0... 78  to  79...548
 Operator 1:  Orbitals   0... 77  to  78...548
DFT calculation                         ... on
Variables per vector in CP-SCF ... 73868
Number of vectors sought       ... 3
     CP-SCF ITERATION   0: 
     CP-SCF ITERATION   1:      0.009128874075
     CP-SCF ITERATION   2:      0.000089066384
     CP-SCF ITERATION   3:      0.000001127239
     CP-SCF ITERATION   4:      0.000000184845

Forming final perturbed densities           ... done
Transforming perturbed density to AO basis  ... done

Magnetic field perturbation calculated in 422.988 sec
GIAO: Doing diamagnetic term integrals analytically ...done
GIAO: Doing 1el-GIAO-SOC integrals analytically ... done

-------------------
ELECTRONIC G-MATRIX
-------------------

 The g-matrix: 
              2.0021398   -0.0000469   -0.0000008
             -0.0000055    2.0016427   -0.0000019
             -0.0000009   -0.0000018    2.0029442

 gel          2.0023193    2.0023193    2.0023193
 gRMC        -0.0001597   -0.0001597   -0.0001597
 gDSO(tot)    0.0000746    0.0000421    0.0000666
 gPSO(tot)   -0.0005929   -0.0000605    0.0007180
             ----------   ----------   ----------
 g(tot)       2.0016413    2.0021412    2.0029442 iso=  2.0022422
 Delta-g     -0.0006780   -0.0001781    0.0006249 iso= -0.0000771
 Orientation: 
  X           0.0524788    0.9986215    0.0010076
  Y           0.9986209   -0.0524802    0.0014263
  Z           0.0014773    0.0009313   -0.9999985

Notes:  (1) The g-matrix conforms to the "BgS" spin Hamiltonian convention. 
        (2) The principal values are square roots of the eigenvalues of g*gT.
        (3) Orientations are eigenvectors of g*gT written as column vectors.
        (4) Individual contributions are projections of the full matrices onto the eigenvectors of g*gT.
        (5) Tensor is right-handed.


-----------------------------------------
ELECTRIC AND MAGNETIC HYPERFINE STRUCTURE
-----------------------------------------

 -----------------------------------------------------------
 Nucleus   7H : A:ISTP=    1 I=  0.5 P=533.5514 MHz/au**3
                Q:ISTP=    2 I=  1.0 Q=  0.0029 barn     
 -----------------------------------------------------------
 Solving for nuclear perturbation:
Forming RHS of the CP-SCF equations         ... 
Using LibInt in CPSCF-CP

Calculating nucleus orbit integrals         ... done

------------------------------------------------------------------------------
                           ORCA CP-SCF CALCULATION
------------------------------------------------------------------------------

Input orbitals are from        ... EPRII_i.gbw
Input Perturbation             ... EPRII_i.pin.tmp
Wavefunction output            ... EPRII_i.pout.tmp
Perturbation mode              ... Imaginary perturbation
Solver                         ... POPLE
Max. number of iterations      ... 64
Convergence tolerance          ... 1.000e-06
Integral handling              ... Direct
Number of perturbations        ... 3
Number of operators            ... 2
Orbital ranges used for CP-SCF:
 Operator 0:  Orbitals   0... 78  to  79...548
 Operator 1:  Orbitals   0... 77  to  78...548
DFT calculation                         ... on
Variables per vector in CP-SCF ... 73868
Number of vectors sought       ... 3
     CP-SCF ITERATION   0: 
     CP-SCF ITERATION   1:      0.000008655406
     CP-SCF ITERATION   2:      0.000000101240

Forming final perturbed densities           ...
ORCA finished by error termination in EPR/NMR
Calling Command: mpirun -np 16  /hits/sw/ccc/ORCA421/orca_4_2_1_linux_x86-64_openmpi314/orca_eprnmr_mpi EPRII_i.eprnmr.inp EPRII_i 
[file orca_tools/qcmsg.cpp, line 458]: 
  .... aborting the run

