
                                 *****************
                                 * O   R   C   A *
                                 *****************

                                            #,                                       
                                            ###                                      
                                            ####                                     
                                            #####                                    
                                            ######                                   
                                           ########,                                 
                                     ,,################,,,,,                         
                               ,,#################################,,                 
                          ,,##########################################,,             
                       ,#########################################, ''#####,          
                    ,#############################################,,   '####,        
                  ,##################################################,,,,####,       
                ,###########''''           ''''###############################       
              ,#####''   ,,,,##########,,,,          '''####'''          '####       
            ,##' ,,,,###########################,,,                        '##       
           ' ,,###''''                  '''############,,,                           
         ,,##''                                '''############,,,,        ,,,,,,###''
      ,#''                                            '''#######################'''  
     '                                                          ''''####''''         
             ,#######,   #######,   ,#######,      ##                                
            ,#'     '#,  ##    ##  ,#'     '#,    #''#        ######   ,####,        
            ##       ##  ##   ,#'  ##            #'  '#       #        #'  '#        
            ##       ##  #######   ##           ,######,      #####,   #    #        
            '#,     ,#'  ##    ##  '#,     ,#' ,#      #,         ##   #,  ,#        
             '#######'   ##     ##  '#######'  #'      '#     #####' # '####'        



                  #######################################################
                  #                        -***-                        #
                  #          Department of theory and spectroscopy      #
                  #    Directorship and core code : Frank Neese         #
                  #        Max Planck Institute fuer Kohlenforschung    #
                  #                Kaiser Wilhelm Platz 1               #
                  #                 D-45470 Muelheim/Ruhr               #
                  #                      Germany                        #
                  #                                                     #
                  #                  All rights reserved                #
                  #                        -***-                        #
                  #######################################################


                         Program Version 5.0.4 -  RELEASE  -


 With contributions from (in alphabetic order):
   Daniel Aravena         : Magnetic Suceptibility
   Michael Atanasov       : Ab Initio Ligand Field Theory (pilot matlab implementation)
   Alexander A. Auer      : GIAO ZORA, VPT2 properties, NMR spectrum
   Ute Becker             : Parallelization
   Giovanni Bistoni       : ED, misc. LED, open-shell LED, HFLD
   Martin Brehm           : Molecular dynamics
   Dmytro Bykov           : SCF Hessian
   Vijay G. Chilkuri      : MRCI spin determinant printing, contributions to CSF-ICE
   Dipayan Datta          : RHF DLPNO-CCSD density
   Achintya Kumar Dutta   : EOM-CC, STEOM-CC
   Dmitry Ganyushin       : Spin-Orbit,Spin-Spin,Magnetic field MRCI
   Miquel Garcia          : C-PCM and meta-GGA Hessian, CC/C-PCM, Gaussian charge scheme
   Yang Guo               : DLPNO-NEVPT2, F12-NEVPT2, CIM, IAO-localization
   Andreas Hansen         : Spin unrestricted coupled pair/coupled cluster methods
   Benjamin Helmich-Paris : MC-RPA, TRAH-SCF, COSX integrals
   Lee Huntington         : MR-EOM, pCC
   Robert Izsak           : Overlap fitted RIJCOSX, COSX-SCS-MP3, EOM
   Marcus Kettner         : VPT2
   Christian Kollmar      : KDIIS, OOCD, Brueckner-CCSD(T), CCSD density, CASPT2, CASPT2-K
   Simone Kossmann        : Meta GGA functionals, TD-DFT gradient, OOMP2, MP2 Hessian
   Martin Krupicka        : Initial AUTO-CI
   Lucas Lang             : DCDCAS
   Marvin Lechner         : AUTO-CI (C++ implementation), FIC-MRCC
   Dagmar Lenk            : GEPOL surface, SMD
   Dimitrios Liakos       : Extrapolation schemes; Compound Job, initial MDCI parallelization
   Dimitrios Manganas     : Further ROCIS development; embedding schemes
   Dimitrios Pantazis     : SARC Basis sets
   Anastasios Papadopoulos: AUTO-CI, single reference methods and gradients
   Taras Petrenko         : DFT Hessian,TD-DFT gradient, ASA, ECA, R-Raman, ABS, FL, XAS/XES, NRVS
   Peter Pinski           : DLPNO-MP2, DLPNO-MP2 Gradient
   Christoph Reimann      : Effective Core Potentials
   Marius Retegan         : Local ZFS, SOC
   Christoph Riplinger    : Optimizer, TS searches, QM/MM, DLPNO-CCSD(T), (RO)-DLPNO pert. Triples
   Tobias Risthaus        : Range-separated hybrids, TD-DFT gradient, RPA, STAB
   Michael Roemelt        : Original ROCIS implementation
   Masaaki Saitow         : Open-shell DLPNO-CCSD energy and density
   Barbara Sandhoefer     : DKH picture change effects
   Avijit Sen             : IP-ROCIS
   Kantharuban Sivalingam : CASSCF convergence, NEVPT2, FIC-MRCI
   Bernardo de Souza      : ESD, SOC TD-DFT
   Georgi Stoychev        : AutoAux, RI-MP2 NMR, DLPNO-MP2 response
   Willem Van den Heuvel  : Paramagnetic NMR
   Boris Wezisla          : Elementary symmetry handling
   Frank Wennmohs         : Technical directorship


 We gratefully acknowledge several colleagues who have allowed us to
 interface, adapt or use parts of their codes:
   Stefan Grimme, W. Hujo, H. Kruse, P. Pracht,  : VdW corrections, initial TS optimization,
                  C. Bannwarth, S. Ehlert          DFT functionals, gCP, sTDA/sTD-DF
   Ed Valeev, F. Pavosevic, A. Kumar             : LibInt (2-el integral package), F12 methods
   Garnet Chan, S. Sharma, J. Yang, R. Olivares  : DMRG
   Ulf Ekstrom                                   : XCFun DFT Library
   Mihaly Kallay                                 : mrcc  (arbitrary order and MRCC methods)
   Jiri Pittner, Ondrej Demel                    : Mk-CCSD
   Frank Weinhold                                : gennbo (NPA and NBO analysis)
   Christopher J. Cramer and Donald G. Truhlar   : smd solvation model
   Lars Goerigk                                  : TD-DFT with DH, B97 family of functionals
   V. Asgeirsson, H. Jonsson                     : NEB implementation
   FAccTs GmbH                                   : IRC, NEB, NEB-TS, DLPNO-Multilevel, CI-OPT
                                                   MM, QMMM, 2- and 3-layer-ONIOM, Crystal-QMMM,
                                                   LR-CPCM, SF, NACMEs, symmetry and pop. for TD-DFT,
                                                   nearIR, NL-DFT gradient (VV10), updates on ESD,
                                                   ML-optimized integration grids
   S Lehtola, MJT Oliveira, MAL Marques          : LibXC Library
   Liviu Ungur et al                             : ANISO software


 Your calculation uses the libint2 library for the computation of 2-el integrals
 For citations please refer to: http://libint.valeyev.net

 Your ORCA version has been built with support for libXC version: 5.1.0
 For citations please refer to: https://tddft.org/programs/libxc/

 This ORCA versions uses:
   CBLAS   interface :  Fast vector & matrix operations
   LAPACKE interface :  Fast linear algebra routines
   SCALAPACK package :  Parallel linear algebra routines
   Shared memory     :  Shared parallel matrices
   BLAS/LAPACK       :  OpenBLAS 0.3.15  USE64BITINT DYNAMIC_ARCH NO_AFFINITY SkylakeX SINGLE_THREADED
        Core in use  :  SkylakeX
   Copyright (c) 2011-2014, The OpenBLAS Project




***************************************
The coordinates will be read from file: opt.xyz
***************************************


================================================================================

----- Orbital basis set information -----
Your calculation utilizes the basis: EPR-II
   V. Barone, in Recent Advances in Density Functional Methods, Part 1 (ed. D. P. Chong), World Scientific, Singapore, 1995, p. 287.

----- AuxJ basis set information -----
Your calculation utilizes the AutoAux generation procedure.
  G. L. Stoychev, A. A. Auer, F. Neese, J. Chem. Theory Comput. 13, 554 (2017)

----- AuxC basis set information -----
Your calculation utilizes the AutoAux generation procedure.
  G. L. Stoychev, A. A. Auer, F. Neese, J. Chem. Theory Comput. 13, 554 (2017)

----- AuxJK basis set information -----
Your calculation utilizes the AutoAux generation procedure.
  G. L. Stoychev, A. A. Auer, F. Neese, J. Chem. Theory Comput. 13, 554 (2017)

================================================================================
                                        WARNINGS
                       Please study these warnings very carefully!
================================================================================

WARNING: Old DensityContainer found on disk!
         Will remove this file - 
         If you want to keep old densities, please start your calculation with a different basename. 


WARNING: your system is open-shell and RHF/RKS was chosen
  ===> : WILL SWITCH to UHF/UKS


INFO   : the flag for use of the SHARK integral package has been found!

================================================================================
                                       INPUT FILE
================================================================================
NAME = EPRII_i.inp
|  1> ! B3LYP EPR-II AUTOAUX
|  2> %pal nprocs 16 end
|  3> *XYZFile 0 2 opt.xyz
|  4> %EPRNMR
|  5>         GTENSOR   TRUE
|  6>         NUCLEI    = ALL H {SHIFT, AISO, ADIP, AORB}
|  7>         ORI       GIAO
|  8> END
|  9> 
| 10>                          ****END OF INPUT****
================================================================================

                       ****************************
                       * Single Point Calculation *
                       ****************************

---------------------------------
CARTESIAN COORDINATES (ANGSTROEM)
---------------------------------
  C      2.831806   -0.006236   -0.008272
  C     -1.314139   -0.014773   -0.012929
  C     -0.703841   -1.259958   -0.014279
  C      0.699293   -1.203568   -0.012429
  C      1.402358    0.023007   -0.009542
  C      0.708612    1.263431   -0.008102
  C     -0.699666    1.217589   -0.009942
  H      1.283513   -2.125515   -0.013363
  H     -1.285093    2.138713   -0.009038
  C     -1.509688   -2.548043   -0.017242
  H     -2.182378   -2.530206   -0.894243
  H     -2.180594   -2.535322    0.861245
  C     -0.708611   -3.852555   -0.021718
  H     -0.045377   -3.880501   -0.905977
  H     -0.045441   -3.886600    0.862377
  C     -1.603186   -5.097748   -0.025923
  H     -2.269586   -5.070311    0.856270
  H     -2.268554   -5.065066   -0.908715
  C     -0.811642   -6.407882   -0.029365
  H     -0.163127   -6.486668    0.860305
  H     -0.161649   -6.481086   -0.918435
  C      1.483960    2.566701   -0.004836
  H      2.159953    2.562804    0.870276
  H      2.160515    2.566853   -0.879537
  C      0.662999    3.858831   -0.002137
  H      0.000591    3.884733   -0.887173
  H     -0.000881    3.880108    0.881917
  C      1.540854    5.116159    0.001806
  H      2.206133    5.092323    0.884894
  H      2.207958    5.096581   -0.880007
  C      0.732381    6.415841    0.004122
  H      0.081081    6.481192    0.892854
  H      0.083265    6.485731   -0.885860
  C      4.053310   -0.041189   -0.009378
  H     -1.480462   -7.283854   -0.032687
  H      1.389551    7.300598    0.007195
  C      5.481187   -0.085650   -0.008586
  C      6.162322   -1.322563   -0.012255
  C      7.556386   -1.361278   -0.011394
  C      8.297343   -0.174069   -0.006934
  C      7.632552    1.057518   -0.003328
  C      6.238850    1.105969   -0.004137
  H      9.389310   -0.208771   -0.006270
  H      8.204901    1.988374    0.000175
  H      5.582883   -2.247731   -0.015759
  H      5.718665    2.065740   -0.001296
  H      8.069533   -2.326054   -0.014261

----------------------------
CARTESIAN COORDINATES (A.U.)
----------------------------
  NO LB      ZA    FRAG     MASS         X           Y           Z
   0 C     6.0000    0    12.011    5.351338   -0.011785   -0.015631
   1 C     6.0000    0    12.011   -2.483364   -0.027917   -0.024431
   2 C     6.0000    0    12.011   -1.330066   -2.380976   -0.026983
   3 C     6.0000    0    12.011    1.321473   -2.274413   -0.023487
   4 C     6.0000    0    12.011    2.650073    0.043478   -0.018032
   5 C     6.0000    0    12.011    1.339083    2.387539   -0.015311
   6 C     6.0000    0    12.011   -1.322177    2.300909   -0.018788
   7 H     1.0000    0     1.008    2.425488   -4.016642   -0.025253
   8 H     1.0000    0     1.008   -2.428474    4.041583   -0.017079
   9 C     6.0000    0    12.011   -2.852898   -4.815103   -0.032583
  10 H     1.0000    0     1.008   -4.124097   -4.781396   -1.689874
  11 H     1.0000    0     1.008   -4.120726   -4.791064    1.627518
  12 C     6.0000    0    12.011   -1.339080   -7.280273   -0.041042
  13 H     1.0000    0     1.008   -0.085750   -7.333084   -1.712048
  14 H     1.0000    0     1.008   -0.085871   -7.344609    1.629656
  15 C     6.0000    0    12.011   -3.029583   -9.633348   -0.048987
  16 H     1.0000    0     1.008   -4.288897   -9.581498    1.618115
  17 H     1.0000    0     1.008   -4.286946   -9.571588   -1.717223
  18 C     6.0000    0    12.011   -1.533781  -12.109141   -0.055493
  19 H     1.0000    0     1.008   -0.308266  -12.258027    1.625740
  20 H     1.0000    0     1.008   -0.305472  -12.247478   -1.735591
  21 C     6.0000    0    12.011    2.804278    4.850361   -0.009138
  22 H     1.0000    0     1.008    4.081720    4.842998    1.644584
  23 H     1.0000    0     1.008    4.082782    4.850648   -1.662084
  24 C     6.0000    0    12.011    1.252887    7.292135   -0.004038
  25 H     1.0000    0     1.008    0.001116    7.341081   -1.676515
  26 H     1.0000    0     1.008   -0.001665    7.332341    1.666581
  27 C     6.0000    0    12.011    2.911791    9.668140    0.003413
  28 H     1.0000    0     1.008    4.168988    9.623096    1.672208
  29 H     1.0000    0     1.008    4.172435    9.631142   -1.662972
  30 C     6.0000    0    12.011    1.384000   12.124183    0.007789
  31 H     1.0000    0     1.008    0.153221   12.247679    1.687249
  32 H     1.0000    0     1.008    0.157348   12.256256   -1.674034
  33 C     6.0000    0    12.011    7.659646   -0.077837   -0.017722
  34 H     1.0000    0     1.008   -2.797668  -13.764489   -0.061769
  35 H     1.0000    0     1.008    2.625870   13.796131    0.013597
  36 C     6.0000    0    12.011   10.357943   -0.161856   -0.016225
  37 C     6.0000    0    12.011   11.645101   -2.499282   -0.023159
  38 C     6.0000    0    12.011   14.279499   -2.572442   -0.021531
  39 C     6.0000    0    12.011   15.679706   -0.328942   -0.013103
  40 C     6.0000    0    12.011   14.423433    1.998419   -0.006290
  41 C     6.0000    0    12.011   11.789718    2.089978   -0.007818
  42 H     1.0000    0     1.008   17.743224   -0.394519   -0.011848
  43 H     1.0000    0     1.008   15.505016    3.757482    0.000330
  44 H     1.0000    0     1.008   10.550119   -4.247595   -0.029780
  45 H     1.0000    0     1.008   10.806712    3.903684   -0.002449
  46 H     1.0000    0     1.008   15.249208   -4.395604   -0.026950

--------------------------------
INTERNAL COORDINATES (ANGSTROEM)
--------------------------------
 C      0   0   0     0.000000000000     0.00000000     0.00000000
 C      1   0   0     4.145956972330     0.00000000     0.00000000
 C      2   1   0     1.386705572751    64.00736294     0.00000000
 C      3   2   1     1.404267951800   113.80917769     0.00000000
 C      4   3   2     1.413787197441   122.12254984     0.00000000
 C      5   4   3     1.421244947863   120.96152510     0.00000000
 C      2   1   3     1.377062606787    63.38045054   179.98672725
 H      4   3   2     1.091467392313   120.06006875   180.00610204
 H      7   2   1     1.091419179036   121.06025554   179.99031170
 C      3   2   1     1.519395131551   121.85854189   179.99808656
 H     10   3   2     1.105422690072   108.09656554    56.50943260
 H     10   3   2     1.105448549626   108.09435705   303.20586723
 C     10   3   2     1.530848508559   116.41604721   179.86468520
 H     13  10   3     1.105700237225   109.74058441   301.89712942
 H     13  10   3     1.105702136890   109.74013782    58.23028527
 C     13  10   3     1.533228643071   112.75261366   180.05856701
 H     16  13  10     1.105940861893   109.22236151   302.36419181
 H     16  13  10     1.105940819044   109.22117694    57.72338683
 C     16  13  10     1.530687250755   113.16674899   180.04284764
 H     19  16  13     1.103762615619   111.29155407    59.87662583
 H     19  16  13     1.103764246698   111.29080235   300.15912779
 C      6   5   4     1.516471559442   120.03309389   179.99259452
 H     22   6   5     1.105804072622   108.13345201   303.69586697
 H     22   6   5     1.105816078214   108.13311618    56.41713002
 C     22   6   5     1.530877596450   116.82062797   180.05506339
 H     25  22   6     1.105778211995   109.85295917   301.70259723
 H     25  22   6     1.105776140534   109.85320595    58.23059783
 C     25  22   6     1.533465937956   112.64776606   179.96973985
 H     28  25  22     1.105898182379   109.19355319   302.31931063
 H     28  25  22     1.105895613498   109.19346700    57.64583295
 C     28  25  22     1.530622738703   113.19389718   179.98322094
 H     31  28  25     1.103769590186   111.29474515    59.84551868
 H     31  28  25     1.103768522177   111.29528239   300.12698471
 C      1   2   3     1.222004700144   178.23912351     3.69132463
 H     19  16  13     1.102115396255   111.49874449   180.01907338
 H     31  28  25     1.102123287121   111.51248324   179.98555342
 C     34   1   5     1.428569279574   179.83309015   317.50147920
 C     37  34   1     1.412059114205   120.62367126    30.27733087
 C     38  37  34     1.394601310200   120.43094264   180.00345416
 C     39  38  37     1.399465157304   120.37816545     0.00000000
 C     40  39  38     1.399559028655   119.67181994     0.00000000
 C     41  40  39     1.394544231546   120.35030040     0.00000000
 H     40  39  38     1.092518596414   120.14873255   179.99977903
 H     41  40  39     1.092743427941   120.05497762   179.99924884
 H     38  37  34     1.091649007667   119.10064703     0.00000000
 H     42  41  40     1.091678109648   120.44798239   179.99797555
 H     39  38  37     1.092758465741   119.59829225   179.99953192

---------------------------
INTERNAL COORDINATES (A.U.)
---------------------------
 C      0   0   0     0.000000000000     0.00000000     0.00000000
 C      1   0   0     7.834723240724     0.00000000     0.00000000
 C      2   1   0     2.620493760881    64.00736294     0.00000000
 C      3   2   1     2.653681847544   113.80917769     0.00000000
 C      4   3   2     2.671670614808   122.12254984     0.00000000
 C      5   4   3     2.685763720680   120.96152510     0.00000000
 C      2   1   3     2.602271196091    63.38045054   179.98672725
 H      4   3   2     2.062574455578   120.06006875   180.00610204
 H      7   2   1     2.062483345686   121.06025554   179.99031170
 C      3   2   1     2.871240687844   121.85854189   179.99808656
 H     10   3   2     2.088946146458   108.09656554    56.50943260
 H     10   3   2     2.088995013933   108.09435705   303.20586723
 C     10   3   2     2.892884433698   116.41604721   179.86468520
 H     13  10   3     2.089470634567   109.74058441   301.89712942
 H     13  10   3     2.089474224414   109.74013782    58.23028527
 C     13  10   3     2.897382236087   112.75261366   180.05856701
 H     16  13  10     2.089925349290   109.22236151   302.36419181
 H     16  13  10     2.089925268318   109.22117694    57.72338683
 C     16  13  10     2.892579700612   113.16674899   180.04284764
 H     19  16  13     2.085809060381   111.29155407    59.87662583
 H     19  16  13     2.085812142674   111.29080235   300.15912779
 C      6   5   4     2.865715937226   120.03309389   179.99259452
 H     22   6   5     2.089666855030   108.13345201   303.69586697
 H     22   6   5     2.089689542312   108.13311618    56.41713002
 C     22   6   5     2.892939401846   116.82062797   180.05506339
 H     25  22   6     2.089617985527   109.85295917   301.70259723
 H     25  22   6     2.089614071033   109.85320595    58.23059783
 C     25  22   6     2.897830658434   112.64776606   179.96973985
 H     28  25  22     2.089844696697   109.19355319   302.31931063
 H     28  25  22     2.089839842217   109.19346700    57.64583295
 C     28  25  22     2.892457790501   113.19389718   179.98322094
 H     31  28  25     2.085822240402   111.29474515    59.84551868
 H     31  28  25     2.085820222158   111.29528239   300.12698471
 C      1   2   3     2.309254217638   178.23912351     3.69132463
 H     19  16  13     2.082696266900   111.49874449   180.01907338
 H     31  28  25     2.082711178476   111.51248324   179.98555342
 C     34   1   5     2.699604701728   179.83309015   317.50147920
 C     37  34   1     2.668405010756   120.62367126    30.27733087
 C     38  37  34     2.635414542286   120.43094264   180.00345416
 C     39  38  37     2.644605881270   120.37816545     0.00000000
 C     40  39  38     2.644783272414   119.67181994     0.00000000
 C     41  40  39     2.635306679262   120.35030040     0.00000000
 H     40  39  38     2.064560943438   120.14873255   179.99977903
 H     41  40  39     2.064985813450   120.05497762   179.99924884
 H     38  37  34     2.062917658858   119.10064703     0.00000000
 H     42  41  40     2.062972653632   120.44798239   179.99797555
 H     39  38  37     2.065014230774   119.59829225   179.99953192

---------------------
BASIS SET INFORMATION
---------------------
There are 2 groups of distinct atoms

 Group   1 Type C   : 10s5p1d contracted to 6s2p1d pattern {511111/41/1}
 Group   2 Type H   : 6s1p contracted to 4s1p pattern {3111/1}

Atom   0C    basis set group =>   1
Atom   1C    basis set group =>   1
Atom   2C    basis set group =>   1
Atom   3C    basis set group =>   1
Atom   4C    basis set group =>   1
Atom   5C    basis set group =>   1
Atom   6C    basis set group =>   1
Atom   7H    basis set group =>   2
Atom   8H    basis set group =>   2
Atom   9C    basis set group =>   1
Atom  10H    basis set group =>   2
Atom  11H    basis set group =>   2
Atom  12C    basis set group =>   1
Atom  13H    basis set group =>   2
Atom  14H    basis set group =>   2
Atom  15C    basis set group =>   1
Atom  16H    basis set group =>   2
Atom  17H    basis set group =>   2
Atom  18C    basis set group =>   1
Atom  19H    basis set group =>   2
Atom  20H    basis set group =>   2
Atom  21C    basis set group =>   1
Atom  22H    basis set group =>   2
Atom  23H    basis set group =>   2
Atom  24C    basis set group =>   1
Atom  25H    basis set group =>   2
Atom  26H    basis set group =>   2
Atom  27C    basis set group =>   1
Atom  28H    basis set group =>   2
Atom  29H    basis set group =>   2
Atom  30C    basis set group =>   1
Atom  31H    basis set group =>   2
Atom  32H    basis set group =>   2
Atom  33C    basis set group =>   1
Atom  34H    basis set group =>   2
Atom  35H    basis set group =>   2
Atom  36C    basis set group =>   1
Atom  37C    basis set group =>   1
Atom  38C    basis set group =>   1
Atom  39C    basis set group =>   1
Atom  40C    basis set group =>   1
Atom  41C    basis set group =>   1
Atom  42H    basis set group =>   2
Atom  43H    basis set group =>   2
Atom  44H    basis set group =>   2
Atom  45H    basis set group =>   2
Atom  46H    basis set group =>   2
---------------------------------
AUXILIARY/J BASIS SET INFORMATION
---------------------------------
There are 2 groups of distinct atoms

 Group   1 Type C   : 17s13p12d2f contracted to 17s13p12d2f pattern {11111111111111111/1111111111111/111111111111/11}
 Group   2 Type H   : 15s6p1d contracted to 15s6p1d pattern {111111111111111/111111/1}

Atom   0C    basis set group =>   1
Atom   1C    basis set group =>   1
Atom   2C    basis set group =>   1
Atom   3C    basis set group =>   1
Atom   4C    basis set group =>   1
Atom   5C    basis set group =>   1
Atom   6C    basis set group =>   1
Atom   7H    basis set group =>   2
Atom   8H    basis set group =>   2
Atom   9C    basis set group =>   1
Atom  10H    basis set group =>   2
Atom  11H    basis set group =>   2
Atom  12C    basis set group =>   1
Atom  13H    basis set group =>   2
Atom  14H    basis set group =>   2
Atom  15C    basis set group =>   1
Atom  16H    basis set group =>   2
Atom  17H    basis set group =>   2
Atom  18C    basis set group =>   1
Atom  19H    basis set group =>   2
Atom  20H    basis set group =>   2
Atom  21C    basis set group =>   1
Atom  22H    basis set group =>   2
Atom  23H    basis set group =>   2
Atom  24C    basis set group =>   1
Atom  25H    basis set group =>   2
Atom  26H    basis set group =>   2
Atom  27C    basis set group =>   1
Atom  28H    basis set group =>   2
Atom  29H    basis set group =>   2
Atom  30C    basis set group =>   1
Atom  31H    basis set group =>   2
Atom  32H    basis set group =>   2
Atom  33C    basis set group =>   1
Atom  34H    basis set group =>   2
Atom  35H    basis set group =>   2
Atom  36C    basis set group =>   1
Atom  37C    basis set group =>   1
Atom  38C    basis set group =>   1
Atom  39C    basis set group =>   1
Atom  40C    basis set group =>   1
Atom  41C    basis set group =>   1
Atom  42H    basis set group =>   2
Atom  43H    basis set group =>   2
Atom  44H    basis set group =>   2
Atom  45H    basis set group =>   2
Atom  46H    basis set group =>   2
---------------------------------
AUXILIARY/C BASIS SET INFORMATION
---------------------------------
There are 2 groups of distinct atoms

 Group   1 Type C   : 17s13p12d2f contracted to 17s13p12d2f pattern {11111111111111111/1111111111111/111111111111/11}
 Group   2 Type H   : 15s6p1d contracted to 15s6p1d pattern {111111111111111/111111/1}

Atom   0C    basis set group =>   1
Atom   1C    basis set group =>   1
Atom   2C    basis set group =>   1
Atom   3C    basis set group =>   1
Atom   4C    basis set group =>   1
Atom   5C    basis set group =>   1
Atom   6C    basis set group =>   1
Atom   7H    basis set group =>   2
Atom   8H    basis set group =>   2
Atom   9C    basis set group =>   1
Atom  10H    basis set group =>   2
Atom  11H    basis set group =>   2
Atom  12C    basis set group =>   1
Atom  13H    basis set group =>   2
Atom  14H    basis set group =>   2
Atom  15C    basis set group =>   1
Atom  16H    basis set group =>   2
Atom  17H    basis set group =>   2
Atom  18C    basis set group =>   1
Atom  19H    basis set group =>   2
Atom  20H    basis set group =>   2
Atom  21C    basis set group =>   1
Atom  22H    basis set group =>   2
Atom  23H    basis set group =>   2
Atom  24C    basis set group =>   1
Atom  25H    basis set group =>   2
Atom  26H    basis set group =>   2
Atom  27C    basis set group =>   1
Atom  28H    basis set group =>   2
Atom  29H    basis set group =>   2
Atom  30C    basis set group =>   1
Atom  31H    basis set group =>   2
Atom  32H    basis set group =>   2
Atom  33C    basis set group =>   1
Atom  34H    basis set group =>   2
Atom  35H    basis set group =>   2
Atom  36C    basis set group =>   1
Atom  37C    basis set group =>   1
Atom  38C    basis set group =>   1
Atom  39C    basis set group =>   1
Atom  40C    basis set group =>   1
Atom  41C    basis set group =>   1
Atom  42H    basis set group =>   2
Atom  43H    basis set group =>   2
Atom  44H    basis set group =>   2
Atom  45H    basis set group =>   2
Atom  46H    basis set group =>   2
----------------------------------
AUXILIARY/JK BASIS SET INFORMATION
----------------------------------
There are 2 groups of distinct atoms

 Group   1 Type C   : 17s13p12d2f contracted to 17s13p12d2f pattern {11111111111111111/1111111111111/111111111111/11}
 Group   2 Type H   : 15s6p1d contracted to 15s6p1d pattern {111111111111111/111111/1}

Atom   0C    basis set group =>   1
Atom   1C    basis set group =>   1
Atom   2C    basis set group =>   1
Atom   3C    basis set group =>   1
Atom   4C    basis set group =>   1
Atom   5C    basis set group =>   1
Atom   6C    basis set group =>   1
Atom   7H    basis set group =>   2
Atom   8H    basis set group =>   2
Atom   9C    basis set group =>   1
Atom  10H    basis set group =>   2
Atom  11H    basis set group =>   2
Atom  12C    basis set group =>   1
Atom  13H    basis set group =>   2
Atom  14H    basis set group =>   2
Atom  15C    basis set group =>   1
Atom  16H    basis set group =>   2
Atom  17H    basis set group =>   2
Atom  18C    basis set group =>   1
Atom  19H    basis set group =>   2
Atom  20H    basis set group =>   2
Atom  21C    basis set group =>   1
Atom  22H    basis set group =>   2
Atom  23H    basis set group =>   2
Atom  24C    basis set group =>   1
Atom  25H    basis set group =>   2
Atom  26H    basis set group =>   2
Atom  27C    basis set group =>   1
Atom  28H    basis set group =>   2
Atom  29H    basis set group =>   2
Atom  30C    basis set group =>   1
Atom  31H    basis set group =>   2
Atom  32H    basis set group =>   2
Atom  33C    basis set group =>   1
Atom  34H    basis set group =>   2
Atom  35H    basis set group =>   2
Atom  36C    basis set group =>   1
Atom  37C    basis set group =>   1
Atom  38C    basis set group =>   1
Atom  39C    basis set group =>   1
Atom  40C    basis set group =>   1
Atom  41C    basis set group =>   1
Atom  42H    basis set group =>   2
Atom  43H    basis set group =>   2
Atom  44H    basis set group =>   2
Atom  45H    basis set group =>   2
Atom  46H    basis set group =>   2

Checking for AutoStart:
The File: EPRII_i.gbw exists
Trying to determine its content:
     ... Fine, the file contains calculation information
     ... Fine, the calculation information was read
     ... Fine, the file contains a basis set
     ... Fine, the basis set was read
     ... Fine, the file contains a geometry
     ... Fine, the geometry was read
     ... Fine, the file contains a set of orbitals
     ... Fine, the orbitals can be read
     => possible old guess file was deleted
     => GBW file was renamed to GES file
     => GES file is set as startup file
     => Guess is set to MORead
     ... now leaving AutoStart



           ************************************************************
           *        Program running with 16 parallel MPI-processes    *
           *              working on a common directory               *
           ************************************************************
------------------------------------------------------------------------------
                           ORCA GTO INTEGRAL CALCULATION
                           -- RI-GTO INTEGRALS CHOSEN --
------------------------------------------------------------------------------
------------------------------------------------------------------------------
                   ___                                                        
                  /   \      - P O W E R E D   B Y -                         
                 /     \                                                     
                 |  |  |   _    _      __       _____    __    __             
                 |  |  |  | |  | |    /  \     |  _  \  |  |  /  |          
                  \  \/   | |  | |   /    \    | | | |  |  | /  /          
                 / \  \   | |__| |  /  /\  \   | |_| |  |  |/  /          
                |  |  |   |  __  | /  /__\  \  |    /   |      \           
                |  |  |   | |  | | |   __   |  |    \   |  |\   \          
                \     /   | |  | | |  |  |  |  | |\  \  |  | \   \       
                 \___/    |_|  |_| |__|  |__|  |_| \__\ |__|  \__/        
                                                                              
                      - O R C A' S   B I G   F R I E N D -                    
                                      &                                       
                       - I N T E G R A L  F E E D E R -                       
                                                                              
 v1 FN, 2020, v2 2021                                                         
------------------------------------------------------------------------------


Reading SHARK input file EPRII_i.SHARKINP.tmp ... ok
----------------------
SHARK INTEGRAL PACKAGE
----------------------

Number of atoms                             ...     47
Number of basis functions                   ...    549
Number of shells                            ...    323
Maximum angular momentum                    ...      2
Integral batch strategy                     ... SHARK/LIBINT Hybrid
RI-J (if used) integral strategy            ... SPLIT-RIJ (Revised 2003 algorithm where possible)
Printlevel                                  ...      1
Contraction scheme used                     ... SEGMENTED contraction
Coulomb Range Separation                    ... NOT USED
Exchange Range Separation                   ... NOT USED
Finite Nucleus Model                        ... NOT USED
Auxiliary Coulomb fitting basis             ... AVAILABLE
   # of basis functions in Aux-J            ...   3810
   # of shells in Aux-J                     ...   1518
   Maximum angular momentum in Aux-J        ...      3
Auxiliary J/K fitting basis                 ... AVAILABLE
   # of basis functions in Aux-JK           ...   3810
   # of shells in Aux-JK                    ...   1518
   Maximum angular momentum in Aux-JK       ...      3
Auxiliary Correlation fitting basis         ... AVAILABLE
   # of basis functions in Aux-C            ...   3810
   # of shells in Aux-C                     ...   1518
   Maximum angular momentum in Aux-C        ...      3
Auxiliary 'external' fitting basis          ... NOT available
Integral threshold                          ...     1.000000e-10
Primitive cut-off                           ...     1.000000e-11
Primitive pair pre-selection threshold      ...     1.000000e-11

Calculating pre-screening integrals         ... done (  0.0 sec) Dimension = 323
Organizing shell pair data                  ... done (  0.2 sec)
Shell pair information
Total number of shell pairs                 ...     52326
Shell pairs after pre-screening             ...     26544
Total number of primitive shell pairs       ...    139555
Primitive shell pairs kept                  ...     49985
          la=0 lb=0:  12261 shell pairs
          la=1 lb=0:   9128 shell pairs
          la=1 lb=1:   1626 shell pairs
          la=2 lb=0:   2463 shell pairs
          la=2 lb=1:    927 shell pairs
          la=2 lb=2:    139 shell pairs

Calculating one electron integrals          ... done (  0.0 sec)
Calculating RI/J V-Matrix + Cholesky decomp.... done (  0.9 sec)
Calculating RI/JK V-Matrix + Cholesky decomp... done (  0.8 sec)
Calculating RI/C V-Matrix + Cholesky decomp.... done (  0.8 sec)
Calculating Nuclear repulsion               ... done (  0.0 sec) ENN=   1524.480174178007 Eh

SHARK setup successfully completed in   3.4 seconds

Maximum memory used throughout the entire GTOINT-calculation: 53.3 MB


           ************************************************************
           *        Program running with 16 parallel MPI-processes    *
           *              working on a common directory               *
           ************************************************************
-------------------------------------------------------------------------------
                                 ORCA SCF
-------------------------------------------------------------------------------

------------
SCF SETTINGS
------------
Hamiltonian:
 Density Functional     Method          .... DFT(GTOs)
 Exchange Functional    Exchange        .... B88
   X-Alpha parameter    XAlpha          ....  0.666667
   Becke's b parameter  XBeta           ....  0.004200
 Correlation Functional Correlation     .... LYP
 LDA part of GGA corr.  LDAOpt          .... VWN-5
 Gradients option       PostSCFGGA      .... off
 Hybrid DFT is turned on
   Fraction HF Exchange ScalHFX         ....  0.200000
   Scaling of DF-GGA-X  ScalDFX         ....  0.720000
   Scaling of DF-GGA-C  ScalDFC         ....  0.810000
   Scaling of DF-LDA-C  ScalLDAC        ....  1.000000
   Perturbative correction              ....  0.000000
   Density functional embedding theory  .... OFF
   NL short-range parameter             ....  4.800000
 RI-approximation to the Coulomb term is turned on
   Number of AuxJ basis functions       .... 3810
   RIJ-COSX (HFX calculated with COS-X)).... on


General Settings:
 Integral files         IntName         .... EPRII_i
 Hartree-Fock type      HFTyp           .... UHF
 Total Charge           Charge          ....    0
 Multiplicity           Mult            ....    2
 Number of Electrons    NEL             ....  157
 Basis Dimension        Dim             ....  549
 Nuclear Repulsion      ENuc            ....   1524.4801741780 Eh

Convergence Acceleration:
 DIIS                   CNVDIIS         .... on
   Start iteration      DIISMaxIt       ....    12
   Startup error        DIISStart       ....  0.200000
   # of expansion vecs  DIISMaxEq       ....     5
   Bias factor          DIISBfac        ....   1.050
   Max. coefficient     DIISMaxC        ....  10.000
 Trust-Rad. Augm. Hess. CNVTRAH         .... auto
   Auto Start mean grad. ratio tolernc. ....  1.125000
   Auto Start start iteration           ....     1
   Auto Start num. interpolation iter.  ....    10
   Max. Number of Micro iterations      ....    16
   Max. Number of Macro iterations      .... Maxiter - #DIIS iter
   Number of Davidson start vectors     ....     2
   Converg. threshold I  (grad. norm)   ....   5.000e-05
   Converg. threshold II (energy diff.) ....   1.000e-06
   Grad. Scal. Fac. for Micro threshold ....   0.100
   Minimum threshold for Micro iter.    ....   0.010
   NR start threshold (gradient norm)   ....   0.001
   Initial trust radius                 ....   0.400
   Minimum AH scaling param. (alpha)    ....   1.000
   Maximum AH scaling param. (alpha)    .... 1000.000
   Orbital update algorithm             .... Taylor
   White noise on init. David. guess    .... on
   Maximum white noise                  ....   0.010
   Quad. conv. algorithm                .... NR
 SOSCF                  CNVSOSCF        .... off
 Level Shifting         CNVShift        .... on
   Level shift para.    LevelShift      ....    0.2500
   Turn off err/grad.   ShiftErr        ....    0.0010
 Zerner damping         CNVZerner       .... off
 Static damping         CNVDamp         .... on
   Fraction old density DampFac         ....    0.7000
   Max. Damping (<1)    DampMax         ....    0.9800
   Min. Damping (>=0)   DampMin         ....    0.0000
   Turn off err/grad.   DampErr         ....    0.1000
 Fernandez-Rico         CNVRico         .... off

SCF Procedure:
 Maximum # iterations   MaxIter         ....   125
 SCF integral mode      SCFMode         .... Direct
   Integral package                     .... SHARK and LIBINT hybrid scheme
 Reset frequency        DirectResetFreq ....    20
 Integral Threshold     Thresh          ....  1.000e-10 Eh
 Primitive CutOff       TCut            ....  1.000e-11 Eh

Convergence Tolerance:
 Convergence Check Mode ConvCheckMode   .... Total+1el-Energy
 Convergence forced     ConvForced      .... 0
 Energy Change          TolE            ....  1.000e-06 Eh
 1-El. energy change                    ....  1.000e-03 Eh
 DIIS Error             TolErr          ....  1.000e-06


Diagonalization of the overlap matrix:
Smallest eigenvalue                        ... 7.944e-05
Time for diagonalization                   ...    0.057 sec
Threshold for overlap eigenvalues          ... 1.000e-08
Number of eigenvalues below threshold      ... 0
Time for construction of square roots      ...    0.058 sec
Total time needed                          ...    0.116 sec

---------------------
INITIAL GUESS: MOREAD
---------------------
Guess MOs are being read from file: EPRII_i.ges
Input Geometry matches current geometry (good)
Input basis set matches current basis set (good)
MOs were renormalized
MOs were reorthogonalized (Cholesky)
                      ------------------
                      INITIAL GUESS DONE (   0.2 sec)
                      ------------------
-------------------
DFT GRID GENERATION
-------------------

General Integration Accuracy     IntAcc      ... 4.388
Radial Grid Type                 RadialGrid  ... OptM3 with GC (2021)
Angular Grid (max. ang.)         AngularGrid ... 4 (Lebedev-302)
Angular grid pruning method      GridPruning ... 4 (adaptive)
Weight generation scheme         WeightScheme... Becke
Basis function cutoff            BFCut       ... 1.0000e-10
Integration weight cutoff        WCut        ... 1.0000e-14
Angular grids for H and He will be reduced by one unit
Partially contracted basis set               ... off
Rotationally invariant grid construction     ... off

Total number of grid points                  ...   211214
Total number of batches                      ...     3326
Average number of points per batch           ...       63
Average number of grid points per atom       ...     4494
Time for grid setup =    1.303 sec

--------------------
COSX GRID GENERATION
--------------------

GRIDX 1
-------
General Integration Accuracy     IntAcc      ... 3.816
Radial Grid Type                 RadialGrid  ... OptM3 with GC (2021)
Angular Grid (max. ang.)         AngularGrid ... 1 (Lebedev-50)
Angular grid pruning method      GridPruning ... 4 (adaptive)
Weight generation scheme         WeightScheme... Becke
Basis function cutoff            BFCut       ... 1.0000e-10
Integration weight cutoff        WCut        ... 1.0000e-14
Angular grids for H and He will be reduced by one unit
Partially contracted basis set               ... on
Rotationally invariant grid construction     ... off

Total number of grid points                  ...    26939
Total number of batches                      ...      446
Average number of points per batch           ...       60
Average number of grid points per atom       ...      573
UseSFitting                                  ... on

GRIDX 2
-------
General Integration Accuracy     IntAcc      ... 4.020
Radial Grid Type                 RadialGrid  ... OptM3 with GC (2021)
Angular Grid (max. ang.)         AngularGrid ... 2 (Lebedev-110)
Angular grid pruning method      GridPruning ... 4 (adaptive)
Weight generation scheme         WeightScheme... Becke
Basis function cutoff            BFCut       ... 1.0000e-10
Integration weight cutoff        WCut        ... 1.0000e-14
Angular grids for H and He will be reduced by one unit
Partially contracted basis set               ... on
Rotationally invariant grid construction     ... off

Total number of grid points                  ...    57171
Total number of batches                      ...      916
Average number of points per batch           ...       62
Average number of grid points per atom       ...     1216
UseSFitting                                  ... on

GRIDX 3
-------
General Integration Accuracy     IntAcc      ... 4.338
Radial Grid Type                 RadialGrid  ... OptM3 with GC (2021)
Angular Grid (max. ang.)         AngularGrid ... 3 (Lebedev-194)
Angular grid pruning method      GridPruning ... 4 (adaptive)
Weight generation scheme         WeightScheme... Becke
Basis function cutoff            BFCut       ... 1.0000e-10
Integration weight cutoff        WCut        ... 1.0000e-14
Angular grids for H and He will be reduced by one unit
Partially contracted basis set               ... on
Rotationally invariant grid construction     ... off

Total number of grid points                  ...   125073
Total number of batches                      ...     1980
Average number of points per batch           ...       63
Average number of grid points per atom       ...     2661
UseSFitting                                  ... on

Time for X-Grid setup             =    2.267 sec

--------------
SCF ITERATIONS
--------------
ITER       Energy         Delta-E        Max-DP      RMS-DP      [F,P]     Damp
               ***  Starting incremental Fock matrix formation  ***
  0   -852.8233754909   0.000000000000 0.00008479  0.00000038  0.0000327 0.7000
                 **** Energy Check signals convergence ****

               *****************************************************
               *                     SUCCESS                       *
               *           SCF CONVERGED AFTER   1 CYCLES          *
               *****************************************************

Old exchange energy                            =    -24.544998635 Eh
New exchange energy                            =    -24.544992603 Eh
Exchange energy change after final integration =      0.000006033 Eh
Total energy after final integration           =   -852.823369519 Eh
Final COS-X integration done in                =     8.563 sec

----------------
TOTAL SCF ENERGY
----------------

Total Energy       :         -852.82336952 Eh          -23206.50368 eV

Components:
Nuclear Repulsion  :         1524.48017418 Eh           41483.21451 eV
Electronic Energy  :        -2377.30354370 Eh          -64689.71819 eV
One Electron Energy:        -4176.83553447 Eh         -113657.47313 eV
Two Electron Energy:         1799.53199077 Eh           48967.75494 eV
Max COSX asymmetry :            0.00000380 Eh               0.00010 eV

Virial components:
Potential Energy   :        -1698.83581919 Eh          -46227.67281 eV
Kinetic Energy     :          846.01244967 Eh           23021.16913 eV
Virial Ratio       :            2.00805061


DFT components:
N(Alpha)           :       79.000177577521 electrons
N(Beta)            :       78.000178495058 electrons
N(Total)           :      157.000356072579 electrons
E(X)               :      -97.347697232872 Eh       
E(C)               :       -6.090121573080 Eh       
E(XC)              :     -103.437818805952 Eh       
DFET-embed. en.    :        0.000000000000 Eh       

---------------
SCF CONVERGENCE
---------------

  Last Energy change         ...   -6.1423e-08  Tolerance :   1.0000e-06
  Last MAX-Density change    ...    3.8804e-05  Tolerance :   1.0000e-05
  Last RMS-Density change    ...    1.5722e-07  Tolerance :   1.0000e-06
  Last DIIS Error            ...    1.9658e-05  Tolerance :   1.0000e-06

             **** THE GBW FILE WAS UPDATED (EPRII_i.gbw) ****
             **** DENSITY EPRII_i.scfp WAS UPDATED ****
             **** ENERGY FILE WAS UPDATED (EPRII_i.en.tmp) ****
----------------------
UHF SPIN CONTAMINATION
----------------------

Warning: in a DFT calculation there is little theoretical justification to 
         calculate <S**2> as in Hartree-Fock theory. We will do it anyways
         but you should keep in mind that the values have only limited relevance

Expectation value of <S**2>     :     0.759256
Ideal value S*(S+1) for S=0.5   :     0.750000
Deviation                       :     0.009256

             **** THE GBW FILE WAS UPDATED (EPRII_i.gbw) ****
             **** DENSITY EPRII_i.scfp WAS UPDATED ****
----------------
ORBITAL ENERGIES
----------------
                 SPIN UP ORBITALS
  NO   OCC          E(Eh)            E(eV) 
   0   1.0000     -10.225027      -278.2371 
   1   1.0000     -10.216630      -278.0086 
   2   1.0000     -10.213613      -277.9265 
   3   1.0000     -10.212727      -277.9024 
   4   1.0000     -10.209433      -277.8128 
   5   1.0000     -10.202984      -277.6373 
   6   1.0000     -10.202835      -277.6333 
   7   1.0000     -10.202645      -277.6281 
   8   1.0000     -10.202152      -277.6147 
   9   1.0000     -10.201949      -277.6091 
  10   1.0000     -10.201065      -277.5851 
  11   1.0000     -10.198887      -277.5258 
  12   1.0000     -10.198560      -277.5169 
  13   1.0000     -10.196232      -277.4536 
  14   1.0000     -10.190986      -277.3108 
  15   1.0000     -10.187925      -277.2275 
  16   1.0000     -10.183404      -277.1045 
  17   1.0000     -10.183159      -277.0978 
  18   1.0000     -10.183114      -277.0966 
  19   1.0000     -10.182897      -277.0907 
  20   1.0000     -10.173804      -276.8433 
  21   1.0000     -10.173738      -276.8415 
  22   1.0000      -0.870114       -23.6770 
  23   1.0000      -0.860915       -23.4267 
  24   1.0000      -0.812175       -22.1004 
  25   1.0000      -0.793865       -21.6022 
  26   1.0000      -0.786846       -21.4112 
  27   1.0000      -0.768772       -20.9193 
  28   1.0000      -0.759895       -20.6778 
  29   1.0000      -0.749100       -20.3840 
  30   1.0000      -0.730472       -19.8772 
  31   1.0000      -0.712836       -19.3973 
  32   1.0000      -0.697009       -18.9666 
  33   1.0000      -0.651461       -17.7271 
  34   1.0000      -0.630693       -17.1620 
  35   1.0000      -0.616867       -16.7858 
  36   1.0000      -0.607545       -16.5321 
  37   1.0000      -0.605558       -16.4781 
  38   1.0000      -0.581489       -15.8231 
  39   1.0000      -0.576266       -15.6810 
  40   1.0000      -0.562810       -15.3148 
  41   1.0000      -0.535867       -14.5817 
  42   1.0000      -0.506460       -13.7815 
  43   1.0000      -0.479119       -13.0375 
  44   1.0000      -0.470975       -12.8159 
  45   1.0000      -0.470854       -12.8126 
  46   1.0000      -0.469942       -12.7878 
  47   1.0000      -0.454834       -12.3767 
  48   1.0000      -0.441355       -12.0099 
  49   1.0000      -0.435956       -11.8630 
  50   1.0000      -0.426767       -11.6129 
  51   1.0000      -0.423337       -11.5196 
  52   1.0000      -0.422688       -11.5019 
  53   1.0000      -0.422266       -11.4905 
  54   1.0000      -0.416929       -11.3452 
  55   1.0000      -0.412987       -11.2379 
  56   1.0000      -0.411277       -11.1914 
  57   1.0000      -0.380997       -10.3675 
  58   1.0000      -0.377516       -10.2727 
  59   1.0000      -0.372400       -10.1335 
  60   1.0000      -0.365118        -9.9354 
  61   1.0000      -0.363718        -9.8973 
  62   1.0000      -0.359292        -9.7768 
  63   1.0000      -0.356819        -9.7095 
  64   1.0000      -0.349653        -9.5145 
  65   1.0000      -0.341126        -9.2825 
  66   1.0000      -0.332729        -9.0540 
  67   1.0000      -0.330957        -9.0058 
  68   1.0000      -0.326088        -8.8733 
  69   1.0000      -0.324095        -8.8191 
  70   1.0000      -0.322194        -8.7673 
  71   1.0000      -0.321594        -8.7510 
  72   1.0000      -0.312524        -8.5042 
  73   1.0000      -0.268551        -7.3077 
  74   1.0000      -0.266533        -7.2527 
  75   1.0000      -0.257060        -6.9949 
  76   1.0000      -0.242208        -6.5908 
  77   1.0000      -0.237151        -6.4532 
  78   1.0000      -0.209967        -5.7135 
  79   0.0000      -0.051419        -1.3992 
  80   0.0000      -0.012330        -0.3355 
  81   0.0000      -0.005332        -0.1451 
  82   0.0000       0.003521         0.0958 
  83   0.0000       0.015963         0.4344 
  84   0.0000       0.022076         0.6007 
  85   0.0000       0.023017         0.6263 
  86   0.0000       0.032129         0.8743 
  87   0.0000       0.034440         0.9371 
  88   0.0000       0.037179         1.0117 
  89   0.0000       0.045978         1.2511 
  90   0.0000       0.048528         1.3205 
  91   0.0000       0.056603         1.5402 
  92   0.0000       0.061269         1.6672 
  93   0.0000       0.067182         1.8281 
  94   0.0000       0.070951         1.9307 
  95   0.0000       0.077912         2.1201 
  96   0.0000       0.085571         2.3285 
  97   0.0000       0.092083         2.5057 
  98   0.0000       0.094780         2.5791 
  99   0.0000       0.100527         2.7355 
 100   0.0000       0.106734         2.9044 
 101   0.0000       0.118106         3.2138 
 102   0.0000       0.128794         3.5047 
 103   0.0000       0.138629         3.7723 
 104   0.0000       0.140003         3.8097 
 105   0.0000       0.152305         4.1444 
 106   0.0000       0.161995         4.4081 
 107   0.0000       0.168815         4.5937 
 108   0.0000       0.172754         4.7009 
 109   0.0000       0.177233         4.8227 
 110   0.0000       0.180770         4.9190 
 111   0.0000       0.191228         5.2036 
 112   0.0000       0.192447         5.2367 
 113   0.0000       0.192978         5.2512 
 114   0.0000       0.197781         5.3819 
 115   0.0000       0.199956         5.4411 
 116   0.0000       0.200926         5.4675 
 117   0.0000       0.207602         5.6491 
 118   0.0000       0.209564         5.7025 
 119   0.0000       0.215556         5.8656 
 120   0.0000       0.221666         6.0318 
 121   0.0000       0.221816         6.0359 
 122   0.0000       0.225303         6.1308 
 123   0.0000       0.230720         6.2782 
 124   0.0000       0.235387         6.4052 
 125   0.0000       0.240471         6.5436 
 126   0.0000       0.245207         6.6724 
 127   0.0000       0.251779         6.8512 
 128   0.0000       0.254041         6.9128 
 129   0.0000       0.255656         6.9568 
 130   0.0000       0.257179         6.9982 
 131   0.0000       0.259721         7.0674 
 132   0.0000       0.268078         7.2948 
 133   0.0000       0.274015         7.4563 
 134   0.0000       0.275479         7.4962 
 135   0.0000       0.277893         7.5619 
 136   0.0000       0.281238         7.6529 
 137   0.0000       0.283715         7.7203 
 138   0.0000       0.285126         7.7587 
 139   0.0000       0.291185         7.9235 
 140   0.0000       0.294473         8.0130 
 141   0.0000       0.295600         8.0437 
 142   0.0000       0.302525         8.2321 
 143   0.0000       0.303551         8.2600 
 144   0.0000       0.309234         8.4147 
 145   0.0000       0.310397         8.4463 
 146   0.0000       0.313148         8.5212 
 147   0.0000       0.314893         8.5687 
 148   0.0000       0.318477         8.6662 
 149   0.0000       0.321756         8.7554 
 150   0.0000       0.321973         8.7613 
 151   0.0000       0.328643         8.9428 
 152   0.0000       0.331919         9.0320 
 153   0.0000       0.334652         9.1063 
 154   0.0000       0.345288         9.3958 
 155   0.0000       0.346277         9.4227 
 156   0.0000       0.348728         9.4894 
 157   0.0000       0.350574         9.5396 
 158   0.0000       0.355076         9.6621 
 159   0.0000       0.367949        10.0124 
 160   0.0000       0.368609        10.0304 
 161   0.0000       0.373570        10.1653 
 162   0.0000       0.377912        10.2835 
 163   0.0000       0.379512        10.3270 
 164   0.0000       0.386951        10.5295 
 165   0.0000       0.393325        10.7029 
 166   0.0000       0.402699        10.9580 
 167   0.0000       0.405624        11.0376 
 168   0.0000       0.413129        11.2418 
 169   0.0000       0.417352        11.3567 
 170   0.0000       0.418500        11.3880 
 171   0.0000       0.423994        11.5375 
 172   0.0000       0.429624        11.6907 
 173   0.0000       0.433527        11.7969 
 174   0.0000       0.434436        11.8216 
 175   0.0000       0.439574        11.9614 
 176   0.0000       0.448748        12.2110 
 177   0.0000       0.452390        12.3102 
 178   0.0000       0.456788        12.4298 
 179   0.0000       0.457472        12.4484 
 180   0.0000       0.461461        12.5570 
 181   0.0000       0.468417        12.7463 
 182   0.0000       0.472609        12.8603 
 183   0.0000       0.476132        12.9562 
 184   0.0000       0.483162        13.1475 
 185   0.0000       0.483998        13.1703 
 186   0.0000       0.493139        13.4190 
 187   0.0000       0.499382        13.5889 
 188   0.0000       0.505818        13.7640 
 189   0.0000       0.516279        14.0487 
 190   0.0000       0.520606        14.1664 
 191   0.0000       0.521370        14.1872 
 192   0.0000       0.523765        14.2524 
 193   0.0000       0.535277        14.5656 
 194   0.0000       0.540563        14.7095 
 195   0.0000       0.545419        14.8416 
 196   0.0000       0.559918        15.2361 
 197   0.0000       0.561366        15.2756 
 198   0.0000       0.561848        15.2887 
 199   0.0000       0.566104        15.4045 
 200   0.0000       0.582178        15.8419 
 201   0.0000       0.592063        16.1109 
 202   0.0000       0.601219        16.3600 
 203   0.0000       0.602030        16.3821 
 204   0.0000       0.612256        16.6603 
 205   0.0000       0.628067        17.0906 
 206   0.0000       0.639597        17.4043 
 207   0.0000       0.643112        17.5000 
 208   0.0000       0.658138        17.9088 
 209   0.0000       0.660235        17.9659 
 210   0.0000       0.672272        18.2934 
 211   0.0000       0.674336        18.3496 
 212   0.0000       0.686584        18.6829 
 213   0.0000       0.695056        18.9134 
 214   0.0000       0.695406        18.9230 
 215   0.0000       0.715169        19.4607 
 216   0.0000       0.729601        19.8534 
 217   0.0000       0.756134        20.5755 
 218   0.0000       0.760355        20.6903 
 219   0.0000       0.766180        20.8488 
 220   0.0000       0.777445        21.1554 
 221   0.0000       0.783377        21.3168 
 222   0.0000       0.815052        22.1787 
 223   0.0000       0.833415        22.6784 
 224   0.0000       0.834802        22.7161 
 225   0.0000       0.843658        22.9571 
 226   0.0000       0.844917        22.9913 
 227   0.0000       0.848293        23.0832 
 228   0.0000       0.852785        23.2055 
 229   0.0000       0.865951        23.5637 
 230   0.0000       0.867367        23.6022 
 231   0.0000       0.867485        23.6055 
 232   0.0000       0.879883        23.9428 
 233   0.0000       0.893177        24.3046 
 234   0.0000       0.895072        24.3562 
 235   0.0000       0.897467        24.4213 
 236   0.0000       0.902372        24.5548 
 237   0.0000       0.904554        24.6142 
 238   0.0000       0.917285        24.9606 
 239   0.0000       0.920222        25.0405 
 240   0.0000       0.924257        25.1503 
 241   0.0000       0.924815        25.1655 
 242   0.0000       0.927714        25.2444 
 243   0.0000       0.932389        25.3716 
 244   0.0000       0.934853        25.4387 
 245   0.0000       0.937013        25.4974 
 246   0.0000       0.948596        25.8126 
 247   0.0000       0.950431        25.8625 
 248   0.0000       0.956222        26.0201 
 249   0.0000       0.968704        26.3598 
 250   0.0000       0.973638        26.4940 
 251   0.0000       0.978982        26.6395 
 252   0.0000       0.984187        26.7811 
 253   0.0000       0.984682        26.7946 
 254   0.0000       0.994269        27.0554 
 255   0.0000       0.996331        27.1115 
 256   0.0000       1.000373        27.2215 
 257   0.0000       1.004730        27.3401 
 258   0.0000       1.016357        27.6565 
 259   0.0000       1.016823        27.6692 
 260   0.0000       1.023228        27.8435 
 261   0.0000       1.026317        27.9275 
 262   0.0000       1.035026        28.1645 
 263   0.0000       1.043272        28.3889 
 264   0.0000       1.047661        28.5083 
 265   0.0000       1.055295        28.7160 
 266   0.0000       1.061035        28.8722 
 267   0.0000       1.067196        29.0399 
 268   0.0000       1.072359        29.1804 
 269   0.0000       1.091577        29.7033 
 270   0.0000       1.098769        29.8990 
 271   0.0000       1.100490        29.9458 
 272   0.0000       1.102436        29.9988 
 273   0.0000       1.115119        30.3439 
 274   0.0000       1.117784        30.4165 
 275   0.0000       1.124157        30.5899 
 276   0.0000       1.134124        30.8611 
 277   0.0000       1.146312        31.1927 
 278   0.0000       1.161607        31.6089 
 279   0.0000       1.170114        31.8404 
 280   0.0000       1.174881        31.9701 
 281   0.0000       1.177275        32.0353 
 282   0.0000       1.181664        32.1547 
 283   0.0000       1.199771        32.6474 
 284   0.0000       1.204306        32.7708 
 285   0.0000       1.204659        32.7804 
 286   0.0000       1.205245        32.7964 
 287   0.0000       1.232275        33.5319 
 288   0.0000       1.237803        33.6823 
 289   0.0000       1.251735        34.0614 
 290   0.0000       1.259943        34.2848 
 291   0.0000       1.274650        34.6850 
 292   0.0000       1.288157        35.0525 
 293   0.0000       1.296336        35.2751 
 294   0.0000       1.307370        35.5753 
 295   0.0000       1.315110        35.7860 
 296   0.0000       1.322429        35.9851 
 297   0.0000       1.327316        36.1181 
 298   0.0000       1.336701        36.3735 
 299   0.0000       1.357187        36.9309 
 300   0.0000       1.364138        37.1201 
 301   0.0000       1.382513        37.6201 
 302   0.0000       1.385141        37.6916 
 303   0.0000       1.390419        37.8352 
 304   0.0000       1.400451        38.1082 
 305   0.0000       1.410625        38.3851 
 306   0.0000       1.420998        38.6673 
 307   0.0000       1.425865        38.7998 
 308   0.0000       1.426782        38.8247 
 309   0.0000       1.442655        39.2566 
 310   0.0000       1.444648        39.3109 
 311   0.0000       1.450984        39.4833 
 312   0.0000       1.454045        39.5666 
 313   0.0000       1.455134        39.5962 
 314   0.0000       1.475451        40.1491 
 315   0.0000       1.482352        40.3368 
 316   0.0000       1.500370        40.8271 
 317   0.0000       1.505284        40.9609 
 318   0.0000       1.513628        41.1879 
 319   0.0000       1.516495        41.2659 
 320   0.0000       1.518381        41.3173 
 321   0.0000       1.524070        41.4721 
 322   0.0000       1.534043        41.7434 
 323   0.0000       1.550377        42.1879 
 324   0.0000       1.556445        42.3530 
 325   0.0000       1.560676        42.4682 
 326   0.0000       1.562730        42.5240 
 327   0.0000       1.568985        42.6943 
 328   0.0000       1.573807        42.8255 
 329   0.0000       1.582057        43.0499 
 330   0.0000       1.582921        43.0735 
 331   0.0000       1.590292        43.2741 
 332   0.0000       1.596915        43.4543 
 333   0.0000       1.600906        43.5629 
 334   0.0000       1.609240        43.7896 
 335   0.0000       1.619561        44.0705 
 336   0.0000       1.621752        44.1301 
 337   0.0000       1.624746        44.2116 
 338   0.0000       1.632499        44.4225 
 339   0.0000       1.637750        44.5654 
 340   0.0000       1.638626        44.5893 
 341   0.0000       1.643474        44.7212 
 342   0.0000       1.648367        44.8543 
 343   0.0000       1.659784        45.1650 
 344   0.0000       1.667996        45.3885 
 345   0.0000       1.678957        45.6867 
 346   0.0000       1.680366        45.7251 
 347   0.0000       1.685405        45.8622 
 348   0.0000       1.695004        46.1234 
 349   0.0000       1.700176        46.2642 
 350   0.0000       1.707687        46.4685 
 351   0.0000       1.708142        46.4809 
 352   0.0000       1.717319        46.7306 
 353   0.0000       1.724065        46.9142 
 354   0.0000       1.729445        47.0606 
 355   0.0000       1.734119        47.1878 
 356   0.0000       1.749661        47.6107 
 357   0.0000       1.757912        47.8352 
 358   0.0000       1.758729        47.8574 
 359   0.0000       1.772612        48.2352 
 360   0.0000       1.774164        48.2775 
 361   0.0000       1.777458        48.3671 
 362   0.0000       1.778477        48.3948 
 363   0.0000       1.787038        48.6278 
 364   0.0000       1.796758        48.8923 
 365   0.0000       1.805944        49.1422 
 366   0.0000       1.815722        49.4083 
 367   0.0000       1.816536        49.4304 
 368   0.0000       1.835321        49.9416 
 369   0.0000       1.843327        50.1595 
 370   0.0000       1.843410        50.1617 
 371   0.0000       1.855763        50.4979 
 372   0.0000       1.856794        50.5259 
 373   0.0000       1.864792        50.7436 
 374   0.0000       1.892970        51.5103 
 375   0.0000       1.904523        51.8247 
 376   0.0000       1.916083        52.1393 
 377   0.0000       1.928443        52.4756 
 378   0.0000       1.934818        52.6491 
 379   0.0000       1.942718        52.8640 
 380   0.0000       1.947212        52.9863 
 381   0.0000       1.954181        53.1760 
 382   0.0000       1.961787        53.3829 
 383   0.0000       1.976530        53.7841 
 384   0.0000       1.997382        54.3515 
 385   0.0000       2.025057        55.1046 
 386   0.0000       2.029174        55.2166 
 387   0.0000       2.030843        55.2620 
 388   0.0000       2.041094        55.5410 
 389   0.0000       2.043864        55.6164 
 390   0.0000       2.068778        56.2943 
 391   0.0000       2.072074        56.3840 
 392   0.0000       2.104803        57.2746 
 393   0.0000       2.115921        57.5771 
 394   0.0000       2.138153        58.1821 
 395   0.0000       2.140032        58.2332 
 396   0.0000       2.151641        58.5491 
 397   0.0000       2.157011        58.6952 
 398   0.0000       2.198894        59.8349 
 399   0.0000       2.204048        59.9752 
 400   0.0000       2.215827        60.2957 
 401   0.0000       2.223649        60.5086 
 402   0.0000       2.232694        60.7547 
 403   0.0000       2.250473        61.2385 
 404   0.0000       2.251471        61.2656 
 405   0.0000       2.254595        61.3507 
 406   0.0000       2.264223        61.6126 
 407   0.0000       2.287718        62.2520 
 408   0.0000       2.305907        62.7469 
 409   0.0000       2.314418        62.9785 
 410   0.0000       2.315994        63.0214 
 411   0.0000       2.318972        63.1024 
 412   0.0000       2.320162        63.1348 
 413   0.0000       2.345262        63.8178 
 414   0.0000       2.351044        63.9752 
 415   0.0000       2.375992        64.6540 
 416   0.0000       2.397995        65.2528 
 417   0.0000       2.404227        65.4223 
 418   0.0000       2.413030        65.6619 
 419   0.0000       2.416500        65.7563 
 420   0.0000       2.417948        65.7957 
 421   0.0000       2.426897        66.0392 
 422   0.0000       2.444969        66.5310 
 423   0.0000       2.454238        66.7832 
 424   0.0000       2.458238        66.8921 
 425   0.0000       2.462983        67.0212 
 426   0.0000       2.468551        67.1727 
 427   0.0000       2.472961        67.2927 
 428   0.0000       2.477743        67.4228 
 429   0.0000       2.493398        67.8488 
 430   0.0000       2.512306        68.3633 
 431   0.0000       2.515953        68.4626 
 432   0.0000       2.520694        68.5916 
 433   0.0000       2.532603        68.9156 
 434   0.0000       2.534198        68.9590 
 435   0.0000       2.548811        69.3567 
 436   0.0000       2.556357        69.5620 
 437   0.0000       2.568674        69.8972 
 438   0.0000       2.571918        69.9854 
 439   0.0000       2.586124        70.3720 
 440   0.0000       2.610797        71.0434 
 441   0.0000       2.611802        71.0707 
 442   0.0000       2.614082        71.1328 
 443   0.0000       2.618715        71.2589 
 444   0.0000       2.631163        71.5976 
 445   0.0000       2.649812        72.1051 
 446   0.0000       2.721905        74.0668 
 447   0.0000       2.732893        74.3658 
 448   0.0000       2.780167        75.6522 
 449   0.0000       2.797020        76.1108 
 450   0.0000       2.805677        76.3463 
 451   0.0000       2.937676        79.9382 
 452   0.0000       3.059464        83.2522 
 453   0.0000       3.184804        86.6629 
 454   0.0000       3.433447        93.4288 
 455   0.0000       4.983607       135.6108 
 456   0.0000       4.984478       135.6346 
 457   0.0000       5.006659       136.2381 
 458   0.0000       5.008680       136.2931 
 459   0.0000       5.009936       136.3273 
 460   0.0000       5.011572       136.3718 
 461   0.0000       5.021590       136.6444 
 462   0.0000       5.032187       136.9328 
 463   0.0000       5.034697       137.0011 
 464   0.0000       5.044147       137.2582 
 465   0.0000       5.047882       137.3598 
 466   0.0000       5.092120       138.5636 
 467   0.0000       5.098697       138.7426 
 468   0.0000       5.181112       140.9852 
 469   0.0000       5.199069       141.4739 
 470   0.0000       5.218216       141.9949 
 471   0.0000       5.232495       142.3834 
 472   0.0000       5.249575       142.8482 
 473   0.0000       5.255257       143.0028 
 474   0.0000       5.269438       143.3887 
 475   0.0000       5.285528       143.8265 
 476   0.0000       5.293403       144.0408 
 477   0.0000       5.299130       144.1967 
 478   0.0000       5.308225       144.4442 
 479   0.0000       5.312163       144.5513 
 480   0.0000       5.349661       145.5717 
 481   0.0000       5.372271       146.1869 
 482   0.0000       5.373052       146.2082 
 483   0.0000       5.414376       147.3327 
 484   0.0000       5.441332       148.0662 
 485   0.0000       5.445686       148.1846 
 486   0.0000       5.481653       149.1634 
 487   0.0000       5.496333       149.5628 
 488   0.0000       5.545385       150.8976 
 489   0.0000       5.586571       152.0183 
 490   0.0000       5.597657       152.3200 
 491   0.0000       5.627210       153.1242 
 492   0.0000       5.660865       154.0400 
 493   0.0000       5.679700       154.5525 
 494   0.0000       5.732038       155.9767 
 495   0.0000       5.747834       156.4065 
 496   0.0000       5.813637       158.1971 
 497   0.0000       5.854120       159.2987 
 498   0.0000       5.875666       159.8850 
 499   0.0000       5.909831       160.8147 
 500   0.0000       6.133923       166.9125 
 501   0.0000       6.310206       171.7094 
 502   0.0000      29.606944       805.6459 
 503   0.0000      29.736063       809.1594 
 504   0.0000      29.793404       810.7197 
 505   0.0000      29.829067       811.6902 
 506   0.0000      29.842189       812.0472 
 507   0.0000      29.861267       812.5664 
 508   0.0000      29.932184       814.4961 
 509   0.0000      29.958566       815.2140 
 510   0.0000      29.986569       815.9760 
 511   0.0000      29.999816       816.3365 
 512   0.0000      30.044911       817.5636 
 513   0.0000      30.078887       818.4881 
 514   0.0000      30.088654       818.7539 
 515   0.0000      30.115415       819.4821 
 516   0.0000      30.134801       820.0096 
 517   0.0000      30.171053       820.9961 
 518   0.0000      30.235152       822.7403 
 519   0.0000      30.255543       823.2952 
 520   0.0000      30.276860       823.8752 
 521   0.0000      30.295973       824.3953 
 522   0.0000      30.450542       828.6014 
 523   0.0000      30.533664       830.8632 
 524   0.0000      36.612072       996.2651 
 525   0.0000      36.612700       996.2822 
 526   0.0000      36.626861       996.6675 
 527   0.0000      36.629647       996.7434 
 528   0.0000      36.634669       996.8800 
 529   0.0000      36.637953       996.9694 
 530   0.0000      36.657927       997.5129 
 531   0.0000      36.661782       997.6178 
 532   0.0000      36.669933       997.8396 
 533   0.0000      36.672877       997.9197 
 534   0.0000      36.705441       998.8058 
 535   0.0000      36.719860       999.1982 
 536   0.0000      36.789938      1001.1051 
 537   0.0000      36.812395      1001.7162 
 538   0.0000      36.827846      1002.1366 
 539   0.0000      36.848758      1002.7057 
 540   0.0000      36.864077      1003.1225 
 541   0.0000      36.873926      1003.3905 
 542   0.0000      36.880551      1003.5708 
 543   0.0000      36.901573      1004.1428 
 544   0.0000      36.929213      1004.8950 
 545   0.0000      36.934183      1005.0302 
 546   0.0000      36.986551      1006.4552 
 547   0.0000      37.011845      1007.1435 
 548   0.0000      37.043876      1008.0151 

                 SPIN DOWN ORBITALS
  NO   OCC          E(Eh)            E(eV) 
   0   1.0000     -10.224965      -278.2354 
   1   1.0000     -10.217221      -278.0247 
   2   1.0000     -10.211370      -277.8655 
   3   1.0000     -10.209516      -277.8151 
   4   1.0000     -10.203021      -277.6383 
   5   1.0000     -10.202881      -277.6345 
   6   1.0000     -10.202708      -277.6298 
   7   1.0000     -10.202142      -277.6144 
   8   1.0000     -10.201949      -277.6091 
   9   1.0000     -10.199861      -277.5523 
  10   1.0000     -10.199241      -277.5354 
  11   1.0000     -10.198518      -277.5158 
  12   1.0000     -10.198411      -277.5129 
  13   1.0000     -10.196335      -277.4564 
  14   1.0000     -10.190526      -277.2983 
  15   1.0000     -10.187795      -277.2240 
  16   1.0000     -10.183400      -277.1044 
  17   1.0000     -10.183153      -277.0977 
  18   1.0000     -10.183106      -277.0964 
  19   1.0000     -10.182889      -277.0905 
  20   1.0000     -10.173800      -276.8432 
  21   1.0000     -10.173738      -276.8415 
  22   1.0000      -0.864509       -23.5245 
  23   1.0000      -0.860566       -23.4172 
  24   1.0000      -0.810349       -22.0507 
  25   1.0000      -0.793730       -21.5985 
  26   1.0000      -0.784665       -21.3518 
  27   1.0000      -0.766721       -20.8635 
  28   1.0000      -0.756156       -20.5761 
  29   1.0000      -0.749162       -20.3857 
  30   1.0000      -0.728652       -19.8276 
  31   1.0000      -0.710289       -19.3279 
  32   1.0000      -0.695113       -18.9150 
  33   1.0000      -0.650288       -17.6952 
  34   1.0000      -0.628720       -17.1083 
  35   1.0000      -0.614863       -16.7313 
  36   1.0000      -0.607557       -16.5325 
  37   1.0000      -0.600527       -16.3412 
  38   1.0000      -0.579710       -15.7747 
  39   1.0000      -0.571526       -15.5520 
  40   1.0000      -0.560722       -15.2580 
  41   1.0000      -0.535115       -14.5612 
  42   1.0000      -0.504987       -13.7414 
  43   1.0000      -0.478713       -13.0264 
  44   1.0000      -0.470877       -12.8132 
  45   1.0000      -0.469866       -12.7857 
  46   1.0000      -0.465823       -12.6757 
  47   1.0000      -0.454766       -12.3748 
  48   1.0000      -0.435767       -11.8578 
  49   1.0000      -0.433932       -11.8079 
  50   1.0000      -0.424390       -11.5482 
  51   1.0000      -0.423315       -11.5190 
  52   1.0000      -0.421807       -11.4780 
  53   1.0000      -0.421160       -11.4603 
  54   1.0000      -0.416819       -11.3422 
  55   1.0000      -0.411089       -11.1863 
  56   1.0000      -0.406459       -11.0603 
  57   1.0000      -0.381068       -10.3694 
  58   1.0000      -0.373653       -10.1676 
  59   1.0000      -0.371429       -10.1071 
  60   1.0000      -0.364095        -9.9075 
  61   1.0000      -0.361267        -9.8306 
  62   1.0000      -0.358478        -9.7547 
  63   1.0000      -0.356629        -9.7044 
  64   1.0000      -0.349655        -9.5146 
  65   1.0000      -0.340670        -9.2701 
  66   1.0000      -0.332101        -9.0369 
  67   1.0000      -0.329706        -8.9718 
  68   1.0000      -0.325519        -8.8578 
  69   1.0000      -0.323835        -8.8120 
  70   1.0000      -0.322116        -8.7652 
  71   1.0000      -0.319938        -8.7059 
  72   1.0000      -0.310931        -8.4609 
  73   1.0000      -0.266203        -7.2438 
  74   1.0000      -0.265603        -7.2274 
  75   1.0000      -0.257236        -6.9998 
  76   1.0000      -0.242285        -6.5929 
  77   1.0000      -0.206288        -5.6134 
  78   0.0000      -0.083808        -2.2805 
  79   0.0000      -0.047352        -1.2885 
  80   0.0000      -0.012479        -0.3396 
  81   0.0000      -0.005645        -0.1536 
  82   0.0000       0.008205         0.2233 
  83   0.0000       0.016020         0.4359 
  84   0.0000       0.022153         0.6028 
  85   0.0000       0.023333         0.6349 
  86   0.0000       0.033289         0.9058 
  87   0.0000       0.035259         0.9594 
  88   0.0000       0.037323         1.0156 
  89   0.0000       0.046002         1.2518 
  90   0.0000       0.048713         1.3255 
  91   0.0000       0.056623         1.5408 
  92   0.0000       0.061376         1.6701 
  93   0.0000       0.069101         1.8803 
  94   0.0000       0.073281         1.9941 
  95   0.0000       0.078109         2.1255 
  96   0.0000       0.085574         2.3286 
  97   0.0000       0.092083         2.5057 
  98   0.0000       0.097991         2.6665 
  99   0.0000       0.100395         2.7319 
 100   0.0000       0.107561         2.9269 
 101   0.0000       0.119207         3.2438 
 102   0.0000       0.129256         3.5172 
 103   0.0000       0.141824         3.8592 
 104   0.0000       0.142164         3.8685 
 105   0.0000       0.152823         4.1585 
 106   0.0000       0.163484         4.4486 
 107   0.0000       0.169428         4.6104 
 108   0.0000       0.172676         4.6988 
 109   0.0000       0.177254         4.8233 
 110   0.0000       0.180927         4.9233 
 111   0.0000       0.192288         5.2324 
 112   0.0000       0.193153         5.2560 
 113   0.0000       0.193678         5.2703 
 114   0.0000       0.197998         5.3878 
 115   0.0000       0.200546         5.4571 
 116   0.0000       0.200980         5.4690 
 117   0.0000       0.208945         5.6857 
 118   0.0000       0.209926         5.7124 
 119   0.0000       0.215499         5.8640 
 120   0.0000       0.222021         6.0415 
 121   0.0000       0.223071         6.0701 
 122   0.0000       0.225512         6.1365 
 123   0.0000       0.231808         6.3078 
 124   0.0000       0.235696         6.4136 
 125   0.0000       0.241980         6.5846 
 126   0.0000       0.245344         6.6761 
 127   0.0000       0.252010         6.8575 
 128   0.0000       0.254174         6.9164 
 129   0.0000       0.256162         6.9705 
 130   0.0000       0.258494         7.0340 
 131   0.0000       0.260800         7.0967 
 132   0.0000       0.268325         7.3015 
 133   0.0000       0.274457         7.4684 
 134   0.0000       0.275935         7.5086 
 135   0.0000       0.278651         7.5825 
 136   0.0000       0.282515         7.6876 
 137   0.0000       0.283824         7.7233 
 138   0.0000       0.286018         7.7830 
 139   0.0000       0.291515         7.9325 
 140   0.0000       0.295371         8.0375 
 141   0.0000       0.295667         8.0455 
 142   0.0000       0.304235         8.2787 
 143   0.0000       0.304273         8.2797 
 144   0.0000       0.310210         8.4413 
 145   0.0000       0.310877         8.4594 
 146   0.0000       0.313183         8.5221 
 147   0.0000       0.315398         8.5824 
 148   0.0000       0.319574         8.6960 
 149   0.0000       0.321859         8.7582 
 150   0.0000       0.322152         8.7662 
[...]
  Y           0.3668725            0.0035448            0.9302645
  Z           0.0017926           -0.9999936            0.0031036

Notes:  (1) The A matrix conforms to the "SAI" spin Hamiltonian convention.
        (2) Tensor is right-handed.

 -----------------------------------------------------------
 Nucleus  44H : A:ISTP=    1 I=  0.5 P=533.5514 MHz/au**3
                Q:ISTP=    2 I=  1.0 Q=  0.0029 barn     
 -----------------------------------------------------------
 Solving for nuclear perturbation:
Forming RHS of the CP-SCF equations         ... 
Calc. nucleus orbit integrals (SHARK)       ... done

------------------------------------------------------------------------------
                           ORCA CP-SCF CALCULATION
------------------------------------------------------------------------------

Input orbitals are from        ... EPRII_i.gbw
Input Perturbation             ... EPRII_i.pin.tmp
Wavefunction output            ... EPRII_i.pout.tmp
Perturbation mode              ... Imaginary perturbation
Solver                         ... POPLE
Max. number of iterations      ... 64
Convergence tolerance          ... 1.000e-03
Integral handling              ... Direct
DFT GridXC                     ... 1
COSX GridX                     ... 1
COSX IntAccX                   ... 3.067
COSX Algorithm                 ... Auto
Number of perturbations        ... 3
Number of operators            ... 2
Orbital ranges used for CP-SCF:
 Operator 0:  Orbitals   0... 78  to  79...548
 Operator 1:  Orbitals   0... 77  to  78...548
Variables per perturbation     ... 73868
DFT calculation                         ... on
XC functional terms                     ... off
Hybrid DFT                              ... on
   Exchange mixing (SCF)                ...  0.200
   Exchange mixing (CP-SCF)             ...  0.200
   GGA exch. scaling(SCF)               ...  0.720
   GGA exch. scaling (CP-SCF)           ...  0.720
   GGA corr. scaling (SCF)              ...  0.810
   GGA corr. scaling (CP-SCF)           ...  0.810

CP-SCF GRID
-----------

General Integration Accuracy     IntAcc      ... 3.467
Radial Grid Type                 RadialGrid  ... OptM3 with GC (2021)
Angular Grid (max. ang.)         AngularGrid ... 1 (Lebedev-50)
Angular grid pruning method      GridPruning ... 4 (adaptive)
Weight generation scheme         WeightScheme... Becke
Basis function cutoff            BFCut       ... 1.0000e-10
Integration weight cutoff        WCut        ... 1.0000e-14
Angular grids for H and He will be reduced by one unit
Partially contracted basis set               ... off
Rotationally invariant grid construction     ... off

Total number of grid points                  ...    30031
Total number of batches                      ...      490
Average number of points per batch           ...       61
Average number of grid points per atom       ...      639

CP-SCF GRIDX
------------

General Integration Accuracy     IntAcc      ... 3.067
Radial Grid Type                 RadialGrid  ... OptM3 with GC (2021)
Angular Grid (max. ang.)         AngularGrid ... 1 (Lebedev-50)
Angular grid pruning method      GridPruning ... 4 (adaptive)
Weight generation scheme         WeightScheme... Becke
Basis function cutoff            BFCut       ... 1.0000e-10
Integration weight cutoff        WCut        ... 1.0000e-14
Angular grids for H and He will be reduced by one unit
Partially contracted basis set               ... on
Rotationally invariant grid construction     ... off

Total number of grid points                  ...    14122
Total number of batches                      ...      250
Average number of points per batch           ...       56
Average number of grid points per atom       ...      300

Memory available               ... 863.3 MB
Memory needed per perturbation ...  17.7 MB
Perturbations treated per batch... 3
Number of batches              ... 1
     CP-SCF ITERATION   0:   4.5506e-02 (   1.9 sec   0/  3 done)
     CP-SCF ITERATION   1:   1.9004e-03 (   2.0 sec   0/  3 done)
     CP-SCF ITERATION   2:   1.3119e-04 (   2.0 sec   3/  3 done)
                    *** THE CP-SCF HAS CONVERGED ***

Forming final perturbed densities           ... done
Transforming perturbed density to AO basis  ... done

 Raw HFC matrix (all values in MHz): 
 -----------------------------------
                 0.7367              -0.2614              -0.0006
                -0.2613               0.0359              -0.0004
                -0.0006              -0.0004               0.1425

 A(FC)           0.3051               0.3051               0.3051
 A(SD)          -0.3559              -0.1626               0.5185
 A(ORB+DIA)      0.0001              -0.0000              -0.0001    A(PC) =  -0.0000
 A(ORB)         -0.0000              -0.0002              -0.0002    A(PC) =  -0.0001
 A(DIA)          0.0001               0.0002               0.0000    A(PC) =   0.0001
             ----------           ----------           ----------
 A(Tot)         -0.0508               0.1425               0.8234    A(iso)=    0.3050
 Orientation: 
  X           0.3150268            0.0003068           -0.9490827
  Y           0.9490787            0.0028267            0.3150264
  Z           0.0027794           -0.9999960            0.0005993

Notes:  (1) The A matrix conforms to the "SAI" spin Hamiltonian convention.
        (2) Tensor is right-handed.

 -----------------------------------------------------------
 Nucleus  45H : A:ISTP=    1 I=  0.5 P=533.5514 MHz/au**3
                Q:ISTP=    2 I=  1.0 Q=  0.0029 barn     
 -----------------------------------------------------------
 Solving for nuclear perturbation:
Forming RHS of the CP-SCF equations         ... 
Calc. nucleus orbit integrals (SHARK)       ... done

------------------------------------------------------------------------------
                           ORCA CP-SCF CALCULATION
------------------------------------------------------------------------------

Input orbitals are from        ... EPRII_i.gbw
Input Perturbation             ... EPRII_i.pin.tmp
Wavefunction output            ... EPRII_i.pout.tmp
Perturbation mode              ... Imaginary perturbation
Solver                         ... POPLE
Max. number of iterations      ... 64
Convergence tolerance          ... 1.000e-03
Integral handling              ... Direct
DFT GridXC                     ... 1
COSX GridX                     ... 1
COSX IntAccX                   ... 3.067
COSX Algorithm                 ... Auto
Number of perturbations        ... 3
Number of operators            ... 2
Orbital ranges used for CP-SCF:
 Operator 0:  Orbitals   0... 78  to  79...548
 Operator 1:  Orbitals   0... 77  to  78...548
Variables per perturbation     ... 73868
DFT calculation                         ... on
XC functional terms                     ... off
Hybrid DFT                              ... on
   Exchange mixing (SCF)                ...  0.200
   Exchange mixing (CP-SCF)             ...  0.200
   GGA exch. scaling(SCF)               ...  0.720
   GGA exch. scaling (CP-SCF)           ...  0.720
   GGA corr. scaling (SCF)              ...  0.810
   GGA corr. scaling (CP-SCF)           ...  0.810

CP-SCF GRID
-----------

General Integration Accuracy     IntAcc      ... 3.467
Radial Grid Type                 RadialGrid  ... OptM3 with GC (2021)
Angular Grid (max. ang.)         AngularGrid ... 1 (Lebedev-50)
Angular grid pruning method      GridPruning ... 4 (adaptive)
Weight generation scheme         WeightScheme... Becke
Basis function cutoff            BFCut       ... 1.0000e-10
Integration weight cutoff        WCut        ... 1.0000e-14
Angular grids for H and He will be reduced by one unit
Partially contracted basis set               ... off
Rotationally invariant grid construction     ... off

Total number of grid points                  ...    30031
Total number of batches                      ...      490
Average number of points per batch           ...       61
Average number of grid points per atom       ...      639

CP-SCF GRIDX
------------

General Integration Accuracy     IntAcc      ... 3.067
Radial Grid Type                 RadialGrid  ... OptM3 with GC (2021)
Angular Grid (max. ang.)         AngularGrid ... 1 (Lebedev-50)
Angular grid pruning method      GridPruning ... 4 (adaptive)
Weight generation scheme         WeightScheme... Becke
Basis function cutoff            BFCut       ... 1.0000e-10
Integration weight cutoff        WCut        ... 1.0000e-14
Angular grids for H and He will be reduced by one unit
Partially contracted basis set               ... on
Rotationally invariant grid construction     ... off

Total number of grid points                  ...    14122
Total number of batches                      ...      250
Average number of points per batch           ...       56
Average number of grid points per atom       ...      300

Memory available               ... 862.6 MB
Memory needed per perturbation ...  17.7 MB
Perturbations treated per batch... 3
Number of batches              ... 1
     CP-SCF ITERATION   0:   4.5668e-02 (   2.2 sec   0/  3 done)
     CP-SCF ITERATION   1:   1.9126e-03 (   2.0 sec   0/  3 done)
     CP-SCF ITERATION   2:   1.3780e-04 (   2.0 sec   3/  3 done)
                    *** THE CP-SCF HAS CONVERGED ***

Forming final perturbed densities           ... done
Transforming perturbed density to AO basis  ... done

 Raw HFC matrix (all values in MHz): 
 -----------------------------------
                 0.7475               0.2238               0.0011
                 0.2237               0.0233              -0.0002
                 0.0011              -0.0002               0.1498

 A(FC)           0.3069               0.3069               0.3069
 A(SD)          -0.3472              -0.1571               0.5042
 A(ORB+DIA)      0.0000              -0.0000              -0.0002    A(PC) =  -0.0001
 A(ORB)         -0.0001              -0.0002              -0.0002    A(PC) =  -0.0001
 A(DIA)          0.0001               0.0002               0.0000    A(PC) =   0.0001
             ----------           ----------           ----------
 A(Tot)         -0.0402               0.1498               0.8110    A(iso)=    0.3069
 Orientation: 
  X           0.2733045            0.0007923            0.9619273
  Y          -0.9619242            0.0028611            0.2733012
  Z          -0.0025356           -0.9999956            0.0015441

Notes:  (1) The A matrix conforms to the "SAI" spin Hamiltonian convention.
        (2) Tensor is right-handed.

 -----------------------------------------------------------
 Nucleus  46H : A:ISTP=    1 I=  0.5 P=533.5514 MHz/au**3
                Q:ISTP=    2 I=  1.0 Q=  0.0029 barn     
 -----------------------------------------------------------
 Solving for nuclear perturbation:
Forming RHS of the CP-SCF equations         ... 
Calc. nucleus orbit integrals (SHARK)       ... done

------------------------------------------------------------------------------
                           ORCA CP-SCF CALCULATION
------------------------------------------------------------------------------

Input orbitals are from        ... EPRII_i.gbw
Input Perturbation             ... EPRII_i.pin.tmp
Wavefunction output            ... EPRII_i.pout.tmp
Perturbation mode              ... Imaginary perturbation
Solver                         ... POPLE
Max. number of iterations      ... 64
Convergence tolerance          ... 1.000e-03
Integral handling              ... Direct
DFT GridXC                     ... 1
COSX GridX                     ... 1
COSX IntAccX                   ... 3.067
COSX Algorithm                 ... Auto
Number of perturbations        ... 3
Number of operators            ... 2
Orbital ranges used for CP-SCF:
 Operator 0:  Orbitals   0... 78  to  79...548
 Operator 1:  Orbitals   0... 77  to  78...548
Variables per perturbation     ... 73868
DFT calculation                         ... on
XC functional terms                     ... off
Hybrid DFT                              ... on
   Exchange mixing (SCF)                ...  0.200
   Exchange mixing (CP-SCF)             ...  0.200
   GGA exch. scaling(SCF)               ...  0.720
   GGA exch. scaling (CP-SCF)           ...  0.720
   GGA corr. scaling (SCF)              ...  0.810
   GGA corr. scaling (CP-SCF)           ...  0.810

CP-SCF GRID
-----------

General Integration Accuracy     IntAcc      ... 3.467
Radial Grid Type                 RadialGrid  ... OptM3 with GC (2021)
Angular Grid (max. ang.)         AngularGrid ... 1 (Lebedev-50)
Angular grid pruning method      GridPruning ... 4 (adaptive)
Weight generation scheme         WeightScheme... Becke
Basis function cutoff            BFCut       ... 1.0000e-10
Integration weight cutoff        WCut        ... 1.0000e-14
Angular grids for H and He will be reduced by one unit
Partially contracted basis set               ... off
Rotationally invariant grid construction     ... off

Total number of grid points                  ...    30031
Total number of batches                      ...      490
Average number of points per batch           ...       61
Average number of grid points per atom       ...      639

CP-SCF GRIDX
------------

General Integration Accuracy     IntAcc      ... 3.067
Radial Grid Type                 RadialGrid  ... OptM3 with GC (2021)
Angular Grid (max. ang.)         AngularGrid ... 1 (Lebedev-50)
Angular grid pruning method      GridPruning ... 4 (adaptive)
Weight generation scheme         WeightScheme... Becke
Basis function cutoff            BFCut       ... 1.0000e-10
Integration weight cutoff        WCut        ... 1.0000e-14
Angular grids for H and He will be reduced by one unit
Partially contracted basis set               ... on
Rotationally invariant grid construction     ... off

Total number of grid points                  ...    14122
Total number of batches                      ...      250
Average number of points per batch           ...       56
Average number of grid points per atom       ...      300

Memory available               ... 862.0 MB
Memory needed per perturbation ...  17.7 MB
Perturbations treated per batch... 3
Number of batches              ... 1
     CP-SCF ITERATION   0:   4.1765e-02 (   1.9 sec   0/  3 done)
     CP-SCF ITERATION   1:   1.6832e-03 (   1.9 sec   2/  3 done)
     CP-SCF ITERATION   2:   7.6100e-05 (   1.3 sec   3/  3 done)
                    *** THE CP-SCF HAS CONVERGED ***

Forming final perturbed densities           ... done
Transforming perturbed density to AO basis  ... done

 Raw HFC matrix (all values in MHz): 
 -----------------------------------
                -0.0143              -0.0896              -0.0002
                -0.0896              -0.1797              -0.0001
                -0.0002              -0.0001              -0.1675

 A(FC)          -0.1205              -0.1205              -0.1205
 A(SD)           0.1454              -0.0469              -0.0985
 A(ORB+DIA)      0.0000               0.0000               0.0001    A(PC) =   0.0000
 A(ORB)         -0.0000              -0.0001              -0.0000    A(PC) =  -0.0000
 A(DIA)          0.0000               0.0001               0.0001    A(PC) =   0.0001
             ----------           ----------           ----------
 A(Tot)          0.0249              -0.1675              -0.2190    A(iso)=   -0.1205
 Orientation: 
  X           0.9159867            0.0006821            0.4012080
  Y          -0.4012078            0.0035626            0.9159801
  Z          -0.0008046           -0.9999934            0.0035370

Notes:  (1) The A matrix conforms to the "SAI" spin Hamiltonian convention.
        (2) Tensor is right-handed.


--------------------------------------------------------------------------------
----------------------------------------------------------------------------
                           ORCA EULER ANGLE PROGRAM
----------------------------------------------------------------------------

Only g-tensor available        -->  using g-tensor as reference tensor

Reference tensor               ...  g

g-tensor ordering              ...  |g_min> --> |gx>
                                    |g_mid> --> |gy>
                                    |g_max> --> |gz>

A- and EFG-tensor ordering     ...  the axes |Ax>, |Qx>, |Ay>, etc. are assigned
                                    such that the Euler rotation is minimal. You
                                    can find the respective eigenvalues as Ax,
                                    EFGx, Ay, etc. in the tables below.
                                    The relation of |Ax>, |Ay>,  etc. to Amin, Amid, etc.
                                    (as printed in the ORCA EPR/NMR CALCULATION Output)
                                    is obtained in the detailed printout.

Euler rotation around          ...  z - y - z
   First rotation              -->  by alpha around z
   Second rotation             -->  by beta around y'
   Third rotation              -->  by gamma around z''
   Positive / Negative angle   -->  clockwise / counterclockwise rotation

Plot EFG-tensors                    (-)
Plot HFC-tensors                    (-)
Detailed Printout                   (-)

-------------------------------------------------------------------------
          Euler rotation of hyperfine tensor to g-tensor
-------------------------------------------------------------------------

-------------------------------------------------------------------
 Atom  |   Alpha    Beta    Gamma   |   Ax       Ay       Az 
       |          [degrees]         |           [MHz]         
-------------------------------------------------------------------
  7H       43.7      0.0      0.0      28.84    21.20    20.61
  8H       -6.4      0.0      0.0      69.33    51.39    50.41
 10H     -129.5     35.3    112.9       2.18    -7.45    -8.72
 11H       50.5     35.4    -67.1       2.15    -7.46    -8.72
 13H     -161.9     15.2   -177.5       2.14    -0.76    -1.02
 14H       17.7     15.0      2.9       2.14    -0.76    -1.02
 16H       59.7     21.9    -67.3       1.09    -0.56    -0.62
 17H     -120.4     22.0    112.8       1.09    -0.56    -0.62
 19H      -68.9     23.9     85.1       0.52    -0.28    -0.30
 20H      111.4     23.9    -95.2       0.52    -0.28    -0.30
 22H     -140.9     29.4   -177.9       3.03     6.38     3.67
 23H       39.2     29.3      1.9       3.03     6.38     3.66
 25H      -49.1     21.6     35.4       2.37    -0.45    -0.63
 26H      131.1     21.6   -144.8       2.37    -0.46    -0.63
 28H     -169.2     10.4    138.3       0.66    -0.36    -0.38
 29H       11.0     10.4    -41.9       0.66    -0.36    -0.38
 31H      137.4     11.0   -146.5       0.53    -0.25    -0.27
 32H      -42.8     10.9     33.7       0.53    -0.25    -0.27
 34H        2.5      0.0      0.0       0.50    -0.11    -0.13
 35H      -17.6      0.0      0.0       0.32    -0.18    -0.19
 42H      141.8      0.1   -141.2       0.45     0.26     0.27
 43H     -173.7      0.1   -161.7      -0.22     0.02    -0.17
 44H      -15.4      0.0      0.0      -0.05     0.82     0.14
 45H       18.9      0.0      0.0      -0.04     0.81     0.15
 46H      145.6      0.1   -166.2      -0.22     0.02    -0.17
-------------------------------------------------------------------


Maximum memory used throughout the entire EPRNMR-calculation: 251.5 MB

Timings for individual modules:

Sum of individual times         ...     4485.754 sec (=  74.763 min)
GTO integral calculation        ...        5.888 sec (=   0.098 min)   0.1 %
Spin-Orbit-Coupling Matrices    ...       12.539 sec (=   0.209 min)   0.3 %
SCF iterations                  ...       32.135 sec (=   0.536 min)   0.7 %
EPR/NMR calculation             ...     4435.192 sec (=  73.920 min)  98.9 %
                             ****ORCA TERMINATED NORMALLY****
TOTAL RUN TIME: 0 days 1 hours 14 minutes 50 seconds 292 msec
