
                                 *****************
                                 * O   R   C   A *
                                 *****************

                                            #,                                       
                                            ###                                      
                                            ####                                     
                                            #####                                    
                                            ######                                   
                                           ########,                                 
                                     ,,################,,,,,                         
                               ,,#################################,,                 
                          ,,##########################################,,             
                       ,#########################################, ''#####,          
                    ,#############################################,,   '####,        
                  ,##################################################,,,,####,       
                ,###########''''           ''''###############################       
              ,#####''   ,,,,##########,,,,          '''####'''          '####       
            ,##' ,,,,###########################,,,                        '##       
           ' ,,###''''                  '''############,,,                           
         ,,##''                                '''############,,,,        ,,,,,,###''
      ,#''                                            '''#######################'''  
     '                                                          ''''####''''         
             ,#######,   #######,   ,#######,      ##                                
            ,#'     '#,  ##    ##  ,#'     '#,    #''#        ######   ,####,        
            ##       ##  ##   ,#'  ##            #'  '#       #        #'  '#        
            ##       ##  #######   ##           ,######,      #####,   #    #        
            '#,     ,#'  ##    ##  '#,     ,#' ,#      #,         ##   #,  ,#        
             '#######'   ##     ##  '#######'  #'      '#     #####' # '####'        



                  #######################################################
                  #                        -***-                        #
                  #          Department of theory and spectroscopy      #
                  #    Directorship and core code : Frank Neese         #
                  #        Max Planck Institute fuer Kohlenforschung    #
                  #                Kaiser Wilhelm Platz 1               #
                  #                 D-45470 Muelheim/Ruhr               #
                  #                      Germany                        #
                  #                                                     #
                  #                  All rights reserved                #
                  #                        -***-                        #
                  #######################################################


                         Program Version 5.0.4 -  RELEASE  -


 With contributions from (in alphabetic order):
   Daniel Aravena         : Magnetic Suceptibility
   Michael Atanasov       : Ab Initio Ligand Field Theory (pilot matlab implementation)
   Alexander A. Auer      : GIAO ZORA, VPT2 properties, NMR spectrum
   Ute Becker             : Parallelization
   Giovanni Bistoni       : ED, misc. LED, open-shell LED, HFLD
   Martin Brehm           : Molecular dynamics
   Dmytro Bykov           : SCF Hessian
   Vijay G. Chilkuri      : MRCI spin determinant printing, contributions to CSF-ICE
   Dipayan Datta          : RHF DLPNO-CCSD density
   Achintya Kumar Dutta   : EOM-CC, STEOM-CC
   Dmitry Ganyushin       : Spin-Orbit,Spin-Spin,Magnetic field MRCI
   Miquel Garcia          : C-PCM and meta-GGA Hessian, CC/C-PCM, Gaussian charge scheme
   Yang Guo               : DLPNO-NEVPT2, F12-NEVPT2, CIM, IAO-localization
   Andreas Hansen         : Spin unrestricted coupled pair/coupled cluster methods
   Benjamin Helmich-Paris : MC-RPA, TRAH-SCF, COSX integrals
   Lee Huntington         : MR-EOM, pCC
   Robert Izsak           : Overlap fitted RIJCOSX, COSX-SCS-MP3, EOM
   Marcus Kettner         : VPT2
   Christian Kollmar      : KDIIS, OOCD, Brueckner-CCSD(T), CCSD density, CASPT2, CASPT2-K
   Simone Kossmann        : Meta GGA functionals, TD-DFT gradient, OOMP2, MP2 Hessian
   Martin Krupicka        : Initial AUTO-CI
   Lucas Lang             : DCDCAS
   Marvin Lechner         : AUTO-CI (C++ implementation), FIC-MRCC
   Dagmar Lenk            : GEPOL surface, SMD
   Dimitrios Liakos       : Extrapolation schemes; Compound Job, initial MDCI parallelization
   Dimitrios Manganas     : Further ROCIS development; embedding schemes
   Dimitrios Pantazis     : SARC Basis sets
   Anastasios Papadopoulos: AUTO-CI, single reference methods and gradients
   Taras Petrenko         : DFT Hessian,TD-DFT gradient, ASA, ECA, R-Raman, ABS, FL, XAS/XES, NRVS
   Peter Pinski           : DLPNO-MP2, DLPNO-MP2 Gradient
   Christoph Reimann      : Effective Core Potentials
   Marius Retegan         : Local ZFS, SOC
   Christoph Riplinger    : Optimizer, TS searches, QM/MM, DLPNO-CCSD(T), (RO)-DLPNO pert. Triples
   Tobias Risthaus        : Range-separated hybrids, TD-DFT gradient, RPA, STAB
   Michael Roemelt        : Original ROCIS implementation
   Masaaki Saitow         : Open-shell DLPNO-CCSD energy and density
   Barbara Sandhoefer     : DKH picture change effects
   Avijit Sen             : IP-ROCIS
   Kantharuban Sivalingam : CASSCF convergence, NEVPT2, FIC-MRCI
   Bernardo de Souza      : ESD, SOC TD-DFT
   Georgi Stoychev        : AutoAux, RI-MP2 NMR, DLPNO-MP2 response
   Willem Van den Heuvel  : Paramagnetic NMR
   Boris Wezisla          : Elementary symmetry handling
   Frank Wennmohs         : Technical directorship


 We gratefully acknowledge several colleagues who have allowed us to
 interface, adapt or use parts of their codes:
   Stefan Grimme, W. Hujo, H. Kruse, P. Pracht,  : VdW corrections, initial TS optimization,
                  C. Bannwarth, S. Ehlert          DFT functionals, gCP, sTDA/sTD-DF
   Ed Valeev, F. Pavosevic, A. Kumar             : LibInt (2-el integral package), F12 methods
   Garnet Chan, S. Sharma, J. Yang, R. Olivares  : DMRG
   Ulf Ekstrom                                   : XCFun DFT Library
   Mihaly Kallay                                 : mrcc  (arbitrary order and MRCC methods)
   Jiri Pittner, Ondrej Demel                    : Mk-CCSD
   Frank Weinhold                                : gennbo (NPA and NBO analysis)
   Christopher J. Cramer and Donald G. Truhlar   : smd solvation model
   Lars Goerigk                                  : TD-DFT with DH, B97 family of functionals
   V. Asgeirsson, H. Jonsson                     : NEB implementation
   FAccTs GmbH                                   : IRC, NEB, NEB-TS, DLPNO-Multilevel, CI-OPT
                                                   MM, QMMM, 2- and 3-layer-ONIOM, Crystal-QMMM,
                                                   LR-CPCM, SF, NACMEs, symmetry and pop. for TD-DFT,
                                                   nearIR, NL-DFT gradient (VV10), updates on ESD,
                                                   ML-optimized integration grids
   S Lehtola, MJT Oliveira, MAL Marques          : LibXC Library
   Liviu Ungur et al                             : ANISO software


 Your calculation uses the libint2 library for the computation of 2-el integrals
 For citations please refer to: http://libint.valeyev.net

 Your ORCA version has been built with support for libXC version: 5.1.0
 For citations please refer to: https://tddft.org/programs/libxc/

 This ORCA versions uses:
   CBLAS   interface :  Fast vector & matrix operations
   LAPACKE interface :  Fast linear algebra routines
   SCALAPACK package :  Parallel linear algebra routines
   Shared memory     :  Shared parallel matrices
   BLAS/LAPACK       :  OpenBLAS 0.3.15  USE64BITINT DYNAMIC_ARCH NO_AFFINITY SkylakeX SINGLE_THREADED
        Core in use  :  SkylakeX
   Copyright (c) 2011-2014, The OpenBLAS Project




***************************************
The coordinates will be read from file: opt_EPRII.xyz
***************************************


================================================================================

----- Orbital basis set information -----
Your calculation utilizes the basis: EPR-II
   V. Barone, in Recent Advances in Density Functional Methods, Part 1 (ed. D. P. Chong), World Scientific, Singapore, 1995, p. 287.

----- AuxJ basis set information -----
Your calculation utilizes the AutoAux generation procedure.
  G. L. Stoychev, A. A. Auer, F. Neese, J. Chem. Theory Comput. 13, 554 (2017)

----- AuxC basis set information -----
Your calculation utilizes the AutoAux generation procedure.
  G. L. Stoychev, A. A. Auer, F. Neese, J. Chem. Theory Comput. 13, 554 (2017)

----- AuxJK basis set information -----
Your calculation utilizes the AutoAux generation procedure.
  G. L. Stoychev, A. A. Auer, F. Neese, J. Chem. Theory Comput. 13, 554 (2017)

================================================================================
                                        WARNINGS
                       Please study these warnings very carefully!
================================================================================

WARNING: Old DensityContainer found on disk!
         Will remove this file - 
         If you want to keep old densities, please start your calculation with a different basename. 


WARNING: your system is open-shell and RHF/RKS was chosen
  ===> : WILL SWITCH to UHF/UKS


INFO   : the flag for use of the SHARK integral package has been found!

================================================================================
                                       INPUT FILE
================================================================================
NAME = EPRII_i.inp
|  1> ! B3LYP EPR-II AUTOAUX
|  2> %pal nprocs 16 end
|  3> *XYZFile 0 2 opt_EPRII.xyz
|  4> %EPRNMR
|  5>         GTENSOR   TRUE
|  6>         NUCLEI    = ALL H {SHIFT, AISO, ADIP, AORB}
|  7>         ORI       GIAO
|  8> END
|  9> 
| 10>                          ****END OF INPUT****
================================================================================

                       ****************************
                       * Single Point Calculation *
                       ****************************

---------------------------------
CARTESIAN COORDINATES (ANGSTROEM)
---------------------------------
  C      2.832750   -0.007026   -0.008538
  C     -1.321227   -0.009087   -0.012934
  C     -0.711139   -1.259621   -0.014747
  C      0.696046   -1.205428   -0.012952
  C      1.400111    0.024530   -0.009719
  C      0.708755    1.269203   -0.007834
  C     -0.704171    1.227961   -0.009590
  H      1.274749   -2.124003   -0.014183
  H     -1.285017    2.144564   -0.008357
  C     -1.521335   -2.550266   -0.018223
  H     -2.184720   -2.534794   -0.893032
  H     -2.184690   -2.539529    0.856693
  C     -0.710102   -3.855592   -0.021701
  H     -0.053522   -3.882624   -0.901529
  H     -0.055086   -3.888234    0.859109
  C     -1.606343   -5.107042   -0.026447
  H     -2.265608   -5.083452    0.851417
  H     -2.263281   -5.078429   -0.905902
  C     -0.803343   -6.419535   -0.029157
  H     -0.161252   -6.490161    0.856030
  H     -0.158238   -6.484648   -0.912573
  C      1.488454    2.575873   -0.004295
  H      2.155155    2.573760    0.868595
  H      2.156044    2.577927   -0.876519
  C      0.657236    3.868331   -0.001653
  H      0.002419    3.893449   -0.882978
  H      0.000572    3.888696    0.878415
  C      1.536624    5.132056    0.002664
  H      2.193846    5.112142    0.882153
  H      2.196059    5.116609   -0.875258
  C      0.716770    6.433947    0.004962
  H      0.070983    6.491216    0.888453
  H      0.073737    6.496095   -0.880208
  C      4.057560   -0.041158   -0.009585
  H     -1.465005   -7.291860   -0.032997
  H      1.367006    7.314871    0.008399
  C      5.489295   -0.089648   -0.008845
  C      6.166131   -1.333882   -0.009628
  C      7.565134   -1.378457   -0.008865
  C      8.314078   -0.189238   -0.007346
  C      7.650717    1.049831   -0.006591
  C      6.251984    1.103767   -0.007353
  H      9.400065   -0.227665   -0.006767
  H      8.224047    1.973231   -0.005425
  H      5.585595   -2.251669   -0.010807
  H      5.738049    2.060418   -0.006803
  H      8.072255   -2.339826   -0.009462

----------------------------
CARTESIAN COORDINATES (A.U.)
----------------------------
  NO LB      ZA    FRAG     MASS         X           Y           Z
   0 C     6.0000    0    12.011    5.353122   -0.013277   -0.016135
   1 C     6.0000    0    12.011   -2.496757   -0.017171   -0.024441
   2 C     6.0000    0    12.011   -1.343857   -2.380338   -0.027867
   3 C     6.0000    0    12.011    1.315336   -2.277929   -0.024475
   4 C     6.0000    0    12.011    2.645827    0.046354   -0.018367
   5 C     6.0000    0    12.011    1.339352    2.398446   -0.014804
   6 C     6.0000    0    12.011   -1.330690    2.320510   -0.018123
   7 H     1.0000    0     1.008    2.408926   -4.013784   -0.026803
   8 H     1.0000    0     1.008   -2.428329    4.052639   -0.015792
   9 C     6.0000    0    12.011   -2.874907   -4.819305   -0.034436
  10 H     1.0000    0     1.008   -4.128523   -4.790067   -1.687585
  11 H     1.0000    0     1.008   -4.128466   -4.799014    1.618916
  12 C     6.0000    0    12.011   -1.341898   -7.286013   -0.041009
  13 H     1.0000    0     1.008   -0.101141   -7.337097   -1.703643
  14 H     1.0000    0     1.008   -0.104098   -7.347697    1.623480
  15 C     6.0000    0    12.011   -3.035548   -9.650911   -0.049977
  16 H     1.0000    0     1.008   -4.281378   -9.606332    1.608944
  17 H     1.0000    0     1.008   -4.276980   -9.596840   -1.711906
  18 C     6.0000    0    12.011   -1.518099  -12.131163   -0.055099
  19 H     1.0000    0     1.008   -0.304721  -12.264627    1.617663
  20 H     1.0000    0     1.008   -0.299027  -12.254210   -1.724514
  21 C     6.0000    0    12.011    2.812771    4.867695   -0.008117
  22 H     1.0000    0     1.008    4.072654    4.863702    1.641406
  23 H     1.0000    0     1.008    4.074332    4.871576   -1.656380
  24 C     6.0000    0    12.011    1.241995    7.310087   -0.003124
  25 H     1.0000    0     1.008    0.004572    7.357552   -1.668587
  26 H     1.0000    0     1.008    0.001081    7.348570    1.659963
  27 C     6.0000    0    12.011    2.903798    9.698181    0.005034
  28 H     1.0000    0     1.008    4.145768    9.660548    1.667027
  29 H     1.0000    0     1.008    4.149950    9.668989   -1.653998
  30 C     6.0000    0    12.011    1.354498   12.158398    0.009376
  31 H     1.0000    0     1.008    0.134138   12.266621    1.678933
  32 H     1.0000    0     1.008    0.139342   12.275840   -1.663352
  33 C     6.0000    0    12.011    7.667676   -0.077777   -0.018113
  34 H     1.0000    0     1.008   -2.768457  -13.779619   -0.062356
  35 H     1.0000    0     1.008    2.583267   13.823102    0.015872
  36 C     6.0000    0    12.011   10.373265   -0.169411   -0.016714
  37 C     6.0000    0    12.011   11.652298   -2.520673   -0.018194
  38 C     6.0000    0    12.011   14.296031   -2.604906   -0.016753
  39 C     6.0000    0    12.011   15.711331   -0.357609   -0.013881
  40 C     6.0000    0    12.011   14.457761    1.983892   -0.012455
  41 C     6.0000    0    12.011   11.814537    2.085818   -0.013896
  42 H     1.0000    0     1.008   17.763548   -0.430225   -0.012787
  43 H     1.0000    0     1.008   15.541196    3.728866   -0.010252
  44 H     1.0000    0     1.008   10.555245   -4.255037   -0.020422
  45 H     1.0000    0     1.008   10.843342    3.893625   -0.012856
  46 H     1.0000    0     1.008   15.254350   -4.421630   -0.017881

--------------------------------
INTERNAL COORDINATES (ANGSTROEM)
--------------------------------
 C      0   0   0     0.000000000000     0.00000000     0.00000000
 C      1   0   0     4.153979456556     0.00000000     0.00000000
 C      2   1   0     1.391418754611    64.02256301     0.00000000
 C      3   2   1     1.408228537448   113.80039457     0.00000000
 C      4   3   2     1.417220916903   121.99367730     0.00000000
 C      5   4   3     1.423794195399   121.16184317     0.00000000
 C      2   1   3     1.382409714582    63.46087259   179.98797709
 H      4   3   2     1.085670018075   120.00537258   180.00342418
 H      7   2   1     1.085147149975   121.12722507   179.99096977
 C      3   2   1     1.523875606367   121.87573171   180.00367421
 H     10   3   2     1.098002208413   108.12575742    56.89252906
 H     10   3   2     1.098013248820   108.12570130   302.95381794
 C     10   3   2     1.536875948121   116.02172541   179.92616058
 H     13  10   3     1.098146506858   109.77448581   301.64218657
 H     13  10   3     1.098151610098   109.77184006    58.47346055
 C     13  10   3     1.539284496875   112.53134790   180.05531189
 H     16  13  10     1.098103146858   109.24633925   302.08934306
 H     16  13  10     1.098101270840   109.24524347    57.97768161
 C     16  13  10     1.538653420279   112.93256039   180.03224543
 H     19  16  13     1.095822299993   111.06027791    59.88043482
 H     19  16  13     1.095821267512   111.05948235   300.17413947
 C      6   5   4     1.521621223435   120.12516725   179.99680729
 H     22   6   5     1.098376939888   108.13307599   303.32373500
 H     22   6   5     1.098386716209   108.13151114    56.74628726
 C     22   6   5     1.536677668943   116.42901144   180.03341051
 H     25  22   6     1.098248327539   109.89955050   301.44329313
 H     25  22   6     1.098244561510   109.90129697    58.48751474
 C     25  22   6     1.539592117598   112.42098830   179.96669814
 H     28  25  22     1.098106567820   109.22114528   302.04887213
 H     28  25  22     1.098107656236   109.22130431    57.91847585
 C     28  25  22     1.538533543809   112.96694056   179.98455829
 H     31  28  25     1.095845611828   111.06672893    59.83755534
 H     31  28  25     1.095846304479   111.06779418   300.11968843
 C      1   2   3     1.225285609217   178.37162018     3.74442046
 H     19  16  13     1.094879747879   111.36096316   180.02719008
 H     31  28  25     1.094917862556   111.36767509   179.97852995
 C     34   1   5     1.432557023979   179.64763823   331.08882135
 C     37  34   1     1.416412774004   120.48492500    12.92968777
 C     38  37  34     1.399713421205   120.37007291   180.00174959
 C     39  38  37     1.405404207524   120.37694293     0.00000000
 C     40  39  38     1.405467927911   119.63489095     0.00000000
 C     41  40  39     1.399773317831   120.37154545     0.00000000
 H     40  39  38     1.086666163376   120.17532987   180.00057970
 H     41  40  39     1.086911215165   120.00104669   180.00058738
 H     38  37  34     1.085980728162   119.13988285     0.00000000
 H     42  41  40     1.085959898179   120.45399165   180.00192472
 H     39  38  37     1.086922948229   119.63647020   179.99896078

---------------------------
INTERNAL COORDINATES (A.U.)
---------------------------
 C      0   0   0     0.000000000000     0.00000000     0.00000000
 C      1   0   0     7.849883538826     0.00000000     0.00000000
 C      2   1   0     2.629400383816    64.02256301     0.00000000
 C      3   2   1     2.661166269750   113.80039457     0.00000000
 C      4   3   2     2.678159404212   121.99367730     0.00000000
 C      5   4   3     2.690581100370   121.16184317     0.00000000
 C      2   1   3     2.612375765432    63.46087259   179.98797709
 H      4   3   2     2.051619005970   120.00537258   180.00342418
 H      7   2   1     2.050630928458   121.12722507   179.99096977
 C      3   2   1     2.879707558197   121.87573171   180.00367421
 H     10   3   2     2.074923468342   108.12575742    56.89252906
 H     10   3   2     2.074944331687   108.12570130   302.95381794
 C     10   3   2     2.904274643759   116.02172541   179.92616058
 H     13  10   3     2.075196152883   109.77448581   301.64218657
 H     13  10   3     2.075205796610   109.77184006    58.47346055
 C     13  10   3     2.908826141284   112.53134790   180.05531189
 H     16  13  10     2.075114214359   109.24633925   302.08934306
 H     16  13  10     2.075110669198   109.24524347    57.97768161
 C     16  13  10     2.907633579348   112.93256039   180.03224543
 H     19  16  13     2.070804038431   111.06027791    59.88043482
 H     19  16  13     2.070802087325   111.05948235   300.17413947
 C      6   5   4     2.875447391854   120.12516725   179.99680729
 H     22   6   5     2.075631608203   108.13307599   303.32373500
 H     22   6   5     2.075650082772   108.13151114    56.74628726
 C     22   6   5     2.903899950416   116.42901144   180.03341051
 H     25  22   6     2.075388566086   109.89955050   301.44329313
 H     25  22   6     2.075381449323   109.90129697    58.48751474
 C     25  22   6     2.909407460204   112.42098830   179.96669814
 H     28  25  22     2.075120679041   109.22114528   302.04887213
 H     28  25  22     2.075122735849   109.22130431    57.91847585
 C     28  25  22     2.907407045651   112.96694056   179.98455829
 H     31  28  25     2.070848091415   111.06672893    59.83755534
 H     31  28  25     2.070849400334   111.06779418   300.11968843
 C      1   2   3     2.315454237255   178.37162018     3.74442046
 H     19  16  13     2.069022873069   111.36096316   180.02719008
 H     31  28  25     2.069094899369   111.36767509   179.97852995
 C     34   1   5     2.707140446545   179.64763823   331.08882135
 C     37  34   1     2.676632235455   120.48492500    12.92968777
 C     38  37  34     2.645075032051   120.37007291   180.00174959
 C     39  38  37     2.655829059680   120.37694293     0.00000000
 C     40  39  38     2.655949473761   119.63489095     0.00000000
 C     41  40  39     2.645188220272   120.37154545     0.00000000
 H     40  39  38     2.053501447780   120.17532987   180.00057970
 H     41  40  39     2.053964528550   120.00104669   180.00058738
 H     38  37  34     2.052206162942   119.13988285     0.00000000
 H     42  41  40     2.052166799980   120.45399165   180.00192472
 H     39  38  37     2.053986700827   119.63647020   179.99896078

---------------------
BASIS SET INFORMATION
---------------------
There are 2 groups of distinct atoms

 Group   1 Type C   : 10s5p1d contracted to 6s2p1d pattern {511111/41/1}
 Group   2 Type H   : 6s1p contracted to 4s1p pattern {3111/1}

Atom   0C    basis set group =>   1
Atom   1C    basis set group =>   1
Atom   2C    basis set group =>   1
Atom   3C    basis set group =>   1
Atom   4C    basis set group =>   1
Atom   5C    basis set group =>   1
Atom   6C    basis set group =>   1
Atom   7H    basis set group =>   2
Atom   8H    basis set group =>   2
Atom   9C    basis set group =>   1
Atom  10H    basis set group =>   2
Atom  11H    basis set group =>   2
Atom  12C    basis set group =>   1
Atom  13H    basis set group =>   2
Atom  14H    basis set group =>   2
Atom  15C    basis set group =>   1
Atom  16H    basis set group =>   2
Atom  17H    basis set group =>   2
Atom  18C    basis set group =>   1
Atom  19H    basis set group =>   2
Atom  20H    basis set group =>   2
Atom  21C    basis set group =>   1
Atom  22H    basis set group =>   2
Atom  23H    basis set group =>   2
Atom  24C    basis set group =>   1
Atom  25H    basis set group =>   2
Atom  26H    basis set group =>   2
Atom  27C    basis set group =>   1
Atom  28H    basis set group =>   2
Atom  29H    basis set group =>   2
Atom  30C    basis set group =>   1
Atom  31H    basis set group =>   2
Atom  32H    basis set group =>   2
Atom  33C    basis set group =>   1
Atom  34H    basis set group =>   2
Atom  35H    basis set group =>   2
Atom  36C    basis set group =>   1
Atom  37C    basis set group =>   1
Atom  38C    basis set group =>   1
Atom  39C    basis set group =>   1
Atom  40C    basis set group =>   1
Atom  41C    basis set group =>   1
Atom  42H    basis set group =>   2
Atom  43H    basis set group =>   2
Atom  44H    basis set group =>   2
Atom  45H    basis set group =>   2
Atom  46H    basis set group =>   2
---------------------------------
AUXILIARY/J BASIS SET INFORMATION
---------------------------------
There are 2 groups of distinct atoms

 Group   1 Type C   : 17s13p12d2f contracted to 17s13p12d2f pattern {11111111111111111/1111111111111/111111111111/11}
 Group   2 Type H   : 15s6p1d contracted to 15s6p1d pattern {111111111111111/111111/1}

Atom   0C    basis set group =>   1
Atom   1C    basis set group =>   1
Atom   2C    basis set group =>   1
Atom   3C    basis set group =>   1
Atom   4C    basis set group =>   1
Atom   5C    basis set group =>   1
Atom   6C    basis set group =>   1
Atom   7H    basis set group =>   2
Atom   8H    basis set group =>   2
Atom   9C    basis set group =>   1
Atom  10H    basis set group =>   2
Atom  11H    basis set group =>   2
Atom  12C    basis set group =>   1
Atom  13H    basis set group =>   2
Atom  14H    basis set group =>   2
Atom  15C    basis set group =>   1
Atom  16H    basis set group =>   2
Atom  17H    basis set group =>   2
Atom  18C    basis set group =>   1
Atom  19H    basis set group =>   2
Atom  20H    basis set group =>   2
Atom  21C    basis set group =>   1
Atom  22H    basis set group =>   2
Atom  23H    basis set group =>   2
Atom  24C    basis set group =>   1
Atom  25H    basis set group =>   2
Atom  26H    basis set group =>   2
Atom  27C    basis set group =>   1
Atom  28H    basis set group =>   2
Atom  29H    basis set group =>   2
Atom  30C    basis set group =>   1
Atom  31H    basis set group =>   2
Atom  32H    basis set group =>   2
Atom  33C    basis set group =>   1
Atom  34H    basis set group =>   2
Atom  35H    basis set group =>   2
Atom  36C    basis set group =>   1
Atom  37C    basis set group =>   1
Atom  38C    basis set group =>   1
Atom  39C    basis set group =>   1
Atom  40C    basis set group =>   1
Atom  41C    basis set group =>   1
Atom  42H    basis set group =>   2
Atom  43H    basis set group =>   2
Atom  44H    basis set group =>   2
Atom  45H    basis set group =>   2
Atom  46H    basis set group =>   2
---------------------------------
AUXILIARY/C BASIS SET INFORMATION
---------------------------------
There are 2 groups of distinct atoms

 Group   1 Type C   : 17s13p12d2f contracted to 17s13p12d2f pattern {11111111111111111/1111111111111/111111111111/11}
 Group   2 Type H   : 15s6p1d contracted to 15s6p1d pattern {111111111111111/111111/1}

Atom   0C    basis set group =>   1
Atom   1C    basis set group =>   1
Atom   2C    basis set group =>   1
Atom   3C    basis set group =>   1
Atom   4C    basis set group =>   1
Atom   5C    basis set group =>   1
Atom   6C    basis set group =>   1
Atom   7H    basis set group =>   2
Atom   8H    basis set group =>   2
Atom   9C    basis set group =>   1
Atom  10H    basis set group =>   2
Atom  11H    basis set group =>   2
Atom  12C    basis set group =>   1
Atom  13H    basis set group =>   2
Atom  14H    basis set group =>   2
Atom  15C    basis set group =>   1
Atom  16H    basis set group =>   2
Atom  17H    basis set group =>   2
Atom  18C    basis set group =>   1
Atom  19H    basis set group =>   2
Atom  20H    basis set group =>   2
Atom  21C    basis set group =>   1
Atom  22H    basis set group =>   2
Atom  23H    basis set group =>   2
Atom  24C    basis set group =>   1
Atom  25H    basis set group =>   2
Atom  26H    basis set group =>   2
Atom  27C    basis set group =>   1
Atom  28H    basis set group =>   2
Atom  29H    basis set group =>   2
Atom  30C    basis set group =>   1
Atom  31H    basis set group =>   2
Atom  32H    basis set group =>   2
Atom  33C    basis set group =>   1
Atom  34H    basis set group =>   2
Atom  35H    basis set group =>   2
Atom  36C    basis set group =>   1
Atom  37C    basis set group =>   1
Atom  38C    basis set group =>   1
Atom  39C    basis set group =>   1
Atom  40C    basis set group =>   1
Atom  41C    basis set group =>   1
Atom  42H    basis set group =>   2
Atom  43H    basis set group =>   2
Atom  44H    basis set group =>   2
Atom  45H    basis set group =>   2
Atom  46H    basis set group =>   2
----------------------------------
AUXILIARY/JK BASIS SET INFORMATION
----------------------------------
There are 2 groups of distinct atoms

 Group   1 Type C   : 17s13p12d2f contracted to 17s13p12d2f pattern {11111111111111111/1111111111111/111111111111/11}
 Group   2 Type H   : 15s6p1d contracted to 15s6p1d pattern {111111111111111/111111/1}

Atom   0C    basis set group =>   1
Atom   1C    basis set group =>   1
Atom   2C    basis set group =>   1
Atom   3C    basis set group =>   1
Atom   4C    basis set group =>   1
Atom   5C    basis set group =>   1
Atom   6C    basis set group =>   1
Atom   7H    basis set group =>   2
Atom   8H    basis set group =>   2
Atom   9C    basis set group =>   1
Atom  10H    basis set group =>   2
Atom  11H    basis set group =>   2
Atom  12C    basis set group =>   1
Atom  13H    basis set group =>   2
Atom  14H    basis set group =>   2
Atom  15C    basis set group =>   1
Atom  16H    basis set group =>   2
Atom  17H    basis set group =>   2
Atom  18C    basis set group =>   1
Atom  19H    basis set group =>   2
Atom  20H    basis set group =>   2
Atom  21C    basis set group =>   1
Atom  22H    basis set group =>   2
Atom  23H    basis set group =>   2
Atom  24C    basis set group =>   1
Atom  25H    basis set group =>   2
Atom  26H    basis set group =>   2
Atom  27C    basis set group =>   1
Atom  28H    basis set group =>   2
Atom  29H    basis set group =>   2
Atom  30C    basis set group =>   1
Atom  31H    basis set group =>   2
Atom  32H    basis set group =>   2
Atom  33C    basis set group =>   1
Atom  34H    basis set group =>   2
Atom  35H    basis set group =>   2
Atom  36C    basis set group =>   1
Atom  37C    basis set group =>   1
Atom  38C    basis set group =>   1
Atom  39C    basis set group =>   1
Atom  40C    basis set group =>   1
Atom  41C    basis set group =>   1
Atom  42H    basis set group =>   2
Atom  43H    basis set group =>   2
Atom  44H    basis set group =>   2
Atom  45H    basis set group =>   2
Atom  46H    basis set group =>   2

Checking for AutoStart:
The File: EPRII_i.gbw exists
Trying to determine its content:
     ... Fine, the file contains calculation information
     ... Fine, the calculation information was read
     ... Fine, the file contains a basis set
     ... Fine, the basis set was read
     ... Fine, the file contains a geometry
     ... Fine, the geometry was read
     ... Fine, the file contains a set of orbitals
     ... Fine, the orbitals can be read
     => possible old guess file was deleted
     => GBW file was renamed to GES file
     => GES file is set as startup file
     => Guess is set to MORead
     ... now leaving AutoStart



           ************************************************************
           *        Program running with 16 parallel MPI-processes    *
           *              working on a common directory               *
           ************************************************************
------------------------------------------------------------------------------
                           ORCA GTO INTEGRAL CALCULATION
                           -- RI-GTO INTEGRALS CHOSEN --
------------------------------------------------------------------------------
------------------------------------------------------------------------------
                   ___                                                        
                  /   \      - P O W E R E D   B Y -                         
                 /     \                                                     
                 |  |  |   _    _      __       _____    __    __             
                 |  |  |  | |  | |    /  \     |  _  \  |  |  /  |          
                  \  \/   | |  | |   /    \    | | | |  |  | /  /          
                 / \  \   | |__| |  /  /\  \   | |_| |  |  |/  /          
                |  |  |   |  __  | /  /__\  \  |    /   |      \           
                |  |  |   | |  | | |   __   |  |    \   |  |\   \          
                \     /   | |  | | |  |  |  |  | |\  \  |  | \   \       
                 \___/    |_|  |_| |__|  |__|  |_| \__\ |__|  \__/        
                                                                              
                      - O R C A' S   B I G   F R I E N D -                    
                                      &                                       
                       - I N T E G R A L  F E E D E R -                       
                                                                              
 v1 FN, 2020, v2 2021                                                         
------------------------------------------------------------------------------


Reading SHARK input file EPRII_i.SHARKINP.tmp ... ok
----------------------
SHARK INTEGRAL PACKAGE
----------------------

Number of atoms                             ...     47
Number of basis functions                   ...    549
Number of shells                            ...    323
Maximum angular momentum                    ...      2
Integral batch strategy                     ... SHARK/LIBINT Hybrid
RI-J (if used) integral strategy            ... SPLIT-RIJ (Revised 2003 algorithm where possible)
Printlevel                                  ...      1
Contraction scheme used                     ... SEGMENTED contraction
Coulomb Range Separation                    ... NOT USED
Exchange Range Separation                   ... NOT USED
Finite Nucleus Model                        ... NOT USED
Auxiliary Coulomb fitting basis             ... AVAILABLE
   # of basis functions in Aux-J            ...   3810
   # of shells in Aux-J                     ...   1518
   Maximum angular momentum in Aux-J        ...      3
Auxiliary J/K fitting basis                 ... AVAILABLE
   # of basis functions in Aux-JK           ...   3810
   # of shells in Aux-JK                    ...   1518
   Maximum angular momentum in Aux-JK       ...      3
Auxiliary Correlation fitting basis         ... AVAILABLE
   # of basis functions in Aux-C            ...   3810
   # of shells in Aux-C                     ...   1518
   Maximum angular momentum in Aux-C        ...      3
Auxiliary 'external' fitting basis          ... NOT available
Integral threshold                          ...     1.000000e-10
Primitive cut-off                           ...     1.000000e-11
Primitive pair pre-selection threshold      ...     1.000000e-11

Calculating pre-screening integrals         ... done (  0.0 sec) Dimension = 323
Organizing shell pair data                  ... done (  0.2 sec)
Shell pair information
Total number of shell pairs                 ...     52326
Shell pairs after pre-screening             ...     26482
Total number of primitive shell pairs       ...    139555
Primitive shell pairs kept                  ...     49863
          la=0 lb=0:  12240 shell pairs
          la=1 lb=0:   9106 shell pairs
          la=1 lb=1:   1620 shell pairs
          la=2 lb=0:   2454 shell pairs
          la=2 lb=1:    923 shell pairs
          la=2 lb=2:    139 shell pairs

Calculating one electron integrals          ... done (  0.0 sec)
Calculating RI/J V-Matrix + Cholesky decomp.... done (  0.9 sec)
Calculating RI/JK V-Matrix + Cholesky decomp... done (  0.8 sec)
Calculating RI/C V-Matrix + Cholesky decomp.... done (  0.9 sec)
Calculating Nuclear repulsion               ... done (  0.0 sec) ENN=   1521.532054067479 Eh

SHARK setup successfully completed in   3.1 seconds

Maximum memory used throughout the entire GTOINT-calculation: 53.2 MB


           ************************************************************
           *        Program running with 16 parallel MPI-processes    *
           *              working on a common directory               *
           ************************************************************
-------------------------------------------------------------------------------
                                 ORCA SCF
-------------------------------------------------------------------------------

------------
SCF SETTINGS
------------
Hamiltonian:
 Density Functional     Method          .... DFT(GTOs)
 Exchange Functional    Exchange        .... B88
   X-Alpha parameter    XAlpha          ....  0.666667
   Becke's b parameter  XBeta           ....  0.004200
 Correlation Functional Correlation     .... LYP
 LDA part of GGA corr.  LDAOpt          .... VWN-5
 Gradients option       PostSCFGGA      .... off
 Hybrid DFT is turned on
   Fraction HF Exchange ScalHFX         ....  0.200000
   Scaling of DF-GGA-X  ScalDFX         ....  0.720000
   Scaling of DF-GGA-C  ScalDFC         ....  0.810000
   Scaling of DF-LDA-C  ScalLDAC        ....  1.000000
   Perturbative correction              ....  0.000000
   Density functional embedding theory  .... OFF
   NL short-range parameter             ....  4.800000
 RI-approximation to the Coulomb term is turned on
   Number of AuxJ basis functions       .... 3810
   RIJ-COSX (HFX calculated with COS-X)).... on


General Settings:
 Integral files         IntName         .... EPRII_i
 Hartree-Fock type      HFTyp           .... UHF
 Total Charge           Charge          ....    0
 Multiplicity           Mult            ....    2
 Number of Electrons    NEL             ....  157
 Basis Dimension        Dim             ....  549
 Nuclear Repulsion      ENuc            ....   1521.5320540675 Eh

Convergence Acceleration:
 DIIS                   CNVDIIS         .... on
   Start iteration      DIISMaxIt       ....    12
   Startup error        DIISStart       ....  0.200000
   # of expansion vecs  DIISMaxEq       ....     5
   Bias factor          DIISBfac        ....   1.050
   Max. coefficient     DIISMaxC        ....  10.000
 Trust-Rad. Augm. Hess. CNVTRAH         .... auto
   Auto Start mean grad. ratio tolernc. ....  1.125000
   Auto Start start iteration           ....     1
   Auto Start num. interpolation iter.  ....    10
   Max. Number of Micro iterations      ....    16
   Max. Number of Macro iterations      .... Maxiter - #DIIS iter
   Number of Davidson start vectors     ....     2
   Converg. threshold I  (grad. norm)   ....   5.000e-05
   Converg. threshold II (energy diff.) ....   1.000e-06
   Grad. Scal. Fac. for Micro threshold ....   0.100
   Minimum threshold for Micro iter.    ....   0.010
   NR start threshold (gradient norm)   ....   0.001
   Initial trust radius                 ....   0.400
   Minimum AH scaling param. (alpha)    ....   1.000
   Maximum AH scaling param. (alpha)    .... 1000.000
   Orbital update algorithm             .... Taylor
   White noise on init. David. guess    .... on
   Maximum white noise                  ....   0.010
   Quad. conv. algorithm                .... NR
 SOSCF                  CNVSOSCF        .... off
 Level Shifting         CNVShift        .... on
   Level shift para.    LevelShift      ....    0.2500
   Turn off err/grad.   ShiftErr        ....    0.0010
 Zerner damping         CNVZerner       .... off
 Static damping         CNVDamp         .... on
   Fraction old density DampFac         ....    0.7000
   Max. Damping (<1)    DampMax         ....    0.9800
   Min. Damping (>=0)   DampMin         ....    0.0000
   Turn off err/grad.   DampErr         ....    0.1000
 Fernandez-Rico         CNVRico         .... off

SCF Procedure:
 Maximum # iterations   MaxIter         ....   125
 SCF integral mode      SCFMode         .... Direct
   Integral package                     .... SHARK and LIBINT hybrid scheme
 Reset frequency        DirectResetFreq ....    20
 Integral Threshold     Thresh          ....  1.000e-10 Eh
 Primitive CutOff       TCut            ....  1.000e-11 Eh

Convergence Tolerance:
 Convergence Check Mode ConvCheckMode   .... Total+1el-Energy
 Convergence forced     ConvForced      .... 0
 Energy Change          TolE            ....  1.000e-06 Eh
 1-El. energy change                    ....  1.000e-03 Eh
 DIIS Error             TolErr          ....  1.000e-06


Diagonalization of the overlap matrix:
Smallest eigenvalue                        ... 8.200e-05
Time for diagonalization                   ...    0.080 sec
Threshold for overlap eigenvalues          ... 1.000e-08
Number of eigenvalues below threshold      ... 0
Time for construction of square roots      ...    0.059 sec
Total time needed                          ...    0.140 sec

---------------------
INITIAL GUESS: MOREAD
---------------------
Guess MOs are being read from file: EPRII_i.ges
Input geometry compatible with but different from current geometry
Input basis set matches current basis set (good)
MOs were renormalized
MOs were reorthogonalized (Cholesky)
                      ------------------
                      INITIAL GUESS DONE (   0.2 sec)
                      ------------------
-------------------
DFT GRID GENERATION
-------------------

General Integration Accuracy     IntAcc      ... 4.388
Radial Grid Type                 RadialGrid  ... OptM3 with GC (2021)
Angular Grid (max. ang.)         AngularGrid ... 4 (Lebedev-302)
Angular grid pruning method      GridPruning ... 4 (adaptive)
Weight generation scheme         WeightScheme... Becke
Basis function cutoff            BFCut       ... 1.0000e-10
Integration weight cutoff        WCut        ... 1.0000e-14
Angular grids for H and He will be reduced by one unit
Partially contracted basis set               ... off
Rotationally invariant grid construction     ... off

Total number of grid points                  ...   211225
Total number of batches                      ...     3324
Average number of points per batch           ...       63
Average number of grid points per atom       ...     4494
Time for grid setup =    1.271 sec

--------------------
COSX GRID GENERATION
--------------------

GRIDX 1
-------
General Integration Accuracy     IntAcc      ... 3.816
Radial Grid Type                 RadialGrid  ... OptM3 with GC (2021)
Angular Grid (max. ang.)         AngularGrid ... 1 (Lebedev-50)
Angular grid pruning method      GridPruning ... 4 (adaptive)
Weight generation scheme         WeightScheme... Becke
Basis function cutoff            BFCut       ... 1.0000e-10
Integration weight cutoff        WCut        ... 1.0000e-14
Angular grids for H and He will be reduced by one unit
Partially contracted basis set               ... on
Rotationally invariant grid construction     ... off

Total number of grid points                  ...    26941
Total number of batches                      ...      446
Average number of points per batch           ...       60
Average number of grid points per atom       ...      573
UseSFitting                                  ... on

GRIDX 2
-------
General Integration Accuracy     IntAcc      ... 4.020
Radial Grid Type                 RadialGrid  ... OptM3 with GC (2021)
Angular Grid (max. ang.)         AngularGrid ... 2 (Lebedev-110)
Angular grid pruning method      GridPruning ... 4 (adaptive)
Weight generation scheme         WeightScheme... Becke
Basis function cutoff            BFCut       ... 1.0000e-10
Integration weight cutoff        WCut        ... 1.0000e-14
Angular grids for H and He will be reduced by one unit
Partially contracted basis set               ... on
Rotationally invariant grid construction     ... off

Total number of grid points                  ...    57186
Total number of batches                      ...      916
Average number of points per batch           ...       62
Average number of grid points per atom       ...     1217
UseSFitting                                  ... on

GRIDX 3
-------
General Integration Accuracy     IntAcc      ... 4.338
Radial Grid Type                 RadialGrid  ... OptM3 with GC (2021)
Angular Grid (max. ang.)         AngularGrid ... 3 (Lebedev-194)
Angular grid pruning method      GridPruning ... 4 (adaptive)
Weight generation scheme         WeightScheme... Becke
Basis function cutoff            BFCut       ... 1.0000e-10
Integration weight cutoff        WCut        ... 1.0000e-14
Angular grids for H and He will be reduced by one unit
Partially contracted basis set               ... on
Rotationally invariant grid construction     ... off

Total number of grid points                  ...   125069
Total number of batches                      ...     1979
Average number of points per batch           ...       63
Average number of grid points per atom       ...     2661
UseSFitting                                  ... on

Time for X-Grid setup             =    2.251 sec

--------------
SCF ITERATIONS
--------------
ITER       Energy         Delta-E        Max-DP      RMS-DP      [F,P]     Damp
               ***  Starting incremental Fock matrix formation  ***
  0   -852.8240024374   0.000000000000 0.00647592  0.00003921  0.0022174 0.7000
  1   -852.8241576738  -0.000155236403 0.00594632  0.00003425  0.0016048 0.7000
                               ***Turning on DIIS***
  2   -852.8242669753  -0.000109301406 0.01505470  0.00008431  0.0011413 0.0000
  3   -852.8245186060  -0.000251630720 0.00077177  0.00001000  0.0003375 0.0000
               *** Restarting incremental Fock matrix formation ***
                                   *** Resetting DIIS ***
  4   -852.8245122257   0.000006380317 0.00091232  0.00001086  0.0003847 0.0000
  5   -852.8245079482   0.000004277459 0.00056326  0.00000622  0.0004540 0.0000
  6   -852.8245189417  -0.000010993481 0.00015275  0.00000149  0.0001058 0.0000
  7   -852.8245190235  -0.000000081843 0.00019124  0.00000101  0.0001493 0.0000
                 **** Energy Check signals convergence ****

               *****************************************************
               *                     SUCCESS                       *
               *           SCF CONVERGED AFTER   8 CYCLES          *
               *****************************************************

Old exchange energy                            =    -24.546468757 Eh
New exchange energy                            =    -24.546457595 Eh
Exchange energy change after final integration =      0.000011162 Eh
Total energy after final integration           =   -852.824507984 Eh
Final COS-X integration done in                =     8.481 sec

----------------
TOTAL SCF ENERGY
----------------

Total Energy       :         -852.82450798 Eh          -23206.53466 eV

Components:
Nuclear Repulsion  :         1521.53205407 Eh           41402.99208 eV
Electronic Energy  :        -2374.35656205 Eh          -64609.52674 eV
One Electron Energy:        -4170.94965079 Eh         -113497.31009 eV
Two Electron Energy:         1796.59308874 Eh           48887.78335 eV
Max COSX asymmetry :            0.00000372 Eh               0.00010 eV

Virial components:
Potential Energy   :        -1698.84411307 Eh          -46227.89850 eV
Kinetic Energy     :          846.01960509 Eh           23021.36384 eV
Virial Ratio       :            2.00804343


DFT components:
N(Alpha)           :       79.000178672387 electrons
N(Beta)            :       78.000179155726 electrons
N(Total)           :      157.000357828112 electrons
E(X)               :      -97.354162388302 Eh       
E(C)               :       -6.089508555977 Eh       
E(XC)              :     -103.443670944279 Eh       
DFET-embed. en.    :        0.000000000000 Eh       

---------------
SCF CONVERGENCE
---------------

  Last Energy change         ...   -1.2282e-07  Tolerance :   1.0000e-06
  Last MAX-Density change    ...    0.0000e+00  Tolerance :   1.0000e-05
  Last RMS-Density change    ...    0.0000e+00  Tolerance :   1.0000e-06
  Last DIIS Error            ...    4.1364e-05  Tolerance :   1.0000e-06

             **** THE GBW FILE WAS UPDATED (EPRII_i.gbw) ****
             **** DENSITY EPRII_i.scfp WAS UPDATED ****
             **** ENERGY FILE WAS UPDATED (EPRII_i.en.tmp) ****
----------------------
UHF SPIN CONTAMINATION
----------------------

Warning: in a DFT calculation there is little theoretical justification to 
         calculate <S**2> as in Hartree-Fock theory. We will do it anyways
         but you should keep in mind that the values have only limited relevance

Expectation value of <S**2>     :     0.759491
Ideal value S*(S+1) for S=0.5   :     0.750000
Deviation                       :     0.009491

             **** THE GBW FILE WAS UPDATED (EPRII_i.gbw) ****
             **** DENSITY EPRII_i.scfp WAS UPDATED ****
----------------
ORBITAL ENERGIES
----------------
                 SPIN UP ORBITALS
  NO   OCC          E(Eh)            E(eV) 
   0   1.0000     -10.226328      -278.2725 
   1   1.0000     -10.217619      -278.0356 
   2   1.0000     -10.214512      -277.9510 
   3   1.0000     -10.213642      -277.9273 
   4   1.0000     -10.210336      -277.8374 
   5   1.0000     -10.203441      -277.6497 
   6   1.0000     -10.203289      -277.6456 
   7   1.0000     -10.203088      -277.6401 
   8   1.0000     -10.202635      -277.6278 
   9   1.0000     -10.202412      -277.6218 
  10   1.0000     -10.201440      -277.5953 
  11   1.0000     -10.199389      -277.5395 
  12   1.0000     -10.199352      -277.5385 
  13   1.0000     -10.197154      -277.4787 
  14   1.0000     -10.190108      -277.2869 
  15   1.0000     -10.187065      -277.2041 
  16   1.0000     -10.182221      -277.0723 
  17   1.0000     -10.181879      -277.0630 
  18   1.0000     -10.181863      -277.0626 
  19   1.0000     -10.181603      -277.0555 
  20   1.0000     -10.171598      -276.7832 
  21   1.0000     -10.171498      -276.7805 
  22   1.0000      -0.868041       -23.6206 
  23   1.0000      -0.858439       -23.3593 
  24   1.0000      -0.810880       -22.0652 
  25   1.0000      -0.792746       -21.5717 
  26   1.0000      -0.785436       -21.3728 
  27   1.0000      -0.767506       -20.8849 
  28   1.0000      -0.758856       -20.6495 
  29   1.0000      -0.748274       -20.3616 
  30   1.0000      -0.730036       -19.8653 
  31   1.0000      -0.712100       -19.3772 
  32   1.0000      -0.696754       -18.9596 
  33   1.0000      -0.651901       -17.7391 
  34   1.0000      -0.630544       -17.1580 
  35   1.0000      -0.617668       -16.8076 
  36   1.0000      -0.607744       -16.5375 
  37   1.0000      -0.605754       -16.4834 
  38   1.0000      -0.582356       -15.8467 
  39   1.0000      -0.577531       -15.7154 
  40   1.0000      -0.564029       -15.3480 
  41   1.0000      -0.535387       -14.5686 
  42   1.0000      -0.506086       -13.7713 
  43   1.0000      -0.480666       -13.0796 
  44   1.0000      -0.471771       -12.8376 
  45   1.0000      -0.470796       -12.8110 
  46   1.0000      -0.469501       -12.7758 
  47   1.0000      -0.453240       -12.3333 
  48   1.0000      -0.442229       -12.0337 
  49   1.0000      -0.436540       -11.8789 
  50   1.0000      -0.426002       -11.5921 
  51   1.0000      -0.423816       -11.5326 
  52   1.0000      -0.423184       -11.5154 
  53   1.0000      -0.421591       -11.4721 
  54   1.0000      -0.418375       -11.3846 
  55   1.0000      -0.412661       -11.2291 
  56   1.0000      -0.411317       -11.1925 
  57   1.0000      -0.379938       -10.3386 
  58   1.0000      -0.376548       -10.2464 
  59   1.0000      -0.372039       -10.1237 
  60   1.0000      -0.365325        -9.9410 
  61   1.0000      -0.363842        -9.9006 
  62   1.0000      -0.359756        -9.7894 
  63   1.0000      -0.358885        -9.7658 
  64   1.0000      -0.350494        -9.5374 
  65   1.0000      -0.342718        -9.3258 
  66   1.0000      -0.331736        -9.0270 
  67   1.0000      -0.330898        -9.0042 
  68   1.0000      -0.326289        -8.8788 
  69   1.0000      -0.325472        -8.8565 
  70   1.0000      -0.324543        -8.8313 
  71   1.0000      -0.320410        -8.7188 
  72   1.0000      -0.311736        -8.4828 
  73   1.0000      -0.267785        -7.2868 
  74   1.0000      -0.266108        -7.2412 
  75   1.0000      -0.256321        -6.9748 
  76   1.0000      -0.242121        -6.5885 
  77   1.0000      -0.237230        -6.4553 
  78   1.0000      -0.209661        -5.7052 
  79   0.0000      -0.051865        -1.4113 
  80   0.0000      -0.013380        -0.3641 
  81   0.0000      -0.006259        -0.1703 
  82   0.0000       0.002676         0.0728 
  83   0.0000       0.016326         0.4443 
  84   0.0000       0.022292         0.6066 
  85   0.0000       0.023350         0.6354 
  86   0.0000       0.032591         0.8868 
  87   0.0000       0.034869         0.9488 
  88   0.0000       0.037574         1.0224 
  89   0.0000       0.046012         1.2520 
  90   0.0000       0.048113         1.3092 
  91   0.0000       0.056695         1.5428 
  92   0.0000       0.061387         1.6704 
  93   0.0000       0.067424         1.8347 
  94   0.0000       0.071199         1.9374 
  95   0.0000       0.078120         2.1258 
  96   0.0000       0.085662         2.3310 
  97   0.0000       0.092931         2.5288 
  98   0.0000       0.093476         2.5436 
  99   0.0000       0.100768         2.7420 
 100   0.0000       0.107142         2.9155 
 101   0.0000       0.118497         3.2245 
 102   0.0000       0.128975         3.5096 
 103   0.0000       0.138962         3.7814 
 104   0.0000       0.139037         3.7834 
 105   0.0000       0.152076         4.1382 
 106   0.0000       0.161424         4.3926 
 107   0.0000       0.168774         4.5926 
 108   0.0000       0.174141         4.7386 
 109   0.0000       0.180897         4.9225 
 110   0.0000       0.182379         4.9628 
 111   0.0000       0.191135         5.2010 
 112   0.0000       0.192159         5.2289 
 113   0.0000       0.194752         5.2995 
 114   0.0000       0.199789         5.4365 
 115   0.0000       0.199953         5.4410 
 116   0.0000       0.202771         5.5177 
 117   0.0000       0.206023         5.6062 
 118   0.0000       0.208923         5.6851 
 119   0.0000       0.219286         5.9671 
 120   0.0000       0.222235         6.0473 
 121   0.0000       0.224754         6.1159 
 122   0.0000       0.225377         6.1328 
 123   0.0000       0.230975         6.2851 
 124   0.0000       0.235301         6.4029 
 125   0.0000       0.241424         6.5695 
 126   0.0000       0.244864         6.6631 
 127   0.0000       0.253130         6.8880 
 128   0.0000       0.253677         6.9029 
 129   0.0000       0.257048         6.9946 
 130   0.0000       0.257606         7.0098 
 131   0.0000       0.258995         7.0476 
 132   0.0000       0.267574         7.2811 
 133   0.0000       0.274293         7.4639 
 134   0.0000       0.275859         7.5065 
 135   0.0000       0.277156         7.5418 
 136   0.0000       0.281733         7.6663 
 137   0.0000       0.282570         7.6891 
 138   0.0000       0.285313         7.7638 
 139   0.0000       0.291681         7.9370 
 140   0.0000       0.293630         7.9901 
 141   0.0000       0.295911         8.0521 
 142   0.0000       0.301259         8.1977 
 143   0.0000       0.303262         8.2522 
 144   0.0000       0.308678         8.3996 
 145   0.0000       0.310469         8.4483 
 146   0.0000       0.311255         8.4697 
 147   0.0000       0.314426         8.5560 
 148   0.0000       0.318325         8.6621 
 149   0.0000       0.321203         8.7404 
 150   0.0000       0.322214         8.7679 
 151   0.0000       0.328029         8.9261 
 152   0.0000       0.331431         9.0187 
 153   0.0000       0.333785         9.0827 
 154   0.0000       0.345063         9.3897 
 155   0.0000       0.346447         9.4273 
 156   0.0000       0.349006         9.4969 
 157   0.0000       0.350302         9.5322 
 158   0.0000       0.354215         9.6387 
 159   0.0000       0.368161        10.0182 
 160   0.0000       0.368267        10.0211 
 161   0.0000       0.374111        10.1801 
 162   0.0000       0.377064        10.2604 
 163   0.0000       0.378623        10.3028 
 164   0.0000       0.386870        10.5273 
 165   0.0000       0.393244        10.7007 
 166   0.0000       0.401836        10.9345 
 167   0.0000       0.405245        11.0273 
 168   0.0000       0.412466        11.2238 
 169   0.0000       0.416385        11.3304 
 170   0.0000       0.417809        11.3692 
 171   0.0000       0.423324        11.5192 
 172   0.0000       0.429960        11.6998 
 173   0.0000       0.432993        11.7823 
 174   0.0000       0.433109        11.7855 
 175   0.0000       0.439584        11.9617 
 176   0.0000       0.447870        12.1872 
 177   0.0000       0.451555        12.2874 
 178   0.0000       0.455280        12.3888 
 179   0.0000       0.457324        12.4444 
 180   0.0000       0.460819        12.5395 
 181   0.0000       0.467026        12.7084 
 182   0.0000       0.471575        12.8322 
 183   0.0000       0.474490        12.9115 
 184   0.0000       0.481933        13.1141 
 185   0.0000       0.483255        13.1500 
 186   0.0000       0.491725        13.3805 
 187   0.0000       0.497795        13.5457 
 188   0.0000       0.505655        13.7596 
 189   0.0000       0.514648        14.0043 
 190   0.0000       0.519260        14.1298 
 191   0.0000       0.520660        14.1679 
 192   0.0000       0.522852        14.2275 
 193   0.0000       0.533168        14.5082 
 194   0.0000       0.539594        14.6831 
 195   0.0000       0.544220        14.8090 
 196   0.0000       0.559157        15.2154 
 197   0.0000       0.559766        15.2320 
 198   0.0000       0.560928        15.2636 
 199   0.0000       0.564566        15.3626 
 200   0.0000       0.581311        15.8183 
 201   0.0000       0.590832        16.0773 
 202   0.0000       0.600254        16.3337 
 203   0.0000       0.600404        16.3378 
 204   0.0000       0.610071        16.6009 
 205   0.0000       0.627782        17.0828 
 206   0.0000       0.638715        17.3803 
 207   0.0000       0.641153        17.4467 
 208   0.0000       0.657148        17.8819 
 209   0.0000       0.657679        17.8964 
 210   0.0000       0.668038        18.1782 
 211   0.0000       0.671820        18.2811 
 212   0.0000       0.684151        18.6167 
 213   0.0000       0.691816        18.8253 
 214   0.0000       0.694295        18.8927 
 215   0.0000       0.714786        19.4503 
 216   0.0000       0.725541        19.7430 
 217   0.0000       0.754599        20.5337 
 218   0.0000       0.760206        20.6863 
 219   0.0000       0.770926        20.9780 
 220   0.0000       0.781917        21.2771 
 221   0.0000       0.782011        21.2796 
 222   0.0000       0.816346        22.2139 
 223   0.0000       0.834647        22.7119 
 224   0.0000       0.836246        22.7554 
 225   0.0000       0.845826        23.0161 
 226   0.0000       0.848032        23.0761 
 227   0.0000       0.851061        23.1585 
 228   0.0000       0.854393        23.2492 
 229   0.0000       0.868523        23.6337 
 230   0.0000       0.869021        23.6473 
 231   0.0000       0.869842        23.6696 
 232   0.0000       0.884393        24.0656 
 233   0.0000       0.894718        24.3465 
 234   0.0000       0.896339        24.3906 
 235   0.0000       0.900182        24.4952 
 236   0.0000       0.902847        24.5677 
 237   0.0000       0.903759        24.5925 
 238   0.0000       0.919125        25.0107 
 239   0.0000       0.920918        25.0595 
 240   0.0000       0.924356        25.1530 
 241   0.0000       0.928053        25.2536 
 242   0.0000       0.929120        25.2826 
 243   0.0000       0.933472        25.4011 
 244   0.0000       0.936845        25.4929 
 245   0.0000       0.938412        25.5355 
 246   0.0000       0.951798        25.8998 
 247   0.0000       0.951923        25.9031 
 248   0.0000       0.957522        26.0555 
 249   0.0000       0.969350        26.3774 
 250   0.0000       0.975480        26.5441 
 251   0.0000       0.979285        26.6477 
 252   0.0000       0.983378        26.7591 
 253   0.0000       0.985110        26.8062 
 254   0.0000       0.995408        27.0864 
 255   0.0000       0.996061        27.1042 
 256   0.0000       0.999016        27.1846 
 257   0.0000       1.004528        27.3346 
 258   0.0000       1.015492        27.6329 
 259   0.0000       1.016266        27.6540 
 260   0.0000       1.022031        27.8109 
 261   0.0000       1.027229        27.9523 
 262   0.0000       1.034796        28.1582 
 263   0.0000       1.042419        28.3657 
 264   0.0000       1.046286        28.4709 
 265   0.0000       1.054615        28.6975 
 266   0.0000       1.058626        28.8067 
 267   0.0000       1.066300        29.0155 
 268   0.0000       1.071098        29.1461 
 269   0.0000       1.091532        29.7021 
 270   0.0000       1.098227        29.8843 
 271   0.0000       1.100625        29.9495 
 272   0.0000       1.103035        30.0151 
 273   0.0000       1.115382        30.3511 
 274   0.0000       1.117214        30.4009 
 275   0.0000       1.123469        30.5711 
 276   0.0000       1.133836        30.8532 
 277   0.0000       1.145648        31.1747 
 278   0.0000       1.160246        31.5719 
 279   0.0000       1.169618        31.8269 
 280   0.0000       1.176065        32.0023 
 281   0.0000       1.176150        32.0047 
 282   0.0000       1.182218        32.1698 
 283   0.0000       1.198043        32.6004 
 284   0.0000       1.203519        32.7494 
 285   0.0000       1.204554        32.7776 
 286   0.0000       1.205343        32.7990 
 287   0.0000       1.231504        33.5109 
 288   0.0000       1.237494        33.6739 
 289   0.0000       1.251302        34.0497 
 290   0.0000       1.259135        34.2628 
 291   0.0000       1.275090        34.6970 
 292   0.0000       1.288756        35.0688 
 293   0.0000       1.294513        35.2255 
 294   0.0000       1.307465        35.5779 
 295   0.0000       1.313253        35.7354 
 296   0.0000       1.321512        35.9602 
 297   0.0000       1.326562        36.0976 
 298   0.0000       1.335412        36.3384 
 299   0.0000       1.355999        36.8986 
 300   0.0000       1.365767        37.1644 
 301   0.0000       1.383898        37.6578 
 302   0.0000       1.384095        37.6631 
 303   0.0000       1.389285        37.8044 
 304   0.0000       1.398882        38.0655 
 305   0.0000       1.408116        38.3168 
 306   0.0000       1.419639        38.6303 
 307   0.0000       1.429258        38.8921 
 308   0.0000       1.430304        38.9205 
 309   0.0000       1.441729        39.2315 
 310   0.0000       1.444902        39.3178 
 311   0.0000       1.452658        39.5288 
 312   0.0000       1.453387        39.5487 
 313   0.0000       1.454372        39.5755 
 314   0.0000       1.474819        40.1319 
 315   0.0000       1.481093        40.3026 
 316   0.0000       1.499348        40.7993 
 317   0.0000       1.504322        40.9347 
 318   0.0000       1.512196        41.1489 
 319   0.0000       1.517228        41.2859 
 320   0.0000       1.517457        41.2921 
 321   0.0000       1.523097        41.4456 
 322   0.0000       1.535290        41.7774 
 323   0.0000       1.548307        42.1316 
 324   0.0000       1.555044        42.3149 
 325   0.0000       1.560593        42.4659 
 326   0.0000       1.561681        42.4955 
 327   0.0000       1.568440        42.6794 
 328   0.0000       1.571848        42.7722 
 329   0.0000       1.580537        43.0086 
 330   0.0000       1.582813        43.0705 
 331   0.0000       1.591352        43.3029 
 332   0.0000       1.594851        43.3981 
 333   0.0000       1.602122        43.5959 
 334   0.0000       1.609260        43.7902 
 335   0.0000       1.619114        44.0583 
 336   0.0000       1.619986        44.0821 
 337   0.0000       1.625774        44.2395 
 338   0.0000       1.635455        44.5030 
 339   0.0000       1.636510        44.5317 
 340   0.0000       1.637496        44.5585 
 341   0.0000       1.646124        44.7933 
 342   0.0000       1.646790        44.8114 
 343   0.0000       1.658412        45.1277 
 344   0.0000       1.666018        45.3346 
 345   0.0000       1.680609        45.7317 
 346   0.0000       1.682240        45.7761 
 347   0.0000       1.688063        45.9345 
 348   0.0000       1.697030        46.1785 
 349   0.0000       1.699004        46.2323 
 350   0.0000       1.708077        46.4791 
 351   0.0000       1.710932        46.5568 
 352   0.0000       1.716989        46.7217 
 353   0.0000       1.719946        46.8021 
 354   0.0000       1.728769        47.0422 
 355   0.0000       1.738473        47.3063 
 356   0.0000       1.748183        47.5705 
 357   0.0000       1.758096        47.8402 
 358   0.0000       1.762514        47.9605 
 359   0.0000       1.769578        48.1527 
 360   0.0000       1.771659        48.2093 
 361   0.0000       1.779579        48.4248 
 362   0.0000       1.780478        48.4493 
 363   0.0000       1.791590        48.7516 
 364   0.0000       1.795702        48.8635 
 365   0.0000       1.803320        49.0708 
 366   0.0000       1.813774        49.3553 
 367   0.0000       1.814845        49.3845 
 368   0.0000       1.833649        49.8961 
 369   0.0000       1.841471        50.1090 
 370   0.0000       1.844755        50.1983 
 371   0.0000       1.853875        50.4465 
 372   0.0000       1.858236        50.5652 
 373   0.0000       1.861383        50.6508 
 374   0.0000       1.895757        51.5862 
 375   0.0000       1.902992        51.7831 
 376   0.0000       1.914013        52.0829 
 377   0.0000       1.931844        52.5682 
 378   0.0000       1.933589        52.6156 
 379   0.0000       1.943457        52.8841 
 380   0.0000       1.947530        52.9950 
 381   0.0000       1.954044        53.1722 
 382   0.0000       1.959585        53.3230 
 383   0.0000       1.978444        53.8362 
 384   0.0000       1.996404        54.3249 
 385   0.0000       2.025985        55.1298 
 386   0.0000       2.029816        55.2341 
 387   0.0000       2.032063        55.2952 
 388   0.0000       2.040297        55.5193 
 389   0.0000       2.045036        55.6483 
 390   0.0000       2.068492        56.2865 
 391   0.0000       2.071758        56.3754 
 392   0.0000       2.102705        57.2175 
 393   0.0000       2.113795        57.5193 
 394   0.0000       2.139342        58.2145 
 395   0.0000       2.145013        58.3688 
 396   0.0000       2.147617        58.4396 
 397   0.0000       2.161652        58.8215 
 398   0.0000       2.191318        59.6288 
 399   0.0000       2.203756        59.9673 
 400   0.0000       2.219448        60.3942 
 401   0.0000       2.223966        60.5172 
 402   0.0000       2.230318        60.6901 
 403   0.0000       2.254381        61.3448 
 404   0.0000       2.258642        61.4608 
 405   0.0000       2.262524        61.5664 
 406   0.0000       2.273357        61.8612 
 407   0.0000       2.294713        62.4423 
 408   0.0000       2.309534        62.8456 
 409   0.0000       2.322582        63.2007 
 410   0.0000       2.323602        63.2284 
 411   0.0000       2.326572        63.3092 
 412   0.0000       2.327028        63.3216 
 413   0.0000       2.351580        63.9897 
 414   0.0000       2.357622        64.1541 
 415   0.0000       2.378862        64.7321 
 416   0.0000       2.402085        65.3641 
 417   0.0000       2.405477        65.4563 
 418   0.0000       2.415345        65.7249 
 419   0.0000       2.424536        65.9750 
 420   0.0000       2.426214        66.0207 
 421   0.0000       2.433273        66.2127 
 422   0.0000       2.453106        66.7524 
 423   0.0000       2.462291        67.0023 
 424   0.0000       2.465596        67.0923 
 425   0.0000       2.468961        67.1839 
 426   0.0000       2.475438        67.3601 
 427   0.0000       2.482997        67.5658 
 428   0.0000       2.489027        67.7299 
 429   0.0000       2.497313        67.9554 
 430   0.0000       2.515011        68.4369 
 431   0.0000       2.523465        68.6670 
 432   0.0000       2.528141        68.7942 
 433   0.0000       2.529571        68.8331 
 434   0.0000       2.534403        68.9646 
 435   0.0000       2.551019        69.4168 
 436   0.0000       2.562680        69.7341 
 437   0.0000       2.569886        69.9301 
 438   0.0000       2.575376        70.0795 
 439   0.0000       2.584376        70.3245 
 440   0.0000       2.613061        71.1050 
 441   0.0000       2.613848        71.1264 
 442   0.0000       2.616264        71.1921 
 443   0.0000       2.622916        71.3732 
 444   0.0000       2.632515        71.6344 
 445   0.0000       2.646991        72.0283 
 446   0.0000       2.719283        73.9955 
 447   0.0000       2.729616        74.2766 
 448   0.0000       2.774333        75.4934 
 449   0.0000       2.794338        76.0378 
 450   0.0000       2.800134        76.1955 
 451   0.0000       2.927614        79.6644 
 452   0.0000       3.049317        82.9761 
 453   0.0000       3.174221        86.3749 
 454   0.0000       3.423469        93.1573 
 455   0.0000       4.989620       135.7745 
 456   0.0000       4.990542       135.7996 
 457   0.0000       5.010763       136.3498 
 458   0.0000       5.011078       136.3584 
 459   0.0000       5.013943       136.4363 
 460   0.0000       5.015751       136.4855 
 461   0.0000       5.021923       136.6535 
 462   0.0000       5.036937       137.0620 
 463   0.0000       5.039266       137.1254 
 464   0.0000       5.048536       137.3777 
 465   0.0000       5.052154       137.4761 
 466   0.0000       5.091596       138.5494 
 467   0.0000       5.099090       138.7533 
 468   0.0000       5.179341       140.9370 
 469   0.0000       5.200072       141.5012 
 470   0.0000       5.219668       142.0344 
 471   0.0000       5.234749       142.4448 
 472   0.0000       5.252000       142.9142 
 473   0.0000       5.256608       143.0396 
 474   0.0000       5.272450       143.4707 
 475   0.0000       5.290055       143.9497 
 476   0.0000       5.299135       144.1968 
 477   0.0000       5.306407       144.3947 
 478   0.0000       5.312837       144.5697 
 479   0.0000       5.317012       144.6833 
 480   0.0000       5.356068       145.7460 
 481   0.0000       5.372030       146.1804 
 482   0.0000       5.378760       146.3635 
 483   0.0000       5.416582       147.3927 
 484   0.0000       5.442506       148.0981 
 485   0.0000       5.446430       148.2049 
 486   0.0000       5.485146       149.2584 
 487   0.0000       5.498046       149.6094 
 488   0.0000       5.548174       150.9735 
 489   0.0000       5.586740       152.0229 
 490   0.0000       5.596870       152.2986 
 491   0.0000       5.625035       153.0650 
 492   0.0000       5.659528       154.0036 
 493   0.0000       5.678263       154.5134 
 494   0.0000       5.730996       155.9483 
 495   0.0000       5.747210       156.3895 
 496   0.0000       5.808399       158.0546 
 497   0.0000       5.850741       159.2068 
 498   0.0000       5.871234       159.7644 
 499   0.0000       5.905414       160.6945 
 500   0.0000       6.125138       166.6735 
 501   0.0000       6.300844       171.4547 
 502   0.0000      29.600232       805.4633 
 503   0.0000      29.728494       808.9535 
 504   0.0000      29.793394       810.7195 
 505   0.0000      29.826871       811.6304 
 506   0.0000      29.837741       811.9262 
 507   0.0000      29.856554       812.4381 
 508   0.0000      29.929492       814.4229 
 509   0.0000      29.958068       815.2005 
 510   0.0000      29.988424       816.0265 
 511   0.0000      29.999335       816.3234 
 512   0.0000      30.042161       817.4888 
 513   0.0000      30.077393       818.4475 
 514   0.0000      30.086420       818.6931 
 515   0.0000      30.114929       819.4689 
 516   0.0000      30.134555       820.0029 
 517   0.0000      30.169449       820.9524 
 518   0.0000      30.232377       822.6648 
 519   0.0000      30.252545       823.2136 
 520   0.0000      30.276057       823.8534 
 521   0.0000      30.293963       824.3407 
 522   0.0000      30.444399       828.4342 
 523   0.0000      30.527405       830.6929 
 524   0.0000      36.616783       996.3933 
 525   0.0000      36.617500       996.4128 
 526   0.0000      36.630074       996.7550 
 527   0.0000      36.632717       996.8269 
 528   0.0000      36.638212       996.9764 
 529   0.0000      36.641391       997.0629 
 530   0.0000      36.661313       997.6050 
 531   0.0000      36.665005       997.7055 
 532   0.0000      36.673060       997.9247 
 533   0.0000      36.675935       998.0029 
 534   0.0000      36.707207       998.8539 
 535   0.0000      36.721428       999.2409 
 536   0.0000      36.791518      1001.1481 
 537   0.0000      36.814998      1001.7870 
 538   0.0000      36.829764      1002.1888 
 539   0.0000      36.851254      1002.7736 
 540   0.0000      36.867002      1003.2021 
 541   0.0000      36.877761      1003.4949 
 542   0.0000      36.884194      1003.6700 
 543   0.0000      36.904953      1004.2348 
 544   0.0000      36.934143      1005.0291 
 545   0.0000      36.939038      1005.1623 
 546   0.0000      36.990556      1006.5642 
 547   0.0000      37.015739      1007.2495 
 548   0.0000      37.045650      1008.0634 

                 SPIN DOWN ORBITALS
  NO   OCC          E(Eh)            E(eV) 
   0   1.0000     -10.226259      -278.2707 
   1   1.0000     -10.218221      -278.0519 
   2   1.0000     -10.212277      -277.8902 
   3   1.0000     -10.210427      -277.8398 
   4   1.0000     -10.203485      -277.6509 
   5   1.0000     -10.203337      -277.6469 
   6   1.0000     -10.203154      -277.6419 
   7   1.0000     -10.202622      -277.6275 
   8   1.0000     -10.202412      -277.6217 
   9   1.0000     -10.200223      -277.5622 
  10   1.0000     -10.199807      -277.5509 
  11   1.0000     -10.199355      -277.5386 
  12   1.0000     -10.199185      -277.5339 
  13   1.0000     -10.197250      -277.4813 
  14   1.0000     -10.189658      -277.2747 
  15   1.0000     -10.186932      -277.2005 
  16   1.0000     -10.182219      -277.0723 
  17   1.0000     -10.181872      -277.0628 
  18   1.0000     -10.181855      -277.0624 
  19   1.0000     -10.181595      -277.0553 
  20   1.0000     -10.171593      -276.7831 
  21   1.0000     -10.171499      -276.7806 
  22   1.0000      -0.862457       -23.4687 
  23   1.0000      -0.858133       -23.3510 
  24   1.0000      -0.809094       -22.0166 
  25   1.0000      -0.792610       -21.5680 
  26   1.0000      -0.783219       -21.3125 
  27   1.0000      -0.765517       -20.8308 
  28   1.0000      -0.755072       -20.5465 
  29   1.0000      -0.748338       -20.3633 
  30   1.0000      -0.728212       -19.8157 
  31   1.0000      -0.709603       -19.3093 
  32   1.0000      -0.694802       -18.9065 
  33   1.0000      -0.650763       -17.7082 
  34   1.0000      -0.628794       -17.1104 
  35   1.0000      -0.615415       -16.7463 
  36   1.0000      -0.607759       -16.5380 
  37   1.0000      -0.601068       -16.3559 
  38   1.0000      -0.581146       -15.8138 
  39   1.0000      -0.572135       -15.5686 
  40   1.0000      -0.561719       -15.2852 
  41   1.0000      -0.534621       -14.5478 
  42   1.0000      -0.504620       -13.7314 
  43   1.0000      -0.480267       -13.0687 
  44   1.0000      -0.471687       -12.8353 
  45   1.0000      -0.470717       -12.8089 
  46   1.0000      -0.464474       -12.6390 
  47   1.0000      -0.453178       -12.3316 
  48   1.0000      -0.436153       -11.8683 
  49   1.0000      -0.435020       -11.8375 
  50   1.0000      -0.423880       -11.5344 
  51   1.0000      -0.423578       -11.5262 
  52   1.0000      -0.422764       -11.5040 
  53   1.0000      -0.420019       -11.4293 
  54   1.0000      -0.418268       -11.3816 
  55   1.0000      -0.411154       -11.1881 
  56   1.0000      -0.406036       -11.0488 
  57   1.0000      -0.379910       -10.3379 
  58   1.0000      -0.372852       -10.1458 
  59   1.0000      -0.371221       -10.1014 
  60   1.0000      -0.364172        -9.9096 
  61   1.0000      -0.361509        -9.8372 
  62   1.0000      -0.358792        -9.7632 
  63   1.0000      -0.358721        -9.7613 
  64   1.0000      -0.350496        -9.5375 
  65   1.0000      -0.342176        -9.3111 
  66   1.0000      -0.331091        -9.0094 
  67   1.0000      -0.329759        -8.9732 
  68   1.0000      -0.326105        -8.8738 
  69   1.0000      -0.324824        -8.8389 
  70   1.0000      -0.324455        -8.8289 
  71   1.0000      -0.318792        -8.6748 
  72   1.0000      -0.310062        -8.4372 
  73   1.0000      -0.265781        -7.2323 
  74   1.0000      -0.264819        -7.2061 
  75   1.0000      -0.256503        -6.9798 
  76   1.0000      -0.242200        -6.5906 
  77   1.0000      -0.205985        -5.6051 
  78   0.0000      -0.083779        -2.2797 
  79   0.0000      -0.047802        -1.3008 
  80   0.0000      -0.013533        -0.3683 
  81   0.0000      -0.006551        -0.1783 
  82   0.0000       0.007379         0.2008 
  83   0.0000       0.016386         0.4459 
  84   0.0000       0.022361         0.6085 
  85   0.0000       0.023669         0.6441 
  86   0.0000       0.033759         0.9186 
  87   0.0000       0.035699         0.9714 
  88   0.0000       0.037687         1.0255 
  89   0.0000       0.046042         1.2529 
  90   0.0000       0.048316         1.3147 
  91   0.0000       0.056715         1.5433 
  92   0.0000       0.061481         1.6730 
  93   0.0000       0.069345         1.8870 
  94   0.0000       0.073541         2.0011 
  95   0.0000       0.078314         2.1310 
  96   0.0000       0.085664         2.3310 
  97   0.0000       0.092931         2.5288 
  98   0.0000       0.096653         2.6301 
  99   0.0000       0.100651         2.7388 
 100   0.0000       0.107972         2.9381 
 101   0.0000       0.119618         3.2550 
 102   0.0000       0.129392         3.5209 
 103   0.0000       0.141018         3.8373 
 104   0.0000       0.142468         3.8767 
 105   0.0000       0.152571         4.1517 
 106   0.0000       0.162942         4.4339 
 107   0.0000       0.169376         4.6090 
 108   0.0000       0.174059         4.7364 
 109   0.0000       0.181074         4.9273 
 110   0.0000       0.182401         4.9634 
 111   0.0000       0.192242         5.2312 
 112   0.0000       0.192875         5.2484 
 113   0.0000       0.195380         5.3166 
 114   0.0000       0.200208         5.4479 
 115   0.0000       0.200401         5.4532 
 116   0.0000       0.202876         5.5205 
 117   0.0000       0.207356         5.6424 
 118   0.0000       0.209263         5.6943 
 119   0.0000       0.219225         5.9654 
 120   0.0000       0.222446         6.0531 
 121   0.0000       0.225719         6.1421 
 122   0.0000       0.226014         6.1502 
 123   0.0000       0.231963         6.3120 
 124   0.0000       0.235618         6.4115 
 125   0.0000       0.242769         6.6061 
 126   0.0000       0.245132         6.6704 
 127   0.0000       0.253296         6.8925 
 128   0.0000       0.253877         6.9083 
 129   0.0000       0.258088         7.0229 
 130   0.0000       0.258301         7.0287 
 131   0.0000       0.260070         7.0769 
 132   0.0000       0.267840         7.2883 
[...]
  Y          -0.4020121           -0.0007849            0.9156340
  Z          -0.0008183            0.9999995            0.0004979

Notes:  (1) The A matrix conforms to the "SAI" spin Hamiltonian convention.
        (2) Tensor is right-handed.

 -----------------------------------------------------------
 Nucleus  44H : A:ISTP=    1 I=  0.5 P=533.5514 MHz/au**3
                Q:ISTP=    2 I=  1.0 Q=  0.0029 barn     
 -----------------------------------------------------------
 Solving for nuclear perturbation:
Forming RHS of the CP-SCF equations         ... 
Calc. nucleus orbit integrals (SHARK)       ... done

------------------------------------------------------------------------------
                           ORCA CP-SCF CALCULATION
------------------------------------------------------------------------------

Input orbitals are from        ... EPRII_i.gbw
Input Perturbation             ... EPRII_i.pin.tmp
Wavefunction output            ... EPRII_i.pout.tmp
Perturbation mode              ... Imaginary perturbation
Solver                         ... POPLE
Max. number of iterations      ... 64
Convergence tolerance          ... 1.000e-03
Integral handling              ... Direct
DFT GridXC                     ... 1
COSX GridX                     ... 1
COSX IntAccX                   ... 3.067
COSX Algorithm                 ... Auto
Number of perturbations        ... 3
Number of operators            ... 2
Orbital ranges used for CP-SCF:
 Operator 0:  Orbitals   0... 78  to  79...548
 Operator 1:  Orbitals   0... 77  to  78...548
Variables per perturbation     ... 73868
DFT calculation                         ... on
XC functional terms                     ... off
Hybrid DFT                              ... on
   Exchange mixing (SCF)                ...  0.200
   Exchange mixing (CP-SCF)             ...  0.200
   GGA exch. scaling(SCF)               ...  0.720
   GGA exch. scaling (CP-SCF)           ...  0.720
   GGA corr. scaling (SCF)              ...  0.810
   GGA corr. scaling (CP-SCF)           ...  0.810

CP-SCF GRID
-----------

General Integration Accuracy     IntAcc      ... 3.467
Radial Grid Type                 RadialGrid  ... OptM3 with GC (2021)
Angular Grid (max. ang.)         AngularGrid ... 1 (Lebedev-50)
Angular grid pruning method      GridPruning ... 4 (adaptive)
Weight generation scheme         WeightScheme... Becke
Basis function cutoff            BFCut       ... 1.0000e-10
Integration weight cutoff        WCut        ... 1.0000e-14
Angular grids for H and He will be reduced by one unit
Partially contracted basis set               ... off
Rotationally invariant grid construction     ... off

Total number of grid points                  ...    30039
Total number of batches                      ...      490
Average number of points per batch           ...       61
Average number of grid points per atom       ...      639

CP-SCF GRIDX
------------

General Integration Accuracy     IntAcc      ... 3.067
Radial Grid Type                 RadialGrid  ... OptM3 with GC (2021)
Angular Grid (max. ang.)         AngularGrid ... 1 (Lebedev-50)
Angular grid pruning method      GridPruning ... 4 (adaptive)
Weight generation scheme         WeightScheme... Becke
Basis function cutoff            BFCut       ... 1.0000e-10
Integration weight cutoff        WCut        ... 1.0000e-14
Angular grids for H and He will be reduced by one unit
Partially contracted basis set               ... on
Rotationally invariant grid construction     ... off

Total number of grid points                  ...    14123
Total number of batches                      ...      251
Average number of points per batch           ...       56
Average number of grid points per atom       ...      300

Memory available               ... 863.4 MB
Memory needed per perturbation ...  17.7 MB
Perturbations treated per batch... 3
Number of batches              ... 1
     CP-SCF ITERATION   0:   4.5740e-02 (   1.9 sec   0/  3 done)
     CP-SCF ITERATION   1:   1.9263e-03 (   1.9 sec   0/  3 done)
     CP-SCF ITERATION   2:   1.3458e-04 (   1.9 sec   3/  3 done)
                    *** THE CP-SCF HAS CONVERGED ***

Forming final perturbed densities           ... done
Transforming perturbed density to AO basis  ... done

 Raw HFC matrix (all values in MHz): 
 -----------------------------------
                 0.7716              -0.2735               0.0001
                -0.2734               0.0617              -0.0003
                 0.0001              -0.0003               0.1750

 A(FC)           0.3361               0.3361               0.3361
 A(SD)          -0.3676              -0.1611               0.5287
 A(ORB+DIA)      0.0001              -0.0000              -0.0002    A(PC) =  -0.0000
 A(ORB)         -0.0000              -0.0002              -0.0002    A(PC) =  -0.0001
 A(DIA)          0.0001               0.0002               0.0000    A(PC) =   0.0001
             ----------           ----------           ----------
 A(Tot)         -0.0314               0.1750               0.8647    A(iso)=    0.3361
 Orientation: 
  X           0.3224023           -0.0006671            0.9466025
  Y           0.9466018           -0.0011925           -0.3224029
  Z           0.0013439            0.9999991            0.0002471

Notes:  (1) The A matrix conforms to the "SAI" spin Hamiltonian convention.
        (2) Tensor is right-handed.

 -----------------------------------------------------------
 Nucleus  45H : A:ISTP=    1 I=  0.5 P=533.5514 MHz/au**3
                Q:ISTP=    2 I=  1.0 Q=  0.0029 barn     
 -----------------------------------------------------------
 Solving for nuclear perturbation:
Forming RHS of the CP-SCF equations         ... 
Calc. nucleus orbit integrals (SHARK)       ... done

------------------------------------------------------------------------------
                           ORCA CP-SCF CALCULATION
------------------------------------------------------------------------------

Input orbitals are from        ... EPRII_i.gbw
Input Perturbation             ... EPRII_i.pin.tmp
Wavefunction output            ... EPRII_i.pout.tmp
Perturbation mode              ... Imaginary perturbation
Solver                         ... POPLE
Max. number of iterations      ... 64
Convergence tolerance          ... 1.000e-03
Integral handling              ... Direct
DFT GridXC                     ... 1
COSX GridX                     ... 1
COSX IntAccX                   ... 3.067
COSX Algorithm                 ... Auto
Number of perturbations        ... 3
Number of operators            ... 2
Orbital ranges used for CP-SCF:
 Operator 0:  Orbitals   0... 78  to  79...548
 Operator 1:  Orbitals   0... 77  to  78...548
Variables per perturbation     ... 73868
DFT calculation                         ... on
XC functional terms                     ... off
Hybrid DFT                              ... on
   Exchange mixing (SCF)                ...  0.200
   Exchange mixing (CP-SCF)             ...  0.200
   GGA exch. scaling(SCF)               ...  0.720
   GGA exch. scaling (CP-SCF)           ...  0.720
   GGA corr. scaling (SCF)              ...  0.810
   GGA corr. scaling (CP-SCF)           ...  0.810

CP-SCF GRID
-----------

General Integration Accuracy     IntAcc      ... 3.467
Radial Grid Type                 RadialGrid  ... OptM3 with GC (2021)
Angular Grid (max. ang.)         AngularGrid ... 1 (Lebedev-50)
Angular grid pruning method      GridPruning ... 4 (adaptive)
Weight generation scheme         WeightScheme... Becke
Basis function cutoff            BFCut       ... 1.0000e-10
Integration weight cutoff        WCut        ... 1.0000e-14
Angular grids for H and He will be reduced by one unit
Partially contracted basis set               ... off
Rotationally invariant grid construction     ... off

Total number of grid points                  ...    30039
Total number of batches                      ...      490
Average number of points per batch           ...       61
Average number of grid points per atom       ...      639

CP-SCF GRIDX
------------

General Integration Accuracy     IntAcc      ... 3.067
Radial Grid Type                 RadialGrid  ... OptM3 with GC (2021)
Angular Grid (max. ang.)         AngularGrid ... 1 (Lebedev-50)
Angular grid pruning method      GridPruning ... 4 (adaptive)
Weight generation scheme         WeightScheme... Becke
Basis function cutoff            BFCut       ... 1.0000e-10
Integration weight cutoff        WCut        ... 1.0000e-14
Angular grids for H and He will be reduced by one unit
Partially contracted basis set               ... on
Rotationally invariant grid construction     ... off

Total number of grid points                  ...    14123
Total number of batches                      ...      251
Average number of points per batch           ...       56
Average number of grid points per atom       ...      300

Memory available               ... 862.8 MB
Memory needed per perturbation ...  17.7 MB
Perturbations treated per batch... 3
Number of batches              ... 1
     CP-SCF ITERATION   0:   4.5850e-02 (   1.8 sec   0/  3 done)
     CP-SCF ITERATION   1:   1.9365e-03 (   1.8 sec   0/  3 done)
     CP-SCF ITERATION   2:   1.4150e-04 (   1.9 sec   3/  3 done)
                    *** THE CP-SCF HAS CONVERGED ***

Forming final perturbed densities           ... done
Transforming perturbed density to AO basis  ... done

 Raw HFC matrix (all values in MHz): 
 -----------------------------------
                 0.7853               0.2314               0.0005
                 0.2313               0.0459              -0.0001
                 0.0005              -0.0001               0.1831

 A(FC)           0.3382               0.3382               0.3382
 A(SD)          -0.3587              -0.1550               0.5137
 A(ORB+DIA)      0.0000              -0.0000              -0.0002    A(PC) =  -0.0001
 A(ORB)         -0.0001              -0.0002              -0.0002    A(PC) =  -0.0001
 A(DIA)          0.0001               0.0002               0.0000    A(PC) =   0.0001
             ----------           ----------           ----------
 A(Tot)         -0.0205               0.1831               0.8517    A(iso)=    0.3381
 Orientation: 
  X           0.2759989            0.0003169            0.9611579
  Y          -0.9611574            0.0012110            0.2759983
  Z          -0.0010765           -0.9999992            0.0006389

Notes:  (1) The A matrix conforms to the "SAI" spin Hamiltonian convention.
        (2) Tensor is right-handed.

 -----------------------------------------------------------
 Nucleus  46H : A:ISTP=    1 I=  0.5 P=533.5514 MHz/au**3
                Q:ISTP=    2 I=  1.0 Q=  0.0029 barn     
 -----------------------------------------------------------
 Solving for nuclear perturbation:
Forming RHS of the CP-SCF equations         ... 
Calc. nucleus orbit integrals (SHARK)       ... done

------------------------------------------------------------------------------
                           ORCA CP-SCF CALCULATION
------------------------------------------------------------------------------

Input orbitals are from        ... EPRII_i.gbw
Input Perturbation             ... EPRII_i.pin.tmp
Wavefunction output            ... EPRII_i.pout.tmp
Perturbation mode              ... Imaginary perturbation
Solver                         ... POPLE
Max. number of iterations      ... 64
Convergence tolerance          ... 1.000e-03
Integral handling              ... Direct
DFT GridXC                     ... 1
COSX GridX                     ... 1
COSX IntAccX                   ... 3.067
COSX Algorithm                 ... Auto
Number of perturbations        ... 3
Number of operators            ... 2
Orbital ranges used for CP-SCF:
 Operator 0:  Orbitals   0... 78  to  79...548
 Operator 1:  Orbitals   0... 77  to  78...548
Variables per perturbation     ... 73868
DFT calculation                         ... on
XC functional terms                     ... off
Hybrid DFT                              ... on
   Exchange mixing (SCF)                ...  0.200
   Exchange mixing (CP-SCF)             ...  0.200
   GGA exch. scaling(SCF)               ...  0.720
   GGA exch. scaling (CP-SCF)           ...  0.720
   GGA corr. scaling (SCF)              ...  0.810
   GGA corr. scaling (CP-SCF)           ...  0.810

CP-SCF GRID
-----------

General Integration Accuracy     IntAcc      ... 3.467
Radial Grid Type                 RadialGrid  ... OptM3 with GC (2021)
Angular Grid (max. ang.)         AngularGrid ... 1 (Lebedev-50)
Angular grid pruning method      GridPruning ... 4 (adaptive)
Weight generation scheme         WeightScheme... Becke
Basis function cutoff            BFCut       ... 1.0000e-10
Integration weight cutoff        WCut        ... 1.0000e-14
Angular grids for H and He will be reduced by one unit
Partially contracted basis set               ... off
Rotationally invariant grid construction     ... off

Total number of grid points                  ...    30039
Total number of batches                      ...      490
Average number of points per batch           ...       61
Average number of grid points per atom       ...      639

CP-SCF GRIDX
------------

General Integration Accuracy     IntAcc      ... 3.067
Radial Grid Type                 RadialGrid  ... OptM3 with GC (2021)
Angular Grid (max. ang.)         AngularGrid ... 1 (Lebedev-50)
Angular grid pruning method      GridPruning ... 4 (adaptive)
Weight generation scheme         WeightScheme... Becke
Basis function cutoff            BFCut       ... 1.0000e-10
Integration weight cutoff        WCut        ... 1.0000e-14
Angular grids for H and He will be reduced by one unit
Partially contracted basis set               ... on
Rotationally invariant grid construction     ... off

Total number of grid points                  ...    14123
Total number of batches                      ...      251
Average number of points per batch           ...       56
Average number of grid points per atom       ...      300

Memory available               ... 862.2 MB
Memory needed per perturbation ...  17.7 MB
Perturbations treated per batch... 3
Number of batches              ... 1
     CP-SCF ITERATION   0:   4.2045e-02 (   1.8 sec   0/  3 done)
     CP-SCF ITERATION   1:   1.7092e-03 (   1.9 sec   1/  3 done)
     CP-SCF ITERATION   2:   7.7238e-05 (   1.6 sec   3/  3 done)
                    *** THE CP-SCF HAS CONVERGED ***

Forming final perturbed densities           ... done
Transforming perturbed density to AO basis  ... done

 Raw HFC matrix (all values in MHz): 
 -----------------------------------
                -0.0473              -0.0979              -0.0000
                -0.0979              -0.1992              -0.0001
                -0.0000              -0.0001              -0.1905

 A(FC)          -0.1457              -0.1457              -0.1457
 A(SD)           0.1464              -0.0448              -0.1015
 A(ORB+DIA)      0.0000               0.0000               0.0001    A(PC) =   0.0000
 A(ORB)         -0.0000              -0.0001              -0.0000    A(PC) =  -0.0000
 A(DIA)          0.0000               0.0001               0.0001    A(PC) =   0.0001
             ----------           ----------           ----------
 A(Tot)          0.0007              -0.1905              -0.2471    A(iso)=   -0.1457
 Orientation: 
  X           0.8979957            0.0004643            0.4400039
  Y          -0.4400042            0.0007210            0.8979954
  Z           0.0000997           -0.9999996            0.0008517

Notes:  (1) The A matrix conforms to the "SAI" spin Hamiltonian convention.
        (2) Tensor is right-handed.


--------------------------------------------------------------------------------
----------------------------------------------------------------------------
                           ORCA EULER ANGLE PROGRAM
----------------------------------------------------------------------------

Only g-tensor available        -->  using g-tensor as reference tensor

Reference tensor               ...  g

g-tensor ordering              ...  |g_min> --> |gx>
                                    |g_mid> --> |gy>
                                    |g_max> --> |gz>

A- and EFG-tensor ordering     ...  the axes |Ax>, |Qx>, |Ay>, etc. are assigned
                                    such that the Euler rotation is minimal. You
                                    can find the respective eigenvalues as Ax,
                                    EFGx, Ay, etc. in the tables below.
                                    The relation of |Ax>, |Ay>,  etc. to Amin, Amid, etc.
                                    (as printed in the ORCA EPR/NMR CALCULATION Output)
                                    is obtained in the detailed printout.

Euler rotation around          ...  z - y - z
   First rotation              -->  by alpha around z
   Second rotation             -->  by beta around y'
   Third rotation              -->  by gamma around z''
   Positive / Negative angle   -->  clockwise / counterclockwise rotation

Plot EFG-tensors                    (-)
Plot HFC-tensors                    (-)
Detailed Printout                   (-)

-------------------------------------------------------------------------
          Euler rotation of hyperfine tensor to g-tensor
-------------------------------------------------------------------------

-------------------------------------------------------------------
 Atom  |   Alpha    Beta    Gamma   |   Ax       Ay       Az 
       |          [degrees]         |           [MHz]         
-------------------------------------------------------------------
  7H       43.3      0.0      0.0      28.39    20.65    20.07
  8H       -6.7      0.0      0.0      67.09    49.07    48.07
 10H     -129.1     35.4    112.5       2.16    -7.40    -8.64
 11H       50.9     35.5    -67.5       2.15    -7.40    -8.64
 13H     -161.5     15.0   -178.2       2.13    -0.76    -1.02
 14H       18.3     15.0      2.1       2.13    -0.76    -1.02
 16H       59.9     21.9    -67.4       1.08    -0.55    -0.61
 17H     -120.2     22.0    112.7       1.08    -0.55    -0.61
 19H      -69.5     24.4     85.6       0.51    -0.28    -0.30
 20H      110.7     24.4    -94.5       0.51    -0.28    -0.30
 22H     -140.5     29.3   -178.3       2.96     6.34     3.62
 23H       39.6     29.2      1.6       2.96     6.33     3.62
 25H      -48.2     21.1     34.5       2.34    -0.47    -0.65
 26H      131.9     21.1   -145.6       2.34    -0.47    -0.65
 28H     -176.8     10.2    146.2       0.66    -0.35    -0.37
 29H        3.3     10.1    -33.8       0.66    -0.35    -0.37
 31H      138.2     10.8   -147.3       0.53    -0.25    -0.27
 32H      -42.0     10.7     32.8       0.53    -0.25    -0.27
 34H        2.5      0.0      0.0       0.50    -0.12    -0.14
 35H      -17.6      0.0      0.0       0.32    -0.18    -0.19
 42H       44.7      0.1    -44.5       0.50     0.27     0.30
 43H       26.6      0.0      0.0      -0.25    -0.00    -0.19
 44H      -15.9      0.0      0.0      -0.03     0.86     0.17
 45H       57.4      0.1    -38.5      -0.02     0.85     0.18
 46H       -2.5      0.1    -20.8      -0.25     0.00    -0.19
-------------------------------------------------------------------


Maximum memory used throughout the entire EPRNMR-calculation: 251.7 MB

Timings for individual modules:

Sum of individual times         ...     4499.822 sec (=  74.997 min)
GTO integral calculation        ...        5.406 sec (=   0.090 min)   0.1 %
Spin-Orbit-Coupling Matrices    ...       12.920 sec (=   0.215 min)   0.3 %
SCF iterations                  ...       75.628 sec (=   1.260 min)   1.7 %
EPR/NMR calculation             ...     4405.869 sec (=  73.431 min)  97.9 %
                             ****ORCA TERMINATED NORMALLY****
TOTAL RUN TIME: 0 days 1 hours 15 minutes 4 seconds 112 msec
