
                                 *****************
                                 * O   R   C   A *
                                 *****************

                                            #,                                       
                                            ###                                      
                                            ####                                     
                                            #####                                    
                                            ######                                   
                                           ########,                                 
                                     ,,################,,,,,                         
                               ,,#################################,,                 
                          ,,##########################################,,             
                       ,#########################################, ''#####,          
                    ,#############################################,,   '####,        
                  ,##################################################,,,,####,       
                ,###########''''           ''''###############################       
              ,#####''   ,,,,##########,,,,          '''####'''          '####       
            ,##' ,,,,###########################,,,                        '##       
           ' ,,###''''                  '''############,,,                           
         ,,##''                                '''############,,,,        ,,,,,,###''
      ,#''                                            '''#######################'''  
     '                                                          ''''####''''         
             ,#######,   #######,   ,#######,      ##                                
            ,#'     '#,  ##    ##  ,#'     '#,    #''#        ######   ,####,        
            ##       ##  ##   ,#'  ##            #'  '#       #        #'  '#        
            ##       ##  #######   ##           ,######,      #####,   #    #        
            '#,     ,#'  ##    ##  '#,     ,#' ,#      #,         ##   #,  ,#        
             '#######'   ##     ##  '#######'  #'      '#     #####' # '####'        



                  #######################################################
                  #                        -***-                        #
                  #          Department of theory and spectroscopy      #
                  #    Directorship and core code : Frank Neese         #
                  #        Max Planck Institute fuer Kohlenforschung    #
                  #                Kaiser Wilhelm Platz 1               #
                  #                 D-45470 Muelheim/Ruhr               #
                  #                      Germany                        #
                  #                                                     #
                  #                  All rights reserved                #
                  #                        -***-                        #
                  #######################################################


                         Program Version 5.0.4 -  RELEASE  -


 With contributions from (in alphabetic order):
   Daniel Aravena         : Magnetic Suceptibility
   Michael Atanasov       : Ab Initio Ligand Field Theory (pilot matlab implementation)
   Alexander A. Auer      : GIAO ZORA, VPT2 properties, NMR spectrum
   Ute Becker             : Parallelization
   Giovanni Bistoni       : ED, misc. LED, open-shell LED, HFLD
   Martin Brehm           : Molecular dynamics
   Dmytro Bykov           : SCF Hessian
   Vijay G. Chilkuri      : MRCI spin determinant printing, contributions to CSF-ICE
   Dipayan Datta          : RHF DLPNO-CCSD density
   Achintya Kumar Dutta   : EOM-CC, STEOM-CC
   Dmitry Ganyushin       : Spin-Orbit,Spin-Spin,Magnetic field MRCI
   Miquel Garcia          : C-PCM and meta-GGA Hessian, CC/C-PCM, Gaussian charge scheme
   Yang Guo               : DLPNO-NEVPT2, F12-NEVPT2, CIM, IAO-localization
   Andreas Hansen         : Spin unrestricted coupled pair/coupled cluster methods
   Benjamin Helmich-Paris : MC-RPA, TRAH-SCF, COSX integrals
   Lee Huntington         : MR-EOM, pCC
   Robert Izsak           : Overlap fitted RIJCOSX, COSX-SCS-MP3, EOM
   Marcus Kettner         : VPT2
   Christian Kollmar      : KDIIS, OOCD, Brueckner-CCSD(T), CCSD density, CASPT2, CASPT2-K
   Simone Kossmann        : Meta GGA functionals, TD-DFT gradient, OOMP2, MP2 Hessian
   Martin Krupicka        : Initial AUTO-CI
   Lucas Lang             : DCDCAS
   Marvin Lechner         : AUTO-CI (C++ implementation), FIC-MRCC
   Dagmar Lenk            : GEPOL surface, SMD
   Dimitrios Liakos       : Extrapolation schemes; Compound Job, initial MDCI parallelization
   Dimitrios Manganas     : Further ROCIS development; embedding schemes
   Dimitrios Pantazis     : SARC Basis sets
   Anastasios Papadopoulos: AUTO-CI, single reference methods and gradients
   Taras Petrenko         : DFT Hessian,TD-DFT gradient, ASA, ECA, R-Raman, ABS, FL, XAS/XES, NRVS
   Peter Pinski           : DLPNO-MP2, DLPNO-MP2 Gradient
   Christoph Reimann      : Effective Core Potentials
   Marius Retegan         : Local ZFS, SOC
   Christoph Riplinger    : Optimizer, TS searches, QM/MM, DLPNO-CCSD(T), (RO)-DLPNO pert. Triples
   Tobias Risthaus        : Range-separated hybrids, TD-DFT gradient, RPA, STAB
   Michael Roemelt        : Original ROCIS implementation
   Masaaki Saitow         : Open-shell DLPNO-CCSD energy and density
   Barbara Sandhoefer     : DKH picture change effects
   Avijit Sen             : IP-ROCIS
   Kantharuban Sivalingam : CASSCF convergence, NEVPT2, FIC-MRCI
   Bernardo de Souza      : ESD, SOC TD-DFT
   Georgi Stoychev        : AutoAux, RI-MP2 NMR, DLPNO-MP2 response
   Willem Van den Heuvel  : Paramagnetic NMR
   Boris Wezisla          : Elementary symmetry handling
   Frank Wennmohs         : Technical directorship


 We gratefully acknowledge several colleagues who have allowed us to
 interface, adapt or use parts of their codes:
   Stefan Grimme, W. Hujo, H. Kruse, P. Pracht,  : VdW corrections, initial TS optimization,
                  C. Bannwarth, S. Ehlert          DFT functionals, gCP, sTDA/sTD-DF
   Ed Valeev, F. Pavosevic, A. Kumar             : LibInt (2-el integral package), F12 methods
   Garnet Chan, S. Sharma, J. Yang, R. Olivares  : DMRG
   Ulf Ekstrom                                   : XCFun DFT Library
   Mihaly Kallay                                 : mrcc  (arbitrary order and MRCC methods)
   Jiri Pittner, Ondrej Demel                    : Mk-CCSD
   Frank Weinhold                                : gennbo (NPA and NBO analysis)
   Christopher J. Cramer and Donald G. Truhlar   : smd solvation model
   Lars Goerigk                                  : TD-DFT with DH, B97 family of functionals
   V. Asgeirsson, H. Jonsson                     : NEB implementation
   FAccTs GmbH                                   : IRC, NEB, NEB-TS, DLPNO-Multilevel, CI-OPT
                                                   MM, QMMM, 2- and 3-layer-ONIOM, Crystal-QMMM,
                                                   LR-CPCM, SF, NACMEs, symmetry and pop. for TD-DFT,
                                                   nearIR, NL-DFT gradient (VV10), updates on ESD,
                                                   ML-optimized integration grids
   S Lehtola, MJT Oliveira, MAL Marques          : LibXC Library
   Liviu Ungur et al                             : ANISO software


 Your calculation uses the libint2 library for the computation of 2-el integrals
 For citations please refer to: http://libint.valeyev.net

 Your ORCA version has been built with support for libXC version: 5.1.0
 For citations please refer to: https://tddft.org/programs/libxc/

 This ORCA versions uses:
   CBLAS   interface :  Fast vector & matrix operations
   LAPACKE interface :  Fast linear algebra routines
   SCALAPACK package :  Parallel linear algebra routines
   Shared memory     :  Shared parallel matrices
   BLAS/LAPACK       :  OpenBLAS 0.3.15  USE64BITINT DYNAMIC_ARCH NO_AFFINITY SkylakeX SINGLE_THREADED
        Core in use  :  SkylakeX
   Copyright (c) 2011-2014, The OpenBLAS Project




***************************************
The coordinates will be read from file: model.xyz
***************************************


================================================================================

----- Orbital basis set information -----
Your calculation utilizes the basis: cc-pVDZ 
       H, B-Ne : Obtained from the ccRepo (grant-hill.group.shef.ac.uk/ccrepo) Feb. 2017
                 T. H. Dunning, Jr., J. Chem. Phys. 90, 1007 (1989)
            He : Obtained from the ccRepo (grant-hill.group.shef.ac.uk/ccrepo) Feb. 2017
                 D. E. Woon, T. H. Dunning, Jr., J. Chem. Phys. 100, 2975 (1994)
  Li-Be, Na-Mg : Obtained from the ccRepo (grant-hill.group.shef.ac.uk/ccrepo) Feb. 2017
                 B. P. Prascher, D. E. Woon, K. A. Peterson, T. H. Dunning, Jr., A. K. Wilson, Theor. Chem. Acc. 128, 69 (2011)
         Al-Ar : Obtained from the ccRepo (grant-hill.group.shef.ac.uk/ccrepo) Feb. 2017
                 D. E. Woon, T. H. Dunning, Jr., J. Chem. Phys. 98, 1358 (1993)
            Ca : Obtained from the Peterson Research Group Website (tyr0.chem.wsu.edu/~kipeters) Feb. 2017
                 J. Koput, K. A. Peterson, J. Phys. Chem. 106, 9595 (2002)
         Sc-Zn : Obtained from the ccRepo (grant-hill.group.shef.ac.uk/ccrepo) Feb. 2017
                 N. B. Balabanov, K. A. Peterson, J. Chem. Phys. 123, 064107 (2005)
                 N. B. Balabanov, K. A. Peterson, J. Chem. Phys. 125, 074110 (2006)
         Ga-Kr : Obtained from the ccRepo (grant-hill.group.shef.ac.uk/ccrepo) Feb. 2017
                 A. K. Wilson, D. E. Woon, K. A. Peterson, T. H. Dunning, Jr., J. Chem. Phys. 110, 7667 (1999)

----- AuxJ basis set information -----
Your calculation utilizes the auxiliary basis: def2/J
   F. Weigend, Phys. Chem. Chem. Phys. 8, 1057 (2006).

================================================================================
                                        WARNINGS
                       Please study these warnings very carefully!
================================================================================

WARNING: Old DensityContainer found on disk!
         Will remove this file - 
         If you want to keep old densities, please start your calculation with a different basename. 


WARNING: your system is open-shell and RHF/RKS was chosen
  ===> : WILL SWITCH to UHF/UKS


WARNING: Geometry Optimization
  ===> : Switching off AutoStart
         For restart on a previous wavefunction, please use MOREAD

INFO   : the flag for use of the SHARK integral package has been found!

================================================================================
                                       INPUT FILE
================================================================================
NAME = opt.inp
|  1> ! B3LYP cc-pVDZ OPT
|  2> %pal nprocs 16 end
|  3> *XYZFile 0 2 model.xyz
|  4> 
|  5>                          ****END OF INPUT****
================================================================================

                       *****************************
                       * Geometry Optimization Run *
                       *****************************

Geometry optimization settings:
Update method            Update   .... BFGS
Choice of coordinates    CoordSys .... Z-matrix Internals
Initial Hessian          InHess   .... Almoef's Model

Convergence Tolerances:
Energy Change            TolE     ....  5.0000e-06 Eh
Max. Gradient            TolMAXG  ....  3.0000e-04 Eh/bohr
RMS Gradient             TolRMSG  ....  1.0000e-04 Eh/bohr
Max. Displacement        TolMAXD  ....  4.0000e-03 bohr
RMS Displacement         TolRMSD  ....  2.0000e-03 bohr
Strict Convergence                ....  False
------------------------------------------------------------------------------
                        ORCA OPTIMIZATION COORDINATE SETUP
------------------------------------------------------------------------------

The optimization will be done in new redundant internal coordinates
Making redundant internal coordinates   ...  (new redundants) done
Evaluating the initial hessian          ...  (Almloef) done
Evaluating the coordinates              ...  done
Calculating the B-matrix                .... done
Calculating the G-matrix                .... done
Diagonalizing the G-matrix              .... done
Small eigenvalue found = 7.064e-04
Small eigenvalue found = 2.007e-03
Small eigenvalue found = 7.548e-03
Small eigenvalue found = 1.017e-02
Small eigenvalue found = 1.947e-02
Small eigenvalue found = 2.312e-02
Small eigenvalue found = 2.392e-02
Small eigenvalue found = 2.916e-02
Small eigenvalue found = 2.951e-02
The first mode is                       ....  113
The number of degrees of freedom        ....  135

    -----------------------------------------------------------------
                    Redundant Internal Coordinates


    -----------------------------------------------------------------
         Definition                    Initial Value    Approx d2E/dq
    -----------------------------------------------------------------
      1. B(C   2,C   1)                  1.3867         0.632439   
      2. B(C   3,C   2)                  1.4043         0.592833   
      3. B(C   4,C   0)                  1.4298         0.539814   
      4. B(C   4,C   3)                  1.4138         0.572450   
      5. B(C   5,C   4)                  1.4212         0.557054   
      6. B(C   6,C   1)                  1.3769         0.655511   
      7. B(C   6,C   5)                  1.4090         0.582714   
      8. B(H   7,C   3)                  1.0914         0.358256   
      9. B(H   8,C   6)                  1.0912         0.358455   
     10. B(C   9,C   2)                  1.5194         0.388403   
     11. B(H  10,C   9)                  1.1058         0.339742   
     12. B(H  11,C   9)                  1.1059         0.339712   
     13. B(C  12,C   9)                  1.5307         0.372606   
     14. B(H  13,C  12)                  1.1061         0.339427   
     15. B(H  14,C  12)                  1.1061         0.339423   
     16. B(C  15,C  12)                  1.5329         0.369602   
     17. B(H  16,C  15)                  1.1063         0.339125   
     18. B(H  17,C  15)                  1.1063         0.339131   
     19. B(C  18,C  15)                  1.5303         0.373097   
     20. B(H  19,C  18)                  1.1040         0.342103   
     21. B(H  20,C  18)                  1.1040         0.342097   
     22. B(C  21,C   5)                  1.5166         0.392418   
     23. B(H  22,C  21)                  1.1062         0.339328   
     24. B(H  23,C  21)                  1.1062         0.339311   
     25. B(C  24,C  21)                  1.5307         0.372598   
     26. B(H  25,C  24)                  1.1062         0.339311   
     27. B(H  26,C  24)                  1.1062         0.339310   
     28. B(C  27,C  24)                  1.5331         0.369335   
     29. B(H  28,C  27)                  1.1063         0.339187   
     30. B(H  29,C  27)                  1.1063         0.339185   
     31. B(C  30,C  27)                  1.5303         0.373224   
     32. B(H  31,C  30)                  1.1040         0.342066   
     33. B(H  32,C  30)                  1.1040         0.342072   
     34. B(C  33,C   0)                  1.2220         1.158013   
     35. B(H  34,C  18)                  1.1020         0.344612   
     36. B(H  35,C  30)                  1.1020         0.344620   
     37. B(C  36,C  33)                  1.4286         0.542239   
     38. B(C  37,C  36)                  1.4120         0.576327   
     39. B(C  38,C  37)                  1.3945         0.614459   
     40. B(C  39,C  38)                  1.3994         0.603567   
     41. B(C  40,C  39)                  1.3995         0.603392   
     42. B(C  41,C  40)                  1.3945         0.614600   
     43. B(C  41,C  36)                  1.4120         0.576193   
     44. B(H  42,C  39)                  1.0928         0.356363   
     45. B(H  43,C  40)                  1.0927         0.356502   
     46. B(H  44,C  37)                  1.0916         0.357944   
     47. B(H  45,C  41)                  1.0918         0.357749   
     48. B(H  46,C  38)                  1.0928         0.356395   
     49. L(C   4,C   0,C  33,C   3, 1) 179.5647         0.474211   
     50. L(C   4,C   0,C  33,C   3, 2) 179.7981         0.474211   
     51. A(C   2,C   1,C   6)          127.3881         0.440018   
     52. A(C   1,C   2,C   3)          113.8193         0.432123   
     53. A(C   3,C   2,C   9)          124.3483         0.396275   
     54. A(C   1,C   2,C   9)          121.8324         0.400805   
     55. A(C   2,C   3,C   4)          122.1094         0.424470   
     56. A(C   4,C   3,H   7)          117.8420         0.347884   
     57. A(C   2,C   3,H   7)          120.0486         0.349943   
     58. A(C   0,C   4,C   5)          120.3673         0.415411   
     59. A(C   0,C   4,C   3)          118.6720         0.417432   
     60. A(C   3,C   4,C   5)          120.9607         0.419777   
     61. A(C   4,C   5,C   6)          117.3612         0.421110   
     62. A(C   4,C   5,C  21)          120.0182         0.392682   
     63. A(C   6,C   5,C  21)          122.6206         0.395793   
     64. A(C   5,C   6,H   8)          120.5538         0.348960   
     65. A(C   1,C   6,H   8)          121.0848         0.355980   
     66. A(C   1,C   6,C   5)          118.3614         0.433572   
     67. A(H  10,C   9,C  12)          109.2612         0.321103   
     68. A(H  11,C   9,C  12)          109.2488         0.321099   
     69. A(C   2,C   9,C  12)          116.4213         0.365617   
     70. A(C   2,C   9,H  10)          108.0879         0.323295   
     71. A(C   2,C   9,H  11)          108.0844         0.323290   
     72. A(H  10,C   9,H  11)          105.1447         0.285588   
     73. A(H  14,C  12,C  15)          109.0905         0.320629   
     74. A(H  13,C  12,C  15)          109.1021         0.320630   
     75. A(C   9,C  12,C  15)          112.7539         0.362528   
     76. A(H  13,C  12,H  14)          106.2060         0.285509   
     77. A(C   9,C  12,H  14)          109.7366         0.321054   
     78. A(C   9,C  12,H  13)          109.7367         0.321054   
     79. A(C  12,C  15,C  18)          113.1557         0.362609   
     80. A(H  16,C  15,H  17)          105.8864         0.285431   
     81. A(C  12,C  15,H  17)          109.2250         0.320584   
     82. A(C  12,C  15,H  16)          109.2277         0.320583   
     83. A(H  16,C  15,C  18)          109.5435         0.321077   
     84. A(H  17,C  15,C  18)          109.5438         0.321078   
     85. A(H  19,C  18,H  34)          107.5907         0.286535   
     86. A(C  15,C  18,H  34)          111.4886         0.321921   
     87. A(H  20,C  18,H  34)          107.5886         0.286534   
     88. A(H  19,C  18,H  20)          107.3614         0.286208   
     89. A(C  15,C  18,H  20)          111.3014         0.321536   
     90. A(C  15,C  18,H  19)          111.3025         0.321537   
     91. A(H  23,C  21,C  24)          109.2312         0.321035   
     92. A(H  22,C  21,C  24)          109.2360         0.321038   
     93. A(C   5,C  21,C  24)          116.7943         0.366260   
     94. A(H  22,C  21,H  23)          104.6015         0.285481   
     95. A(C   5,C  21,H  23)          108.1421         0.323773   
     96. A(C   5,C  21,H  22)          108.1437         0.323776   
     97. A(H  26,C  24,C  27)          109.0170         0.320574   
     98. A(H  25,C  24,C  27)          109.0087         0.320574   
     99. A(C  21,C  24,C  27)          112.6642         0.362482   
    100. A(H  25,C  24,H  26)          106.2553         0.285479   
    101. A(C  21,C  24,H  26)          109.8435         0.321035   
    102. A(C  21,C  24,H  25)          109.8432         0.321035   
    103. A(H  29,C  27,C  30)          109.5576         0.321104   
    104. A(H  28,C  27,C  30)          109.5576         0.321104   
    105. A(C  24,C  27,C  30)          113.1731         0.362585   
    106. A(H  28,C  27,H  29)          105.8864         0.285446   
    107. A(C  24,C  27,H  29)          109.2033         0.320554   
    108. A(C  24,C  27,H  28)          109.2028         0.320555   
    109. A(H  31,C  30,H  32)          107.3583         0.286200   
    110. A(C  27,C  30,H  32)          111.3068         0.321550   
    111. A(C  27,C  30,H  31)          111.3062         0.321549   
    112. A(H  32,C  30,H  35)          107.5789         0.286532   
    113. A(H  31,C  30,H  35)          107.5778         0.286532   
    114. A(C  27,C  30,H  35)          111.5036         0.321941   
    115. L(C   0,C  33,C  36,C  37, 2) 180.1731         0.474602   
    116. L(C   0,C  33,C  36,C  37, 1) 179.8873         0.474602   
    117. A(C  37,C  36,C  41)          118.7094         0.422825   
    118. A(C  33,C  36,C  41)          120.6529         0.418250   
    119. A(C  33,C  36,C  37)          120.6377         0.418268   
    120. A(C  38,C  37,H  44)          120.4735         0.352016   
    121. A(C  36,C  37,H  44)          119.1034         0.348229   
    122. A(C  36,C  37,C  38)          120.4231         0.427719   
    123. A(C  39,C  38,H  46)          120.0151         0.350696   
    124. A(C  37,C  38,H  46)          119.5951         0.351758   
    125. A(C  37,C  38,C  39)          120.3898         0.431278   
    126. A(C  40,C  39,H  42)          120.1868         0.350674   
    127. A(C  38,C  39,H  42)          120.1478         0.350691   
    128. A(C  38,C  39,C  40)          119.6655         0.429873   
    129. A(C  41,C  40,H  43)          119.5933         0.351789   
    130. A(C  39,C  40,H  43)          120.0594         0.350697   
    131. A(C  39,C  40,C  41)          120.3473         0.431274   
    132. A(C  40,C  41,H  45)          120.4495         0.351997   
    133. A(C  36,C  41,H  45)          119.0856         0.348183   
    134. A(C  36,C  41,C  40)          120.4649         0.427719   
    135. D(C   9,C   2,C   1,C   6)    179.9750         0.025156   
    136. D(C   3,C   2,C   1,C   6)     -0.0087         0.025156   
    137. D(C   4,C   3,C   2,C   9)   -179.9795         0.024198   
    138. D(H   7,C   3,C   2,C   9)      0.0216         0.024198   
    139. D(C   4,C   3,C   2,C   1)      0.0037         0.024198   
    140. D(H   7,C   3,C   2,C   1)   -179.9952         0.024198   
    141. D(C   5,C   4,C   3,C   2)      0.0063         0.022488   
    142. D(C   0,C   4,C   3,H   7)      0.0099         0.022488   
    143. D(C   5,C   4,C   3,H   7)   -179.9948         0.022488   
    144. D(C   0,C   4,C   3,C   2)   -179.9890         0.022488   
    145. D(C  21,C   5,C   4,C   3)   -179.9973         0.021247   
    146. D(C   6,C   5,C   4,C   0)    179.9833         0.021247   
    147. D(C   6,C   5,C   4,C   3)     -0.0120         0.021247   
    148. D(C  21,C   5,C   4,C   0)     -0.0021         0.021247   
    149. D(C   5,C   6,C   1,C   2)      0.0031         0.027146   
    150. D(H   8,C   6,C   1,C   2)   -179.9980         0.027146   
    151. D(H   8,C   6,C   5,C  21)     -0.0065         0.023339   
    152. D(C   1,C   6,C   5,C  21)    179.9925         0.023339   
    153. D(C   1,C   6,C   5,C   4)      0.0075         0.023339   
    154. D(H   8,C   6,C   5,C   4)   -179.9915         0.023339   
    155. D(C  12,C   9,C   2,C   3)     -0.1636         0.011228   
    156. D(H  11,C   9,C   2,C   3)    123.1695         0.011228   
    157. D(C  12,C   9,C   2,C   1)    179.8545         0.011228   
    158. D(H  11,C   9,C   2,C   1)    -56.8124         0.011228   
    159. D(H  10,C   9,C   2,C   3)   -123.5158         0.011228   
    160. D(H  10,C   9,C   2,C   1)     56.5022         0.011228   
    161. D(H  14,C  12,C   9,C   2)     58.2385         0.011089   
    162. D(H  13,C  12,C   9,H  11)    179.1681         0.011089   
    163. D(H  13,C  12,C   9,C   2)    -58.1039         0.011089   
    164. D(H  14,C  12,C   9,H  10)   -179.0187         0.011089   
    165. D(H  13,C  12,C   9,H  10)     64.6389         0.011089   
    166. D(C  15,C  12,C   9,H  10)    -57.1974         0.011089   
    167. D(C  15,C  12,C   9,H  11)     57.3318         0.011089   
    168. D(H  14,C  12,C   9,H  11)    -64.4895         0.011089   
    169. D(C  15,C  12,C   9,C   2)   -179.9402         0.011089   
    170. D(C  18,C  15,C  12,H  14)    -57.7633         0.010922   
    171. D(C  18,C  15,C  12,C   9)   -179.9490         0.010922   
    172. D(H  17,C  15,C  12,H  14)    179.9286         0.010922   
    173. D(H  17,C  15,C  12,H  13)    -64.4512         0.010922   
    174. D(H  17,C  15,C  12,C   9)     57.7429         0.010922   
    175. D(H  16,C  15,C  12,H  13)   -179.8333         0.010922   
    176. D(H  16,C  15,C  12,H  14)     64.5464         0.010922   
    177. D(H  16,C  15,C  12,C   9)    -57.6393         0.010922   
    178. D(C  18,C  15,C  12,H  13)     57.8570         0.010922   
    179. D(H  34,C  18,C  15,H  17)    -57.8513         0.011117   
    180. D(H  34,C  18,C  15,H  16)     57.8851         0.011117   
    181. D(H  34,C  18,C  15,C  12)   -179.9815         0.011117   
    182. D(H  20,C  18,C  15,H  17)     62.2855         0.011117   
    183. D(H  20,C  18,C  15,H  16)    178.0219         0.011117   
    184. D(H  20,C  18,C  15,C  12)    -59.8446         0.011117   
    185. D(H  19,C  18,C  15,H  17)   -177.9916         0.011117   
    186. D(H  19,C  18,C  15,H  16)    -62.2552         0.011117   
    187. D(H  19,C  18,C  15,C  12)     59.8783         0.011117   
    188. D(C  24,C  21,C   5,C   4)   -179.9465         0.011449   
    189. D(H  23,C  21,C   5,C   6)   -123.5576         0.011449   
    190. D(H  23,C  21,C   5,C   4)     56.4270         0.011449   
    191. D(H  22,C  21,C   5,C   6)    123.7032         0.011449   
    192. D(C  24,C  21,C   5,C   6)      0.0689         0.011449   
    193. D(H  22,C  21,C   5,C   4)    -56.3122         0.011449   
    194. D(H  26,C  24,C  21,C   5)     58.2307         0.011089   
    195. D(H  25,C  24,C  21,H  23)     64.7715         0.011089   
    196. D(H  25,C  24,C  21,H  22)    178.6318         0.011089   
    197. D(H  25,C  24,C  21,C   5)    -58.2953         0.011089   
    198. D(C  27,C  24,C  21,H  23)    -56.9601         0.011089   
    199. D(C  27,C  24,C  21,H  22)     56.9002         0.011089   
    200. D(C  27,C  24,C  21,C   5)    179.9731         0.011089   
    201. D(H  26,C  24,C  21,H  23)   -178.7026         0.011089   
    202. D(H  26,C  24,C  21,H  22)    -64.8422         0.011089   
    203. D(C  30,C  27,C  24,H  26)    -57.8121         0.010907   
    204. D(C  30,C  27,C  24,H  25)     57.7753         0.010907   
    205. D(C  30,C  27,C  24,C  21)    179.9785         0.010907   
    206. D(H  29,C  27,C  24,H  26)    179.8659         0.010907   
    207. D(H  29,C  27,C  24,H  25)    -64.5467         0.010907   
    208. D(H  29,C  27,C  24,C  21)     57.6565         0.010907   
    209. D(H  28,C  27,C  24,H  26)     64.5096         0.010907   
    210. D(H  28,C  27,C  24,H  25)   -179.9030         0.010907   
    211. D(H  28,C  27,C  24,C  21)    -57.6999         0.010907   
    212. D(H  35,C  30,C  27,H  29)    -57.8894         0.011124   
    213. D(H  35,C  30,C  27,H  28)     57.8628         0.011124   
    214. D(H  35,C  30,C  27,C  24)    179.9863         0.011124   
    215. D(H  32,C  30,C  27,H  29)     62.2490         0.011124   
    216. D(H  32,C  30,C  27,H  28)    178.0012         0.011124   
    217. D(H  32,C  30,C  27,C  24)    -59.8753         0.011124   
    218. D(H  31,C  30,C  27,H  29)   -178.0260         0.011124   
    219. D(H  31,C  30,C  27,H  28)    -62.2738         0.011124   
    220. D(H  31,C  30,C  27,C  24)     59.8497         0.011124   
    221. D(C  41,C  36,C   4,C   5)      0.4738         0.001500   
    222. D(C  41,C  36,C   4,C   3)   -179.5736         0.001500   
    223. D(C  37,C  36,C   4,C   5)   -179.5477         0.001500   
    224. D(C  37,C  36,C   4,C   3)      0.4049         0.001500   
    225. D(H  44,C  37,C  36,C  41)   -179.9863         0.022807   
    226. D(H  44,C  37,C  36,C  33)      0.0111         0.022807   
    227. D(C  38,C  37,C  36,C  41)      0.0044         0.022807   
    228. D(C  38,C  37,C  36,C  33)   -179.9982         0.022807   
    229. D(H  46,C  38,C  37,H  44)     -0.0035         0.026098   
    230. D(H  46,C  38,C  37,C  36)   -179.9941         0.026098   
    231. D(C  39,C  38,C  37,H  44)    179.9889         0.026098   
    232. D(C  39,C  38,C  37,C  36)     -0.0017         0.026098   
    233. D(H  42,C  39,C  38,H  46)     -0.0102         0.025130   
    234. D(H  42,C  39,C  38,C  37)    179.9974         0.025130   
    235. D(C  40,C  39,C  38,H  46)    179.9918         0.025130   
    236. D(C  40,C  39,C  38,C  37)     -0.0006         0.025130   
    237. D(H  43,C  40,C  39,H  42)     -0.0047         0.025114   
    238. D(H  43,C  40,C  39,C  38)    179.9932         0.025114   
    239. D(C  41,C  40,C  39,H  42)   -179.9980         0.025114   
    240. D(C  41,C  40,C  39,C  38)     -0.0000         0.025114   
    241. D(H  45,C  41,C  40,H  43)     -0.0034         0.026111   
    242. D(H  45,C  41,C  40,C  39)    179.9899         0.026111   
    243. D(C  36,C  41,C  40,H  43)   -179.9904         0.026111   
    244. D(C  36,C  41,C  40,C  39)      0.0028         0.026111   
    245. D(H  45,C  41,C  36,C  37)   -179.9922         0.022796   
    246. D(H  45,C  41,C  36,C  33)      0.0104         0.022796   
    247. D(C  40,C  41,C  36,C  37)     -0.0050         0.022796   
    248. D(C  40,C  41,C  36,C  33)    179.9976         0.022796   
    -----------------------------------------------------------------

Number of atoms                         .... 47
Number of degrees of freedom            .... 248

         *************************************************************
         *                GEOMETRY OPTIMIZATION CYCLE   1            *
         *************************************************************
---------------------------------
CARTESIAN COORDINATES (ANGSTROEM)
---------------------------------
  C      2.832495   -0.007742   -0.008203
  C     -1.313496   -0.015243   -0.012952
  C     -0.703660   -1.260638   -0.014095
  C      0.699532   -1.205006   -0.012351
  C      1.402995    0.021377   -0.009605
  C      0.709620    1.262002   -0.008351
  C     -0.698634    1.216785   -0.010214
  H      1.283029   -2.127328   -0.013121
  H     -1.283240    2.138226   -0.009511
  C     -1.510570   -2.548069   -0.016610
  H     -2.183676   -2.529680   -0.893808
  H     -2.181268   -2.534553    0.862548
  C     -0.710758   -3.853190   -0.021139
  H     -0.047631   -3.881827   -0.905948
  H     -0.047237   -3.887724    0.863167
  C     -1.606257   -5.097329   -0.024905
  H     -2.272610   -5.069285    0.857800
  H     -2.271877   -5.064406   -0.907987
  C     -0.815804   -6.407725   -0.028194
  H     -0.167026   -6.486981    0.861482
  H     -0.165889   -6.481808   -0.917493
  C      1.485762    2.564955   -0.005463
  H      2.162047    2.561113    0.869891
  H      2.162368    2.564774   -0.880595
  C      0.665015    3.857026   -0.002985
  H      0.002318    3.882610   -0.888325
  H      0.001043    3.878413    0.881512
  C      1.542426    5.114228    0.000497
  H      2.207900    5.091068    0.883943
  H      2.209582    5.094798   -0.881772
  C      0.733429    6.413152    0.002470
  H      0.082016    6.478663    0.891376
  H      0.084036    6.482634   -0.887605
  C      4.054054   -0.041904   -0.009233
  H     -1.485303   -7.282994   -0.031190
  H      1.390151    7.298040    0.005203
  C      5.481991   -0.084666   -0.008330
  C      6.164867   -1.320486   -0.019193
  C      7.558930   -1.357009   -0.018226
  C      8.298226   -0.168879   -0.006507
  C      7.631642    1.061616    0.004275
  C      6.237932    1.107930    0.003386
  H      9.390560   -0.202115   -0.005749
  H      8.202532    1.993316    0.013569
  H      5.586813   -2.246463   -0.028510
  H      5.716198    2.066945    0.011954
  H      8.073572   -2.321019   -0.026815

----------------------------
CARTESIAN COORDINATES (A.U.)
----------------------------
  NO LB      ZA    FRAG     MASS         X           Y           Z
   0 C     6.0000    0    12.011    5.352641   -0.014630   -0.015501
   1 C     6.0000    0    12.011   -2.482148   -0.028805   -0.024476
   2 C     6.0000    0    12.011   -1.329724   -2.382260   -0.026636
   3 C     6.0000    0    12.011    1.321923   -2.277132   -0.023340
   4 C     6.0000    0    12.011    2.651276    0.040396   -0.018150
   5 C     6.0000    0    12.011    1.340988    2.384839   -0.015782
   6 C     6.0000    0    12.011   -1.320227    2.299390   -0.019302
   7 H     1.0000    0     1.008    2.424574   -4.020068   -0.024795
   8 H     1.0000    0     1.008   -2.424972    4.040662   -0.017974
   9 C     6.0000    0    12.011   -2.854564   -4.815152   -0.031389
  10 H     1.0000    0     1.008   -4.126550   -4.780402   -1.689052
  11 H     1.0000    0     1.008   -4.121999   -4.789611    1.629979
  12 C     6.0000    0    12.011   -1.343138   -7.281475   -0.039948
  13 H     1.0000    0     1.008   -0.090009   -7.335590   -1.711993
  14 H     1.0000    0     1.008   -0.089265   -7.346734    1.631149
  15 C     6.0000    0    12.011   -3.035386   -9.632555   -0.047063
  16 H     1.0000    0     1.008   -4.294610   -9.579561    1.621007
  17 H     1.0000    0     1.008   -4.293225   -9.570340   -1.715847
  18 C     6.0000    0    12.011   -1.541647  -12.108846   -0.053279
  19 H     1.0000    0     1.008   -0.315633  -12.258617    1.627964
  20 H     1.0000    0     1.008   -0.313485  -12.248841   -1.733811
  21 C     6.0000    0    12.011    2.807684    4.847062   -0.010324
  22 H     1.0000    0     1.008    4.085676    4.839803    1.643855
  23 H     1.0000    0     1.008    4.086283    4.846720   -1.664083
  24 C     6.0000    0    12.011    1.256697    7.288723   -0.005641
  25 H     1.0000    0     1.008    0.004381    7.337070   -1.678691
  26 H     1.0000    0     1.008    0.001972    7.329139    1.665816
  27 C     6.0000    0    12.011    2.914762    9.664490    0.000939
  28 H     1.0000    0     1.008    4.172327    9.620724    1.670411
  29 H     1.0000    0     1.008    4.175505    9.627773   -1.666307
  30 C     6.0000    0    12.011    1.385980   12.119101    0.004668
  31 H     1.0000    0     1.008    0.154987   12.242900    1.684456
  32 H     1.0000    0     1.008    0.158805   12.250403   -1.677330
  33 C     6.0000    0    12.011    7.661052   -0.079187   -0.017447
  34 H     1.0000    0     1.008   -2.806815  -13.762864   -0.058941
  35 H     1.0000    0     1.008    2.627005   13.791297    0.009832
  36 C     6.0000    0    12.011   10.359462   -0.159995   -0.015741
  37 C     6.0000    0    12.011   11.649911   -2.495358   -0.036270
  38 C     6.0000    0    12.011   14.284308   -2.564375   -0.034442
  39 C     6.0000    0    12.011   15.681375   -0.319136   -0.012297
  40 C     6.0000    0    12.011   14.421713    2.006163    0.008079
  41 C     6.0000    0    12.011   11.787984    2.093685    0.006399
  42 H     1.0000    0     1.008   17.745586   -0.381943   -0.010863
  43 H     1.0000    0     1.008   15.500538    3.766820    0.025641
  44 H     1.0000    0     1.008   10.557547   -4.245199   -0.053876
  45 H     1.0000    0     1.008   10.802048    3.905960    0.022589
  46 H     1.0000    0     1.008   15.256839   -4.386090   -0.050673

--------------------------------
INTERNAL COORDINATES (ANGSTROEM)
--------------------------------
 C      0   0   0     0.000000000000     0.00000000     0.00000000
 C      1   0   0     4.146001233438     0.00000000     0.00000000
 C      2   1   0     1.386690454425    64.01399295     0.00000000
 C      3   2   1     1.404294750608   113.81928305     0.00000000
 C      4   3   2     1.413818789590   122.10938442     0.00000000
 C      5   4   3     1.421239708376   120.96066499     0.00000000
 C      2   1   3     1.376936874778    63.37406627   179.98997187
 H      4   3   2     1.091397249535   120.04860543   180.00483114
 H      7   2   1     1.091246547019   121.08482456   179.99067740
 C      3   2   1     1.519404076391   121.83243747   179.98628211
 H     10   3   2     1.105841694240   108.08793272    56.50224760
 H     10   3   2     1.105865159070   108.08442181   303.18761702
 C     10   3   2     1.530706604800   116.42127433   179.85452722
 H     13  10   3     1.106093855348   109.73670587   301.89609277
 H     13  10   3     1.106097151103   109.73660232    58.23850732
 C     13  10   3     1.532910053715   112.75385330   180.05983830
 H     16  13  10     1.106335774878   109.22773717   302.36074138
 H     16  13  10     1.106331003541   109.22502040    57.74291801
 C     16  13  10     1.530348078858   113.15573783   180.05104473
 H     19  16  13     1.103955821718   111.30250352    59.87826956
 H     19  16  13     1.103961366883   111.30136426   300.15535365
 C      6   5   4     1.516604495224   120.01820766   180.00265536
 H     22   6   5     1.106173471983   108.14371795   303.68778677
 H     22   6   5     1.106187060196   108.14214243    56.42697582
 C     22   6   5     1.530712320220   116.79426081   180.05350538
 H     25  22   6     1.106186630191   109.84317340   301.70467817
 H     25  22   6     1.106187531144   109.84349704    58.23066522
 C     25  22   6     1.533107341951   112.66422527   179.97310556
 H     28  25  22     1.106286652042   109.20275888   302.30009356
 H     28  25  22     1.106288376027   109.20332626    57.65649263
 C     28  25  22     1.530255958365   113.17314185   179.97847456
 H     31  28  25     1.103985786365   111.30617949    59.84973873
 H     31  28  25     1.103980496361   111.30676008   300.12472886
 C      1   2   3     1.222036692016   178.29062757     3.73595404
 H     19  16  13     1.101967339261   111.48855565   180.01852262
 H     31  28  25     1.101960910017   111.50355576   179.98631807
 C     34   1   5     1.428577356463   179.85860456   309.81036210
 C     37  34   1     1.411981039467   120.63765478    37.22097268
 C     38  37  34     1.394541389726   120.42305499   180.00180766
 C     39  38  37     1.399409975806   120.38980327     0.00000000
 C     40  39  38     1.399488795449   119.66548791     0.00000000
 C     41  40  39     1.394478939095   120.34729929     0.00000000
 H     40  39  38     1.092839305736   120.14775372   179.99738059
 H     41  40  39     1.092733439715   120.05935753   179.99319276
 H     38  37  34     1.091634312105   119.10343144     0.00000000
 H     42  41  40     1.091783019610   120.44951201   179.98988790
 H     39  38  37     1.092814872241   119.59510726   180.00590861

---------------------------
INTERNAL COORDINATES (A.U.)
---------------------------
 C      0   0   0     0.000000000000     0.00000000     0.00000000
 C      1   0   0     7.834806882097     0.00000000     0.00000000
 C      2   1   0     2.620465191387    64.01399295     0.00000000
 C      3   2   1     2.653732489953   113.81928305     0.00000000
 C      4   3   2     2.671730315317   122.10938442     0.00000000
 C      5   4   3     2.685753819485   120.96066499     0.00000000
 C      2   1   3     2.602033597028    63.37406627   179.98997187
 H      4   3   2     2.062441904937   120.04860543   180.00483114
 H      7   2   1     2.062157118452   121.08482456   179.99067740
 C      3   2   1     2.871257591142   121.83243747   179.98628211
 H     10   3   2     2.089737949584   108.08793272    56.50224760
 H     10   3   2     2.089782291687   108.08442181   303.18761702
 C     10   3   2     2.892616274456   116.42127433   179.85452722
 H     13  10   3     2.090214465021   109.73670587   301.89609277
 H     13  10   3     2.090220693094   109.73660232    58.23850732
 C     13  10   3     2.896780189456   112.75385330   180.05983830
 H     16  13  10     2.090671626678   109.22773717   302.36074138
 H     16  13  10     2.090662610158   109.22502040    57.74291801
 C     16  13  10     2.891938758615   113.15573783   180.05104473
 H     19  16  13     2.086174166996   111.30250352    59.87826956
 H     19  16  13     2.086184645838   111.30136426   300.15535365
 C      6   5   4     2.865967149448   120.01820766   180.00265536
 H     22   6   5     2.090364918658   108.14371795   303.68778677
 H     22   6   5     2.090390596657   108.14214243    56.42697582
 C     22   6   5     2.892627075035   116.79426081   180.05350538
 H     25  22   6     2.090389784066   109.84317340   301.70467817
 H     25  22   6     2.090391486621   109.84349704    58.23066522
 C     25  22   6     2.897153010191   112.66422527   179.97310556
 H     28  25  22     2.090578797972   109.20275888   302.30009356
 H     28  25  22     2.090582055832   109.20332626    57.65649263
 C     28  25  22     2.891764676112   113.17314185   179.97847456
 H     31  28  25     2.086230791972   111.30617949    59.84973873
 H     31  28  25     2.086220795312   111.30676008   300.12472886
 C      1   2   3     2.309314673513   178.29062757     3.73595404
 H     19  16  13     2.082416479730   111.48855565   180.01852262
 H     31  28  25     2.082404330219   111.50355576   179.98631807
 C     34   1   5     2.699619964837   179.85860456   309.81036210
 C     37  34   1     2.668257470883   120.63765478    37.22097268
 C     38  37  34     2.635301309000   120.42305499   180.00180766
 C     39  38  37     2.644501603351   120.38980327     0.00000000
 C     40  39  38     2.644650550889   119.66548791     0.00000000
 C     41  40  39     2.635183294411   120.34729929     0.00000000
 H     40  39  38     2.065166996226   120.14775372   179.99738059
 H     41  40  39     2.064966938439   120.05935753   179.99319276
 H     38  37  34     2.062889888271   119.10343144     0.00000000
 H     42  41  40     2.063170904729   120.44951201   179.98988790
 H     39  38  37     2.065120823612   119.59510726   180.00590861

---------------------
BASIS SET INFORMATION
---------------------
There are 2 groups of distinct atoms

 Group   1 Type C   : 17s4p1d contracted to 3s2p1d pattern {881/31/1}
 Group   2 Type H   : 4s1p contracted to 2s1p pattern {31/1}

Atom   0C    basis set group =>   1
Atom   1C    basis set group =>   1
Atom   2C    basis set group =>   1
Atom   3C    basis set group =>   1
Atom   4C    basis set group =>   1
Atom   5C    basis set group =>   1
Atom   6C    basis set group =>   1
Atom   7H    basis set group =>   2
Atom   8H    basis set group =>   2
Atom   9C    basis set group =>   1
Atom  10H    basis set group =>   2
Atom  11H    basis set group =>   2
Atom  12C    basis set group =>   1
Atom  13H    basis set group =>   2
Atom  14H    basis set group =>   2
Atom  15C    basis set group =>   1
Atom  16H    basis set group =>   2
Atom  17H    basis set group =>   2
Atom  18C    basis set group =>   1
Atom  19H    basis set group =>   2
Atom  20H    basis set group =>   2
Atom  21C    basis set group =>   1
Atom  22H    basis set group =>   2
Atom  23H    basis set group =>   2
Atom  24C    basis set group =>   1
Atom  25H    basis set group =>   2
Atom  26H    basis set group =>   2
Atom  27C    basis set group =>   1
Atom  28H    basis set group =>   2
Atom  29H    basis set group =>   2
Atom  30C    basis set group =>   1
Atom  31H    basis set group =>   2
Atom  32H    basis set group =>   2
Atom  33C    basis set group =>   1
Atom  34H    basis set group =>   2
Atom  35H    basis set group =>   2
Atom  36C    basis set group =>   1
Atom  37C    basis set group =>   1
Atom  38C    basis set group =>   1
Atom  39C    basis set group =>   1
Atom  40C    basis set group =>   1
Atom  41C    basis set group =>   1
Atom  42H    basis set group =>   2
Atom  43H    basis set group =>   2
Atom  44H    basis set group =>   2
Atom  45H    basis set group =>   2
Atom  46H    basis set group =>   2
---------------------------------
AUXILIARY/J BASIS SET INFORMATION
---------------------------------
There are 2 groups of distinct atoms

 Group   1 Type C   : 12s5p4d2f1g contracted to 6s4p3d1f1g pattern {711111/2111/211/2/1}
 Group   2 Type H   : 5s2p1d contracted to 3s1p1d pattern {311/2/1}

Atom   0C    basis set group =>   1
Atom   1C    basis set group =>   1
Atom   2C    basis set group =>   1
Atom   3C    basis set group =>   1
Atom   4C    basis set group =>   1
Atom   5C    basis set group =>   1
Atom   6C    basis set group =>   1
Atom   7H    basis set group =>   2
Atom   8H    basis set group =>   2
Atom   9C    basis set group =>   1
Atom  10H    basis set group =>   2
Atom  11H    basis set group =>   2
Atom  12C    basis set group =>   1
Atom  13H    basis set group =>   2
Atom  14H    basis set group =>   2
Atom  15C    basis set group =>   1
Atom  16H    basis set group =>   2
Atom  17H    basis set group =>   2
Atom  18C    basis set group =>   1
Atom  19H    basis set group =>   2
Atom  20H    basis set group =>   2
Atom  21C    basis set group =>   1
Atom  22H    basis set group =>   2
Atom  23H    basis set group =>   2
Atom  24C    basis set group =>   1
Atom  25H    basis set group =>   2
Atom  26H    basis set group =>   2
Atom  27C    basis set group =>   1
Atom  28H    basis set group =>   2
Atom  29H    basis set group =>   2
Atom  30C    basis set group =>   1
Atom  31H    basis set group =>   2
Atom  32H    basis set group =>   2
Atom  33C    basis set group =>   1
Atom  34H    basis set group =>   2
Atom  35H    basis set group =>   2
Atom  36C    basis set group =>   1
Atom  37C    basis set group =>   1
Atom  38C    basis set group =>   1
Atom  39C    basis set group =>   1
Atom  40C    basis set group =>   1
Atom  41C    basis set group =>   1
Atom  42H    basis set group =>   2
Atom  43H    basis set group =>   2
Atom  44H    basis set group =>   2
Atom  45H    basis set group =>   2
Atom  46H    basis set group =>   2


           ************************************************************
           *        Program running with 16 parallel MPI-processes    *
           *              working on a common directory               *
           ************************************************************
------------------------------------------------------------------------------
                           ORCA GTO INTEGRAL CALCULATION
                           -- RI-GTO INTEGRALS CHOSEN --
------------------------------------------------------------------------------
------------------------------------------------------------------------------
                   ___                                                        
                  /   \      - P O W E R E D   B Y -                         
                 /     \                                                     
                 |  |  |   _    _      __       _____    __    __             
                 |  |  |  | |  | |    /  \     |  _  \  |  |  /  |          
                  \  \/   | |  | |   /    \    | | | |  |  | /  /          
                 / \  \   | |__| |  /  /\  \   | |_| |  |  |/  /          
                |  |  |   |  __  | /  /__\  \  |    /   |      \           
                |  |  |   | |  | | |   __   |  |    \   |  |\   \          
                \     /   | |  | | |  |  |  |  | |\  \  |  | \   \       
                 \___/    |_|  |_| |__|  |__|  |_| \__\ |__|  \__/        
                                                                              
                      - O R C A' S   B I G   F R I E N D -                    
                                      &                                       
                       - I N T E G R A L  F E E D E R -                       
                                                                              
 v1 FN, 2020, v2 2021                                                         
------------------------------------------------------------------------------


Reading SHARK input file opt.SHARKINP.tmp ... ok
----------------------
SHARK INTEGRAL PACKAGE
----------------------

Number of atoms                             ...     47
Number of basis functions                   ...    565
Number of shells                            ...    339
Maximum angular momentum                    ...      2
Integral batch strategy                     ... SHARK/LIBINT Hybrid
RI-J (if used) integral strategy            ... SPLIT-RIJ (Revised 2003 algorithm where possible)
Printlevel                                  ...      1
Contraction scheme used                     ... PARTIAL GENERAL contraction
Coulomb Range Separation                    ... NOT USED
Exchange Range Separation                   ... NOT USED
Finite Nucleus Model                        ... NOT USED
Auxiliary Coulomb fitting basis             ... AVAILABLE
   # of basis functions in Aux-J            ...   1353
   # of shells in Aux-J                     ...    455
   Maximum angular momentum in Aux-J        ...      4
Auxiliary J/K fitting basis                 ... NOT available
Auxiliary Correlation fitting basis         ... NOT available
Auxiliary 'external' fitting basis          ... NOT available
Integral threshold                          ...     2.500000e-11
Primitive cut-off                           ...     2.500000e-12
Primitive pair pre-selection threshold      ...     2.500000e-12

Calculating pre-screening integrals         ... done (  0.0 sec) Dimension = 339
Calculating pre-screening integrals (ORCA)  ... done (  0.1 sec) Dimension = 207
Organizing shell pair data                  ... done (  0.1 sec)
Shell pair information
Total number of shell pairs                 ...     57630
Shell pairs after pre-screening             ...     23706
Total number of primitive shell pairs       ...     94102
Primitive shell pairs kept                  ...     32484
          la=0 lb=0:  10393 shell pairs
          la=1 lb=0:   8342 shell pairs
          la=1 lb=1:   1482 shell pairs
          la=2 lb=0:   2479 shell pairs
          la=2 lb=1:    870 shell pairs
          la=2 lb=2:    140 shell pairs

Calculating one electron integrals          ... done (  0.0 sec)
Calculating RI/J V-Matrix + Cholesky decomp.... done (  0.2 sec)
Calculating Nuclear repulsion               ... done (  0.0 sec) ENN=   1524.533462490562 Eh

SHARK setup successfully completed in   0.8 seconds

Maximum memory used throughout the entire GTOINT-calculation: 34.3 MB


           ************************************************************
           *        Program running with 16 parallel MPI-processes    *
           *              working on a common directory               *
           ************************************************************
-------------------------------------------------------------------------------
                                 ORCA SCF
-------------------------------------------------------------------------------

------------
SCF SETTINGS
------------
Hamiltonian:
 Density Functional     Method          .... DFT(GTOs)
 Exchange Functional    Exchange        .... B88
   X-Alpha parameter    XAlpha          ....  0.666667
   Becke's b parameter  XBeta           ....  0.004200
 Correlation Functional Correlation     .... LYP
 LDA part of GGA corr.  LDAOpt          .... VWN-5
 Gradients option       PostSCFGGA      .... off
 Hybrid DFT is turned on
   Fraction HF Exchange ScalHFX         ....  0.200000
   Scaling of DF-GGA-X  ScalDFX         ....  0.720000
   Scaling of DF-GGA-C  ScalDFC         ....  0.810000
   Scaling of DF-LDA-C  ScalLDAC        ....  1.000000
   Perturbative correction              ....  0.000000
   Density functional embedding theory  .... OFF
   NL short-range parameter             ....  4.800000
 RI-approximation to the Coulomb term is turned on
   Number of AuxJ basis functions       .... 1353
   RIJ-COSX (HFX calculated with COS-X)).... on


General Settings:
 Integral files         IntName         .... opt
 Hartree-Fock type      HFTyp           .... UHF
 Total Charge           Charge          ....    0
 Multiplicity           Mult            ....    2
 Number of Electrons    NEL             ....  157
 Basis Dimension        Dim             ....  433
 Nuclear Repulsion      ENuc            ....   1524.5334624906 Eh

Convergence Acceleration:
 DIIS                   CNVDIIS         .... on
   Start iteration      DIISMaxIt       ....    12
   Startup error        DIISStart       ....  0.200000
   # of expansion vecs  DIISMaxEq       ....     5
   Bias factor          DIISBfac        ....   1.050
   Max. coefficient     DIISMaxC        ....  10.000
 Trust-Rad. Augm. Hess. CNVTRAH         .... auto
   Auto Start mean grad. ratio tolernc. ....  1.125000
   Auto Start start iteration           ....    20
   Auto Start num. interpolation iter.  ....    10
   Max. Number of Micro iterations      ....    16
   Max. Number of Macro iterations      .... Maxiter - #DIIS iter
   Number of Davidson start vectors     ....     2
   Converg. threshold I  (grad. norm)   ....   1.000e-05
   Converg. threshold II (energy diff.) ....   1.000e-08
   Grad. Scal. Fac. for Micro threshold ....   0.100
   Minimum threshold for Micro iter.    ....   0.010
   NR start threshold (gradient norm)   ....   0.001
   Initial trust radius                 ....   0.400
   Minimum AH scaling param. (alpha)    ....   1.000
   Maximum AH scaling param. (alpha)    .... 1000.000
   Orbital update algorithm             .... Taylor
   White noise on init. David. guess    .... on
   Maximum white noise                  ....   0.010
   Quad. conv. algorithm                .... NR
 SOSCF                  CNVSOSCF        .... off
 Level Shifting         CNVShift        .... on
   Level shift para.    LevelShift      ....    0.2500
   Turn off err/grad.   ShiftErr        ....    0.0010
 Zerner damping         CNVZerner       .... off
 Static damping         CNVDamp         .... on
   Fraction old density DampFac         ....    0.7000
   Max. Damping (<1)    DampMax         ....    0.9800
   Min. Damping (>=0)   DampMin         ....    0.0000
   Turn off err/grad.   DampErr         ....    0.1000
 Fernandez-Rico         CNVRico         .... off

SCF Procedure:
 Maximum # iterations   MaxIter         ....   125
 SCF integral mode      SCFMode         .... Direct
   Integral package                     .... SHARK and LIBINT hybrid scheme
 Reset frequency        DirectResetFreq ....    20
 Integral Threshold     Thresh          ....  2.500e-11 Eh
 Primitive CutOff       TCut            ....  2.500e-12 Eh

Convergence Tolerance:
 Convergence Check Mode ConvCheckMode   .... Total+1el-Energy
 Convergence forced     ConvForced      .... 0
 Energy Change          TolE            ....  1.000e-08 Eh
 1-El. energy change                    ....  1.000e-05 Eh
 DIIS Error             TolErr          ....  5.000e-07


Diagonalization of the overlap matrix:
Smallest eigenvalue                        ... 5.295e-05
Time for diagonalization                   ...    0.047 sec
Threshold for overlap eigenvalues          ... 1.000e-08
Number of eigenvalues below threshold      ... 0
Time for construction of square roots      ...    0.041 sec
Total time needed                          ...    0.089 sec

Time for model grid setup =    0.298 sec

------------------------------
INITIAL GUESS: MODEL POTENTIAL
------------------------------
Loading Hartree-Fock densities                     ... done
Calculating cut-offs                               ... done
Initializing the effective Hamiltonian             ... done
Setting up the integral package (SHARK)            ... done
Starting the Coulomb interaction                   ... done (   0.2 sec)
Reading the grid                                   ... done
Mapping shells                                     ... done
Starting the XC term evaluation                    ... done (   0.1 sec)
  promolecular density results
     # of electrons  =    156.996629672
     EX              =   -120.429728921
     EC              =     -5.156812809
     EX+EC           =   -125.586541731
Transforming the Hamiltonian                       ... done (   0.0 sec)
Diagonalizing the Hamiltonian                      ... done (   0.0 sec)
Back transforming the eigenvectors                 ... done (   0.0 sec)
Now organizing SCF variables                       ... done
                      ------------------
                      INITIAL GUESS DONE (   0.9 sec)
                      ------------------
-------------------
DFT GRID GENERATION
-------------------

General Integration Accuracy     IntAcc      ... 4.388
Radial Grid Type                 RadialGrid  ... OptM3 with GC (2021)
Angular Grid (max. ang.)         AngularGrid ... 4 (Lebedev-302)
Angular grid pruning method      GridPruning ... 4 (adaptive)
Weight generation scheme         WeightScheme... Becke
Basis function cutoff            BFCut       ... 1.0000e-11
Integration weight cutoff        WCut        ... 1.0000e-14
Angular grids for H and He will be reduced by one unit
Partially contracted basis set               ... off
Rotationally invariant grid construction     ... off

Total number of grid points                  ...   211215
Total number of batches                      ...     3326
Average number of points per batch           ...       63
Average number of grid points per atom       ...     4494
Time for grid setup =    1.287 sec

--------------------
COSX GRID GENERATION
--------------------

GRIDX 1
-------
General Integration Accuracy     IntAcc      ... 3.816
Radial Grid Type                 RadialGrid  ... OptM3 with GC (2021)
Angular Grid (max. ang.)         AngularGrid ... 1 (Lebedev-50)
Angular grid pruning method      GridPruning ... 4 (adaptive)
Weight generation scheme         WeightScheme... Becke
Basis function cutoff            BFCut       ... 1.0000e-11
Integration weight cutoff        WCut        ... 1.0000e-14
Angular grids for H and He will be reduced by one unit
Partially contracted basis set               ... on
Rotationally invariant grid construction     ... off

Total number of grid points                  ...    26938
Total number of batches                      ...      446
Average number of points per batch           ...       60
Average number of grid points per atom       ...      573
UseSFitting                                  ... on

GRIDX 2
-------
General Integration Accuracy     IntAcc      ... 4.020
Radial Grid Type                 RadialGrid  ... OptM3 with GC (2021)
Angular Grid (max. ang.)         AngularGrid ... 2 (Lebedev-110)
Angular grid pruning method      GridPruning ... 4 (adaptive)
Weight generation scheme         WeightScheme... Becke
Basis function cutoff            BFCut       ... 1.0000e-11
Integration weight cutoff        WCut        ... 1.0000e-14
Angular grids for H and He will be reduced by one unit
Partially contracted basis set               ... on
Rotationally invariant grid construction     ... off

Total number of grid points                  ...    57166
Total number of batches                      ...      916
Average number of points per batch           ...       62
Average number of grid points per atom       ...     1216
UseSFitting                                  ... on

GRIDX 3
-------
General Integration Accuracy     IntAcc      ... 4.338
Radial Grid Type                 RadialGrid  ... OptM3 with GC (2021)
Angular Grid (max. ang.)         AngularGrid ... 3 (Lebedev-194)
Angular grid pruning method      GridPruning ... 4 (adaptive)
Weight generation scheme         WeightScheme... Becke
Basis function cutoff            BFCut       ... 1.0000e-11
Integration weight cutoff        WCut        ... 1.0000e-14
Angular grids for H and He will be reduced by one unit
Partially contracted basis set               ... on
Rotationally invariant grid construction     ... off

Total number of grid points                  ...   125072
Total number of batches                      ...     1977
Average number of points per batch           ...       63
Average number of grid points per atom       ...     2661
UseSFitting                                  ... on

Time for X-Grid setup             =    2.185 sec

 re-compute Schwartz prescreening matrix in partically contracted basis (1) ...done (   0.118 sec)
--------------
SCF ITERATIONS
--------------
ITER       Energy         Delta-E        Max-DP      RMS-DP      [F,P]     Damp
               ***  Starting incremental Fock matrix formation  ***
  0   -852.2366398625   0.000000000000 0.06796223  0.00081844  0.0869695 0.7000
  1   -852.4658583233  -0.229218460781 0.05886052  0.00065578  0.0458044 0.7000
                               ***Turning on DIIS***
  2   -852.5677310327  -0.101872709361 0.12159542  0.00126307  0.0175177 0.0000
  3   -852.7115940311  -0.143862998370 0.02755549  0.00036356  0.0249197 0.0000
  4   -852.7494305842  -0.037836553119 0.01701483  0.00015465  0.0052653 0.0000
  5   -852.7516105377  -0.002179953542 0.00322883  0.00003828  0.0016983 0.0000
  6   -852.7518125008  -0.000201963087 0.00274900  0.00002761  0.0009761 0.0000
               *** Restarting incremental Fock matrix formation ***
                                   *** Resetting DIIS ***
  7   -852.7521124142  -0.000299913376 0.00147389  0.00001609  0.0006181 0.0000
  8   -852.7521125128  -0.000000098639 0.00045213  0.00000522  0.0012076 0.0000
  9   -852.7521277538  -0.000015241007 0.00069338  0.00000549  0.0003695 0.0000
 10   -852.7521330123  -0.000005258477 0.00077958  0.00000614  0.0002105 0.0000
 11   -852.7521363140  -0.000003301654 0.00043142  0.00000375  0.0002700 0.0000
 12   -852.7521376979  -0.000001383924 0.00023692  0.00000200  0.0000827 0.0000
 13   -852.7521379674  -0.000000269551 0.00010381  0.00000083  0.0000486 0.0000
 14   -852.7521380525  -0.000000085080 0.00004453  0.00000041  0.0000216 0.0000
 15   -852.7521380815  -0.000000028974 0.00002119  0.00000020  0.0000092 0.0000
 16   -852.7521380812   0.000000000317 0.00001613  0.00000016  0.0000090 0.0000
 17   -852.7521380861  -0.000000004896 0.00000795  0.00000008  0.0000063 0.0000
                 **** Energy Check signals convergence ****

               *****************************************************
               *                     SUCCESS                       *
               *           SCF CONVERGED AFTER  18 CYCLES          *
               *****************************************************

Old exchange energy                            =    -24.574363604 Eh
New exchange energy                            =    -24.574471290 Eh
Exchange energy change after final integration =     -0.000107686 Eh
Total energy after final integration           =   -852.752245778 Eh
Final COS-X integration done in                =     7.097 sec

----------------
TOTAL SCF ENERGY
----------------

Total Energy       :         -852.75224578 Eh          -23204.56831 eV

Components:
Nuclear Repulsion  :         1524.53346249 Eh           41484.66455 eV
Electronic Energy  :        -2377.28570827 Eh          -64689.23286 eV
One Electron Energy:        -4176.97613543 Eh         -113661.29907 eV
Two Electron Energy:         1799.69042716 Eh           48972.06621 eV
Max COSX asymmetry :            0.00000056 Eh               0.00002 eV

Virial components:
Potential Energy   :        -1699.51280220 Eh          -46246.09445 eV
Kinetic Energy     :          846.76055642 Eh           23041.52615 eV
Virial Ratio       :            2.00707601


DFT components:
N(Alpha)           :       79.000190951703 electrons
N(Beta)            :       78.000188580208 electrons
N(Total)           :      157.000379531910 electrons
E(X)               :      -97.443422604955 Eh       
E(C)               :       -6.088258614668 Eh       
E(XC)              :     -103.531681219623 Eh       
DFET-embed. en.    :        0.000000000000 Eh       

---------------
SCF CONVERGENCE
---------------

  Last Energy change         ...   -5.8299e-09  Tolerance :   1.0000e-08
  Last MAX-Density change    ...    0.0000e+00  Tolerance :   1.0000e-07
  Last RMS-Density change    ...    0.0000e+00  Tolerance :   5.0000e-09
  Last DIIS Error            ...    3.5573e-06  Tolerance :   5.0000e-07

             **** THE GBW FILE WAS UPDATED (opt.gbw) ****
             **** DENSITY opt.scfp WAS UPDATED ****
             **** ENERGY FILE WAS UPDATED (opt.en.tmp) ****
----------------------
UHF SPIN CONTAMINATION
----------------------

Warning: in a DFT calculation there is little theoretical justification to 
         calculate <S**2> as in Hartree-Fock theory. We will do it anyways
         but you should keep in mind that the values have only limited relevance

Expectation value of <S**2>     :     0.759088
Ideal value S*(S+1) for S=0.5   :     0.750000
Deviation                       :     0.009088

             **** THE GBW FILE WAS UPDATED (opt.gbw) ****
             **** DENSITY opt.scfp WAS UPDATED ****
----------------
ORBITAL ENERGIES
----------------
                 SPIN UP ORBITALS
  NO   OCC          E(Eh)            E(eV) 
   0   1.0000     -10.213976      -277.9364 
   1   1.0000     -10.207008      -277.7468 
   2   1.0000     -10.203561      -277.6530 
   3   1.0000     -10.203386      -277.6483 
   4   1.0000     -10.199719      -277.5485 
   5   1.0000     -10.194566      -277.4082 
   6   1.0000     -10.194417      -277.4042 
   7   1.0000     -10.194370      -277.4029 
   8   1.0000     -10.193602      -277.3820 
   9   1.0000     -10.193249      -277.3724 
  10   1.0000     -10.192951      -277.3643 
  11   1.0000     -10.191393      -277.3219 
  12   1.0000     -10.190091      -277.2865 
  13   1.0000     -10.186746      -277.1955 
  14   1.0000     -10.186068      -277.1770 
  15   1.0000     -10.183840      -277.1164 
  16   1.0000     -10.182810      -277.0883 
  17   1.0000     -10.182641      -277.0838 
  18   1.0000     -10.182456      -277.0787 
  19   1.0000     -10.182283      -277.0740 
  20   1.0000     -10.176299      -276.9112 
  21   1.0000     -10.176133      -276.9067 
  22   1.0000      -0.870709       -23.6932 
  23   1.0000      -0.860761       -23.4225 
  24   1.0000      -0.813873       -22.1466 
  25   1.0000      -0.795923       -21.6582 
  26   1.0000      -0.786798       -21.4099 
  27   1.0000      -0.769887       -20.9497 
  28   1.0000      -0.760171       -20.6853 
  29   1.0000      -0.748594       -20.3703 
  30   1.0000      -0.732274       -19.9262 
  31   1.0000      -0.712439       -19.3864 
  32   1.0000      -0.698271       -19.0009 
  33   1.0000      -0.652694       -17.7607 
  34   1.0000      -0.630614       -17.1599 
  35   1.0000      -0.617572       -16.8050 
  36   1.0000      -0.606757       -16.5107 
  37   1.0000      -0.605567       -16.4783 
  38   1.0000      -0.581958       -15.8359 
  39   1.0000      -0.577008       -15.7012 
  40   1.0000      -0.563111       -15.3230 
  41   1.0000      -0.534631       -14.5480 
  42   1.0000      -0.506511       -13.7829 
  43   1.0000      -0.477771       -13.0008 
  44   1.0000      -0.471883       -12.8406 
  45   1.0000      -0.471420       -12.8280 
  46   1.0000      -0.470338       -12.7985 
  47   1.0000      -0.455237       -12.3876 
  48   1.0000      -0.441114       -12.0033 
  49   1.0000      -0.434783       -11.8310 
  50   1.0000      -0.427559       -11.6345 
  51   1.0000      -0.423936       -11.5359 
  52   1.0000      -0.422474       -11.4961 
  53   1.0000      -0.421900       -11.4805 
  54   1.0000      -0.417034       -11.3481 
  55   1.0000      -0.413720       -11.2579 
  56   1.0000      -0.411845       -11.2069 
  57   1.0000      -0.381153       -10.3717 
  58   1.0000      -0.378519       -10.3000 
  59   1.0000      -0.372627       -10.1397 
  60   1.0000      -0.366029        -9.9602 
  61   1.0000      -0.364286        -9.9127 
  62   1.0000      -0.358005        -9.7418 
  63   1.0000      -0.356939        -9.7128 
  64   1.0000      -0.348155        -9.4738 
  65   1.0000      -0.341135        -9.2827 
  66   1.0000      -0.334039        -9.0897 
  67   1.0000      -0.331753        -9.0274 
  68   1.0000      -0.327331        -8.9071 
  69   1.0000      -0.324735        -8.8365 
  70   1.0000      -0.322865        -8.7856 
  71   1.0000      -0.322813        -8.7842 
  72   1.0000      -0.312220        -8.4959 
  73   1.0000      -0.268103        -7.2955 
  74   1.0000      -0.265640        -7.2284 
  75   1.0000      -0.256424        -6.9777 
  76   1.0000      -0.242200        -6.5906 
  77   1.0000      -0.235966        -6.4210 
  78   1.0000      -0.209154        -5.6914 
  79   0.0000      -0.049511        -1.3473 
  80   0.0000      -0.008134        -0.2213 
  81   0.0000      -0.003251        -0.0885 
  82   0.0000       0.006350         0.1728 
  83   0.0000       0.048449         1.3184 
  84   0.0000       0.055830         1.5192 
  85   0.0000       0.061272         1.6673 
  86   0.0000       0.064266         1.7488 
  87   0.0000       0.079528         2.1641 
  88   0.0000       0.083796         2.2802 
  89   0.0000       0.084113         2.2888 
  90   0.0000       0.089487         2.4351 
  91   0.0000       0.092734         2.5234 
  92   0.0000       0.094498         2.5714 
  93   0.0000       0.102294         2.7836 
  94   0.0000       0.105380         2.8675 
  95   0.0000       0.114453         3.1144 
  96   0.0000       0.126254         3.4355 
  97   0.0000       0.128705         3.5022 
  98   0.0000       0.137873         3.7517 
  99   0.0000       0.142456         3.8764 
 100   0.0000       0.142783         3.8853 
 101   0.0000       0.144812         3.9405 
 102   0.0000       0.153215         4.1692 
 103   0.0000       0.156549         4.2599 
 104   0.0000       0.158834         4.3221 
 105   0.0000       0.161004         4.3811 
 106   0.0000       0.161787         4.4024 
 107   0.0000       0.165707         4.5091 
 108   0.0000       0.173259         4.7146 
 109   0.0000       0.176154         4.7934 
 110   0.0000       0.184623         5.0238 
 111   0.0000       0.206197         5.6109 
 112   0.0000       0.208601         5.6763 
 113   0.0000       0.212595         5.7850 
 114   0.0000       0.213950         5.8219 
 115   0.0000       0.223447         6.0803 
 116   0.0000       0.225035         6.1235 
 117   0.0000       0.233905         6.3649 
 118   0.0000       0.239403         6.5145 
 119   0.0000       0.267137         7.2692 
 120   0.0000       0.273457         7.4411 
 121   0.0000       0.281213         7.6522 
 122   0.0000       0.285901         7.7798 
 123   0.0000       0.292702         7.9648 
 124   0.0000       0.309541         8.4230 
 125   0.0000       0.314369         8.5544 
 126   0.0000       0.332683         9.0528 
 127   0.0000       0.346081         9.4173 
 128   0.0000       0.354295         9.6409 
 129   0.0000       0.366797         9.9810 
 130   0.0000       0.381658        10.3854 
 131   0.0000       0.401760        10.9324 
 132   0.0000       0.403619        10.9830 
 133   0.0000       0.411636        11.2012 
 134   0.0000       0.412169        11.2157 
 135   0.0000       0.419478        11.4146 
 136   0.0000       0.420223        11.4348 
 137   0.0000       0.428944        11.6722 
 138   0.0000       0.433475        11.7954 
 139   0.0000       0.441895        12.0246 
 140   0.0000       0.446664        12.1544 
 141   0.0000       0.453956        12.3528 
 142   0.0000       0.454922        12.3790 
 143   0.0000       0.471476        12.8295 
 144   0.0000       0.474714        12.9176 
 145   0.0000       0.481559        13.1039 
 146   0.0000       0.482600        13.1322 
 147   0.0000       0.488223        13.2852 
 148   0.0000       0.490699        13.3526 
 149   0.0000       0.493741        13.4354 
 150   0.0000       0.506838        13.7918 
 151   0.0000       0.509220        13.8566 
 152   0.0000       0.512081        13.9344 
 153   0.0000       0.512122        13.9356 
 154   0.0000       0.516776        14.0622 
 155   0.0000       0.516984        14.0678 
 156   0.0000       0.519639        14.1401 
 157   0.0000       0.524752        14.2792 
 158   0.0000       0.528459        14.3801 
 159   0.0000       0.541506        14.7351 
 160   0.0000       0.548989        14.9387 
 161   0.0000       0.549952        14.9649 
 162   0.0000       0.566510        15.4155 
 163   0.0000       0.571418        15.5491 
 164   0.0000       0.581504        15.8235 
 165   0.0000       0.587127        15.9765 
 166   0.0000       0.593831        16.1590 
 167   0.0000       0.597193        16.2505 
 168   0.0000       0.601795        16.3757 
 169   0.0000       0.616490        16.7756 
 170   0.0000       0.616677        16.7806 
 171   0.0000       0.622134        16.9291 
 172   0.0000       0.623185        16.9577 
 173   0.0000       0.629760        17.1367 
 174   0.0000       0.634397        17.2628 
 175   0.0000       0.637817        17.3559 
 176   0.0000       0.640343        17.4246 
 177   0.0000       0.641747        17.4628 
 178   0.0000       0.643178        17.5018 
 179   0.0000       0.653251        17.7759 
 180   0.0000       0.653768        17.7899 
 181   0.0000       0.658972        17.9316 
 182   0.0000       0.659210        17.9380 
 183   0.0000       0.660823        17.9819 
 184   0.0000       0.661557        18.0019 
 185   0.0000       0.670211        18.2374 
 186   0.0000       0.672347        18.2955 
 187   0.0000       0.675496        18.3812 
 188   0.0000       0.676436        18.4068 
 189   0.0000       0.680959        18.5298 
 190   0.0000       0.683306        18.5937 
 191   0.0000       0.687689        18.7130 
 192   0.0000       0.691517        18.8171 
 193   0.0000       0.691834        18.8258 
 194   0.0000       0.698027        18.9943 
 195   0.0000       0.702954        19.1283 
 196   0.0000       0.704888        19.1810 
 197   0.0000       0.707269        19.2458 
 198   0.0000       0.715688        19.4749 
 199   0.0000       0.722626        19.6637 
 200   0.0000       0.725483        19.7414 
 201   0.0000       0.734946        19.9989 
 202   0.0000       0.736391        20.0382 
 203   0.0000       0.746121        20.3030 
 204   0.0000       0.751259        20.4428 
 205   0.0000       0.765372        20.8268 
 206   0.0000       0.777251        21.1501 
 207   0.0000       0.794224        21.6119 
 208   0.0000       0.810258        22.0482 
 209   0.0000       0.815060        22.1789 
 210   0.0000       0.824255        22.4291 
 211   0.0000       0.833871        22.6908 
 212   0.0000       0.838454        22.8155 
 213   0.0000       0.839816        22.8526 
 214   0.0000       0.857279        23.3278 
 215   0.0000       0.866348        23.5745 
 216   0.0000       0.873373        23.7657 
 217   0.0000       0.891528        24.2597 
 218   0.0000       0.893513        24.3137 
 219   0.0000       0.903701        24.5910 
 220   0.0000       0.913682        24.8625 
 221   0.0000       0.923687        25.1348 
 222   0.0000       0.939777        25.5726 
 223   0.0000       0.939913        25.5763 
 224   0.0000       0.948468        25.8091 
 225   0.0000       0.966146        26.2902 
 226   0.0000       0.972600        26.4658 
 227   0.0000       0.982932        26.7469 
 228   0.0000       0.984569        26.7915 
 229   0.0000       1.002346        27.2752 
 230   0.0000       1.009050        27.4576 
 231   0.0000       1.013283        27.5728 
 232   0.0000       1.016436        27.6586 
 233   0.0000       1.024403        27.8754 
 234   0.0000       1.041013        28.3274 
 235   0.0000       1.042675        28.3726 
 236   0.0000       1.046614        28.4798 
 237   0.0000       1.054414        28.6921 
 238   0.0000       1.060807        28.8660 
 239   0.0000       1.075619        29.2691 
 240   0.0000       1.079943        29.3867 
 241   0.0000       1.098269        29.8854 
 242   0.0000       1.115553        30.3557 
 243   0.0000       1.118454        30.4347 
 244   0.0000       1.125056        30.6143 
 245   0.0000       1.147740        31.2316 
 246   0.0000       1.152363        31.3574 
 247   0.0000       1.175590        31.9894 
 248   0.0000       1.192965        32.4622 
 249   0.0000       1.198645        32.6168 
 250   0.0000       1.205005        32.7899 
 251   0.0000       1.206161        32.8213 
 252   0.0000       1.209913        32.9234 
 253   0.0000       1.218319        33.1521 
 254   0.0000       1.220971        33.2243 
 255   0.0000       1.221177        33.2299 
 256   0.0000       1.223302        33.2877 
 257   0.0000       1.232446        33.5366 
 258   0.0000       1.273809        34.6621 
 259   0.0000       1.287937        35.0466 
 260   0.0000       1.296380        35.2763 
 261   0.0000       1.301916        35.4269 
 262   0.0000       1.310710        35.6662 
 263   0.0000       1.318779        35.8858 
 264   0.0000       1.332462        36.2581 
 265   0.0000       1.348248        36.6877 
 266   0.0000       1.353628        36.8341 
 267   0.0000       1.370277        37.2871 
 268   0.0000       1.395081        37.9621 
 269   0.0000       1.405897        38.2564 
 270   0.0000       1.422785        38.7160 
 271   0.0000       1.425980        38.8029 
 272   0.0000       1.426784        38.8248 
 273   0.0000       1.430519        38.9264 
 274   0.0000       1.437946        39.1285 
 275   0.0000       1.446900        39.3721 
 276   0.0000       1.474061        40.1113 
 277   0.0000       1.476483        40.1772 
 278   0.0000       1.476932        40.1894 
 279   0.0000       1.485253        40.4158 
 280   0.0000       1.485511        40.4228 
 281   0.0000       1.492255        40.6063 
 282   0.0000       1.499677        40.8083 
 283   0.0000       1.514986        41.2249 
 284   0.0000       1.531833        41.6833 
 285   0.0000       1.533776        41.7362 
 286   0.0000       1.544417        42.0257 
 287   0.0000       1.545021        42.0422 
 288   0.0000       1.569855        42.7179 
 289   0.0000       1.586964        43.1835 
 290   0.0000       1.593666        43.3658 
 291   0.0000       1.600469        43.5510 
 292   0.0000       1.601200        43.5709 
 293   0.0000       1.603821        43.6422 
 294   0.0000       1.608733        43.7759 
 295   0.0000       1.615265        43.9536 
 296   0.0000       1.615911        43.9712 
 297   0.0000       1.626228        44.2519 
 298   0.0000       1.628228        44.3063 
 299   0.0000       1.628856        44.3234 
 300   0.0000       1.632547        44.4239 
 301   0.0000       1.638588        44.5883 
 302   0.0000       1.640831        44.6493 
 303   0.0000       1.645638        44.7801 
 304   0.0000       1.646734        44.8099 
 305   0.0000       1.648053        44.8458 
 306   0.0000       1.652397        44.9640 
 307   0.0000       1.657738        45.1094 
 308   0.0000       1.669960        45.4419 
 309   0.0000       1.672480        45.5105 
 310   0.0000       1.680899        45.7396 
 311   0.0000       1.684247        45.8307 
 312   0.0000       1.685805        45.8731 
 313   0.0000       1.686011        45.8787 
 314   0.0000       1.694254        46.1030 
 315   0.0000       1.695448        46.1355 
 316   0.0000       1.697278        46.1853 
[...]
      px      :     0.021808
      py      :     0.040207

SPIN
  0 C s       :     0.000789  s :     0.000789
      pz      :     0.006927  p :     0.009262
      px      :     0.000567
      py      :     0.001768
      dz2     :    -0.000007  d :    -0.002869
      dxz     :    -0.002545
      dyz     :     0.000001
      dx2y2   :    -0.000119
      dxy     :    -0.000199
  1 C s       :     0.103570  s :     0.103570
      pz      :     0.065189  p :     0.745571
      px      :     0.669932
      py      :     0.010450
      dz2     :     0.001286  d :     0.006043
      dxz     :    -0.001593
      dyz     :    -0.000766
      dx2y2   :     0.008962
      dxy     :    -0.001847
  2 C s       :     0.000401  s :     0.000401
      pz      :    -0.029203  p :    -0.011564
      px      :     0.012881
      py      :     0.004758
      dz2     :     0.000597  d :     0.034066
      dxz     :     0.001238
      dyz     :     0.001569
      dx2y2   :     0.020655
      dxy     :     0.010007
  3 C s       :     0.007066  s :     0.007066
      pz      :     0.017881  p :     0.039519
      px      :     0.021307
      py      :     0.000331
      dz2     :     0.000414  d :     0.000641
      dxz     :    -0.001704
      dyz     :    -0.000594
      dx2y2   :    -0.000291
      dxy     :     0.002815
  4 C s       :    -0.000815  s :    -0.000815
      pz      :    -0.024986  p :    -0.027204
      px      :    -0.000677
      py      :    -0.001541
      dz2     :     0.000111  d :     0.002734
      dxz     :     0.000622
      dyz     :     0.000791
      dx2y2   :     0.001013
      dxy     :     0.000197
  5 C s       :     0.006869  s :     0.006869
      pz      :     0.018575  p :     0.043470
      px      :     0.023787
      py      :     0.001108
      dz2     :     0.000350  d :    -0.001344
      dxz     :    -0.001617
      dyz     :    -0.000565
      dx2y2   :    -0.000311
      dxy     :     0.000799
  6 C s       :    -0.000389  s :    -0.000389
      pz      :    -0.032420  p :    -0.019435
      px      :     0.008936
      py      :     0.004049
      dz2     :     0.000583  d :     0.038904
      dxz     :     0.001378
      dyz     :     0.001524
      dx2y2   :     0.023225
      dxy     :     0.012193
  7 H s       :     0.006777  s :     0.006777
      pz      :     0.000510  p :     0.001447
      px      :     0.000970
      py      :    -0.000032
  8 H s       :     0.014243  s :     0.014243
      pz      :    -0.000900  p :    -0.001345
      px      :     0.000157
      py      :    -0.000601
  9 C s       :     0.003328  s :     0.003328
      pz      :     0.000893  p :     0.009922
      px      :     0.001504
      py      :     0.007525
      dz2     :    -0.000062  d :    -0.001343
      dxz     :    -0.000818
      dyz     :    -0.000469
      dx2y2   :     0.000086
      dxy     :    -0.000080
 10 H s       :    -0.000145  s :    -0.000145
      pz      :     0.000087  p :     0.000452
      px      :     0.000311
      py      :     0.000054
 11 H s       :    -0.000163  s :    -0.000163
      pz      :     0.000086  p :     0.000451
      px      :     0.000308
      py      :     0.000056
 12 C s       :     0.000020  s :     0.000020
      pz      :     0.000014  p :     0.000365
      px      :    -0.000124
      py      :     0.000475
      dz2     :     0.000010  d :     0.000092
      dxz     :    -0.000006
      dyz     :     0.000019
      dx2y2   :     0.000067
      dxy     :     0.000001
 13 H s       :     0.000016  s :     0.000016
      pz      :    -0.000001  p :     0.000023
      px      :     0.000006
      py      :     0.000018
 14 H s       :     0.000016  s :     0.000016
      pz      :    -0.000001  p :     0.000023
      px      :     0.000006
      py      :     0.000018
 15 C s       :     0.000050  s :     0.000050
      pz      :    -0.000017  p :     0.000164
      px      :    -0.000008
      py      :     0.000189
      dz2     :     0.000004  d :     0.000020
      dxz     :     0.000000
      dyz     :    -0.000001
      dx2y2   :    -0.000001
      dxy     :     0.000018
 16 H s       :    -0.000011  s :    -0.000011
      pz      :     0.000001  p :    -0.000002
      px      :     0.000001
      py      :    -0.000004
 17 H s       :    -0.000011  s :    -0.000011
      pz      :     0.000001  p :    -0.000002
      px      :     0.000001
      py      :    -0.000004
 18 C s       :     0.000025  s :     0.000025
      pz      :     0.000006  p :     0.000134
      px      :     0.000016
      py      :     0.000112
      dz2     :     0.000001  d :     0.000003
      dxz     :    -0.000002
      dyz     :    -0.000001
      dx2y2   :     0.000003
      dxy     :     0.000002
 19 H s       :    -0.000007  s :    -0.000007
      pz      :     0.000000  p :     0.000004
      px      :     0.000001
      py      :     0.000003
 20 H s       :    -0.000007  s :    -0.000007
      pz      :     0.000000  p :     0.000004
      px      :     0.000001
      py      :     0.000003
 21 C s       :     0.000664  s :     0.000664
      pz      :    -0.000176  p :     0.003361
      px      :     0.001596
      py      :     0.001941
      dz2     :     0.000044  d :     0.001940
      dxz     :     0.000483
      dyz     :     0.000303
      dx2y2   :     0.000791
      dxy     :     0.000318
 22 H s       :     0.001635  s :     0.001635
      pz      :    -0.000011  p :     0.000197
      px      :     0.000082
      py      :     0.000126
 23 H s       :     0.001633  s :     0.001633
      pz      :    -0.000010  p :     0.000197
      px      :     0.000081
      py      :     0.000126
 24 C s       :    -0.000019  s :    -0.000019
      pz      :    -0.000067  p :     0.000365
      px      :     0.000427
      py      :     0.000005
      dz2     :     0.000018  d :     0.000147
      dxz     :     0.000011
      dyz     :    -0.000008
      dx2y2   :     0.000073
      dxy     :     0.000053
 25 H s       :     0.000073  s :     0.000073
      pz      :     0.000003  p :     0.000004
      px      :    -0.000009
      py      :     0.000009
 26 H s       :     0.000073  s :     0.000073
      pz      :     0.000003  p :     0.000004
      px      :    -0.000009
      py      :     0.000009
 27 C s       :     0.000095  s :     0.000095
      pz      :     0.000022  p :     0.000142
      px      :     0.000007
      py      :     0.000113
      dz2     :    -0.000001  d :    -0.000006
      dxz     :    -0.000005
      dyz     :    -0.000000
      dx2y2   :     0.000003
      dxy     :    -0.000003
 28 H s       :     0.000041  s :     0.000041
      pz      :     0.000003  p :     0.000010
      px      :     0.000007
      py      :     0.000000
 29 H s       :     0.000041  s :     0.000041
      pz      :     0.000003  p :     0.000010
      px      :     0.000007
      py      :     0.000000
 30 C s       :    -0.000006  s :    -0.000006
      pz      :    -0.000001  p :     0.000002
      px      :     0.000001
      py      :     0.000001
      dz2     :    -0.000001  d :     0.000000
      dxz     :     0.000001
      dyz     :     0.000001
      dx2y2   :    -0.000000
      dxy     :    -0.000001
 31 H s       :     0.000002  s :     0.000002
      pz      :     0.000000  p :     0.000001
      px      :    -0.000000
      py      :     0.000001
 32 H s       :     0.000002  s :     0.000002
      pz      :     0.000000  p :     0.000001
      px      :    -0.000000
      py      :     0.000001
 33 C s       :    -0.000485  s :    -0.000485
      pz      :    -0.012514  p :    -0.014512
      px      :    -0.000246
      py      :    -0.001752
      dz2     :     0.000052  d :     0.000768
      dxz     :     0.000551
      dyz     :     0.000000
      dx2y2   :     0.000064
      dxy     :     0.000101
 34 H s       :     0.000025  s :     0.000025
      pz      :     0.000000  p :     0.000004
      px      :     0.000002
      py      :     0.000002
 35 H s       :    -0.000007  s :    -0.000007
      pz      :    -0.000000  p :     0.000000
      px      :     0.000001
      py      :    -0.000001
 36 C s       :     0.000182  s :     0.000182
      pz      :     0.002428  p :     0.002868
      px      :     0.000312
      py      :     0.000128
      dz2     :    -0.000016  d :    -0.000966
      dxz     :    -0.000727
      dyz     :    -0.000075
      dx2y2   :    -0.000048
      dxy     :    -0.000100
 37 C s       :    -0.000145  s :    -0.000145
      pz      :    -0.003512  p :    -0.003725
      px      :    -0.000110
      py      :    -0.000104
      dz2     :     0.000014  d :     0.000199
      dxz     :     0.000087
      dyz     :     0.000056
      dx2y2   :     0.000021
      dxy     :     0.000020
 38 C s       :     0.000081  s :     0.000081
      pz      :     0.001594  p :     0.001759
      px      :     0.000095
      py      :     0.000070
      dz2     :    -0.000008  d :    -0.000357
      dxz     :    -0.000247
      dyz     :    -0.000073
      dx2y2   :    -0.000014
      dxy     :    -0.000015
 39 C s       :    -0.000131  s :    -0.000131
      pz      :    -0.003756  p :    -0.003941
      px      :    -0.000085
      py      :    -0.000100
      dz2     :     0.000016  d :     0.000140
      dxz     :     0.000017
      dyz     :     0.000081
      dx2y2   :     0.000013
      dxy     :     0.000013
 40 C s       :     0.000081  s :     0.000081
      pz      :     0.001590  p :     0.001755
      px      :     0.000092
      py      :     0.000073
      dz2     :    -0.000008  d :    -0.000357
      dxz     :    -0.000232
      dyz     :    -0.000087
      dx2y2   :    -0.000015
      dxy     :    -0.000015
 41 C s       :    -0.000145  s :    -0.000145
      pz      :    -0.003506  p :    -0.003720
      px      :    -0.000112
      py      :    -0.000102
      dz2     :     0.000014  d :     0.000199
      dxz     :     0.000094
      dyz     :     0.000049
      dx2y2   :     0.000022
      dxy     :     0.000019
 42 H s       :     0.000119  s :     0.000119
      pz      :    -0.000115  p :    -0.000134
      px      :    -0.000016
      py      :    -0.000002
 43 H s       :    -0.000051  s :    -0.000051
      pz      :     0.000046  p :     0.000056
      px      :     0.000004
      py      :     0.000006
 44 H s       :     0.000108  s :     0.000108
      pz      :    -0.000095  p :    -0.000114
      px      :    -0.000006
      py      :    -0.000013
 45 H s       :     0.000112  s :     0.000112
      pz      :    -0.000095  p :    -0.000113
      px      :    -0.000005
      py      :    -0.000014
 46 H s       :    -0.000050  s :    -0.000050
      pz      :     0.000046  p :     0.000056
      px      :     0.000004
      py      :     0.000006


                      *****************************
                      * MAYER POPULATION ANALYSIS *
                      *****************************

  NA   - Mulliken gross atomic population
  ZA   - Total nuclear charge
  QA   - Mulliken gross atomic charge
  VA   - Mayer's total valence
  BVA  - Mayer's bonded valence
  FA   - Mayer's free valence

  ATOM       NA         ZA         QA         VA         BVA        FA
  0 C      5.7665     6.0000     0.2335     2.5947     2.5946     0.0001
  1 C      6.1356     6.0000    -0.1356     3.8500     3.1050     0.7450
  2 C      6.0152     6.0000    -0.0152     4.0406     4.0359     0.0047
  3 C      5.9751     6.0000     0.0249     3.9646     3.9629     0.0016
  4 C      6.1655     6.0000    -0.1655     3.8529     3.8520     0.0009
  5 C      6.1005     6.0000    -0.1005     4.2323     4.2303     0.0020
  6 C      5.9410     6.0000     0.0590     3.9616     3.9559     0.0057
  7 H      1.0504     1.0000    -0.0504     1.0013     1.0011     0.0002
  8 H      1.0220     1.0000    -0.0220     0.9967     0.9963     0.0004
  9 C      5.9525     6.0000     0.0475     4.0310     4.0308     0.0002
 10 H      0.9743     1.0000     0.0257     0.9692     0.9692     0.0000
 11 H      0.9742     1.0000     0.0258     0.9691     0.9691     0.0000
 12 C      6.0422     6.0000    -0.0422     4.1158     4.1158     0.0000
 13 H      0.9836     1.0000     0.0164     0.9636     0.9636     0.0000
 14 H      0.9836     1.0000     0.0164     0.9635     0.9635     0.0000
 15 C      6.0258     6.0000    -0.0258     4.1175     4.1175     0.0000
 16 H      0.9938     1.0000     0.0062     0.9671     0.9671     0.0000
 17 H      0.9938     1.0000     0.0062     0.9671     0.9671     0.0000
 18 C      5.9990     6.0000     0.0010     4.0190     4.0190     0.0000
 19 H      0.9829     1.0000     0.0171     0.9774     0.9774     0.0000
 20 H      0.9829     1.0000     0.0171     0.9774     0.9774     0.0000
 21 C      5.9602     6.0000     0.0398     4.0257     4.0256     0.0000
 22 H      0.9673     1.0000     0.0327     0.9695     0.9695     0.0000
 23 H      0.9673     1.0000     0.0327     0.9694     0.9694     0.0000
 24 C      6.0349     6.0000    -0.0349     4.1117     4.1117     0.0000
 25 H      0.9849     1.0000     0.0151     0.9635     0.9635     0.0000
 26 H      0.9850     1.0000     0.0150     0.9635     0.9635     0.0000
 27 C      6.0256     6.0000    -0.0256     4.1193     4.1193     0.0000
 28 H      0.9943     1.0000     0.0057     0.9675     0.9675     0.0000
 29 H      0.9943     1.0000     0.0057     0.9675     0.9675     0.0000
 30 C      5.9963     6.0000     0.0037     4.0169     4.0169     0.0000
 31 H      0.9831     1.0000     0.0169     0.9772     0.9772     0.0000
 32 H      0.9831     1.0000     0.0169     0.9772     0.9772     0.0000
 33 C      5.8439     6.0000     0.1561     2.6600     2.6598     0.0002
 34 H      0.9871     1.0000     0.0129     0.9736     0.9736     0.0000
 35 H      0.9873     1.0000     0.0127     0.9735     0.9735     0.0000
 36 C      6.2474     6.0000    -0.2474     3.9283     3.9283     0.0000
 37 C      5.9698     6.0000     0.0302     3.9943     3.9943     0.0000
 38 C      5.9593     6.0000     0.0407     3.9987     3.9987     0.0000
 39 C      5.9675     6.0000     0.0325     3.9985     3.9984     0.0000
 40 C      5.9596     6.0000     0.0404     3.9982     3.9982     0.0000
 41 C      5.9723     6.0000     0.0277     3.9935     3.9935     0.0000
 42 H      1.0287     1.0000    -0.0287     0.9686     0.9686     0.0000
 43 H      1.0286     1.0000    -0.0286     0.9683     0.9683     0.0000
 44 H      1.0418     1.0000    -0.0418     0.9834     0.9834     0.0000
 45 H      1.0412     1.0000    -0.0412     0.9830     0.9830     0.0000
 46 H      1.0286     1.0000    -0.0286     0.9682     0.9682     0.0000

  Mayer bond orders larger than 0.100000
B(  0-C ,  4-C ) :   0.9037 B(  0-C , 33-C ) :   1.7833 B(  0-C , 36-C ) :  -0.1629 
B(  1-C ,  2-C ) :   1.3941 B(  1-C ,  6-C ) :   1.4445 B(  2-C ,  3-C ) :   1.4325 
B(  2-C ,  9-C ) :   1.0450 B(  3-C ,  4-C ) :   1.4170 B(  3-C ,  7-H ) :   0.9222 
B(  4-C ,  5-C ) :   1.4135 B(  4-C , 33-C ) :  -0.1015 B(  5-C ,  6-C ) :   1.4548 
B(  5-C , 21-C ) :   1.0884 B(  6-C ,  8-H ) :   0.9100 B(  9-C , 10-H ) :   0.9171 
B(  9-C , 11-H ) :   0.9170 B(  9-C , 12-C ) :   1.1023 B( 12-C , 13-H ) :   0.9310 
B( 12-C , 14-H ) :   0.9309 B( 12-C , 15-C ) :   1.0755 B( 15-C , 16-H ) :   0.9415 
B( 15-C , 17-H ) :   0.9415 B( 15-C , 18-C ) :   1.1056 B( 18-C , 19-H ) :   0.9666 
B( 18-C , 20-H ) :   0.9666 B( 18-C , 34-H ) :   0.9622 B( 21-C , 22-H ) :   0.8984 
B( 21-C , 23-H ) :   0.8984 B( 21-C , 24-C ) :   1.1010 B( 24-C , 25-H ) :   0.9298 
B( 24-C , 26-H ) :   0.9298 B( 24-C , 27-C ) :   1.0758 B( 27-C , 28-H ) :   0.9412 
B( 27-C , 29-H ) :   0.9412 B( 27-C , 30-C ) :   1.1061 B( 30-C , 31-H ) :   0.9662 
B( 30-C , 32-H ) :   0.9663 B( 30-C , 35-H ) :   0.9617 B( 33-C , 36-C ) :   0.9222 
B( 36-C , 37-C ) :   1.4426 B( 36-C , 41-C ) :   1.4398 B( 37-C , 38-C ) :   1.4697 
B( 37-C , 44-H ) :   0.9399 B( 38-C , 39-C ) :   1.4447 B( 38-C , 46-H ) :   0.9378 
B( 39-C , 40-C ) :   1.4439 B( 39-C , 42-H ) :   0.9432 B( 40-C , 41-C ) :   1.4699 
B( 40-C , 43-H ) :   0.9379 B( 41-C , 45-H ) :   0.9402 

-------
TIMINGS
-------

Total SCF time: 0 days 0 hours 0 min 53 sec 

Total time                  ....      53.917 sec
Sum of individual times     ....      50.833 sec  ( 94.3%)

Fock matrix formation       ....      45.332 sec  ( 84.1%)
  Split-RI-J                ....       3.584 sec  (  7.9% of F)
  Chain of spheres X        ....      28.757 sec  ( 63.4% of F)
  XC integration            ....       9.922 sec  ( 21.9% of F)
    Basis function eval.    ....       0.940 sec  (  9.5% of XC)
    Density eval.           ....       1.045 sec  ( 10.5% of XC)
    XC-Functional eval.     ....       0.245 sec  (  2.5% of XC)
    XC-Potential eval.      ....       0.669 sec  (  6.7% of XC)
Diagonalization             ....       0.926 sec  (  1.7%)
Density matrix formation    ....       0.091 sec  (  0.2%)
Population analysis         ....       0.305 sec  (  0.6%)
Initial guess               ....       0.131 sec  (  0.2%)
Orbital Transformation      ....       0.000 sec  (  0.0%)
Orbital Orthonormalization  ....       0.094 sec  (  0.2%)
DIIS solution               ....       0.627 sec  (  1.2%)
Grid generation             ....       3.420 sec  (  6.3%)

Maximum memory used throughout the entire SCF-calculation: 111.1 MB

-------------------------   --------------------
FINAL SINGLE POINT ENERGY      -852.752248188775
-------------------------   --------------------

                                *** OPTIMIZATION RUN DONE ***

                            ***************************************
                            *     ORCA property calculations      *
                            ***************************************

                                    ---------------------
                                    Active property flags
                                    ---------------------
   (+) Dipole Moment


------------------------------------------------------------------------------
                       ORCA ELECTRIC PROPERTIES CALCULATION
------------------------------------------------------------------------------

Dipole Moment Calculation                       ... on
Quadrupole Moment Calculation                   ... off
Polarizability Calculation                      ... off
GBWName                                         ... opt.gbw
Electron density                                ... opt.scfp
The origin for moment calculation is the CENTER OF MASS  = ( 4.014446, -0.062693 -0.019596)

-------------
DIPOLE MOMENT
-------------
                                X             Y             Z
Electronic contribution:     15.82417      -0.23644       0.01506
Nuclear contribution   :    -15.62451       0.23028      -0.01489
                        -----------------------------------------
Total Dipole Moment    :      0.19966      -0.00616       0.00017
                        -----------------------------------------
Magnitude (a.u.)       :      0.19975
Magnitude (Debye)      :      0.50774



--------------------
Rotational spectrum 
--------------------
 
Rotational constants in cm-1:     0.007056     0.004915     0.002910 
Rotational constants in MHz :   211.539302   147.336779    87.224688 

 Dipole components along the rotational axes: 
x,y,z [a.u.] :     0.153782     0.127487     0.000059 
x,y,z [Debye]:     0.390882     0.324047     0.000151 

 

Timings for individual modules:

Sum of individual times         ...      186.137 sec (=   3.102 min)
GTO integral calculation        ...        6.019 sec (=   0.100 min)   3.2 %
SCF iterations                  ...      158.748 sec (=   2.646 min)  85.3 %
SCF Gradient evaluation         ...       21.053 sec (=   0.351 min)  11.3 %
Geometry relaxation             ...        0.317 sec (=   0.005 min)   0.2 %
                             ****ORCA TERMINATED NORMALLY****
TOTAL RUN TIME: 0 days 0 hours 3 minutes 10 seconds 210 msec
