
                                 *****************
                                 * O   R   C   A *
                                 *****************

           --- An Ab Initio, DFT and Semiempirical electronic structure package ---

                  #######################################################
                  #                        -***-                        #
                  #          Department of theory and spectroscopy      #
                  #               Directorship: Frank Neese             #
                  #        Max Planck Institute fuer Kohlenforschung    #
                  #                Kaiser Wilhelm Platz 1               #
                  #                 D-45470 Muelheim/Ruhr               #
                  #                      Germany                        #
                  #                                                     #
                  #                  All rights reserved                #
                  #                        -***-                        #
                  #######################################################


                         Program Version 4.2.1 -  RELEASE  -


 With contributions from (in alphabetic order):
   Daniel Aravena         : Magnetic Suceptibility
   Michael Atanasov       : Ab Initio Ligand Field Theory (pilot matlab implementation)
   Alexander A. Auer      : GIAO ZORA, VPT2
   Ute Becker             : Parallelization
   Giovanni Bistoni       : ED, misc. LED, open-shell LED, HFLD
   Martin Brehm           : Molecular dynamics
   Dmytro Bykov           : SCF Hessian
   Vijay G. Chilkuri      : MRCI spin determinant printing, contributions to CSF-ICE
   Dipayan Datta          : RHF DLPNO-CCSD density
   Achintya Kumar Dutta   : EOM-CC, STEOM-CC
   Dmitry Ganyushin       : Spin-Orbit,Spin-Spin,Magnetic field MRCI
   Miquel Garcia          : C-PCM Hessian, Gaussian charge scheme
   Yang Guo               : DLPNO-NEVPT2, CIM, IAO-localization
   Andreas Hansen         : Spin unrestricted coupled pair/coupled cluster methods
   Benjamin Helmich-Paris : CASSCF linear response (MC-RPA)
   Lee Huntington         : MR-EOM, pCC
   Robert Izsak           : Overlap fitted RIJCOSX, COSX-SCS-MP3, EOM
   Christian Kollmar      : KDIIS, OOCD, Brueckner-CCSD(T), CCSD density
   Simone Kossmann        : Meta GGA functionals, TD-DFT gradient, OOMP2, MP2 Hessian
   Martin Krupicka        : AUTO-CI
   Lucas Lang             : DCDCAS
   Dagmar Lenk            : GEPOL surface, SMD
   Dimitrios Liakos       : Extrapolation schemes; Compound Job, initial MDCI parallelization
   Dimitrios Manganas     : Further ROCIS development; embedding schemes
   Dimitrios Pantazis     : SARC Basis sets
   Taras Petrenko         : DFT Hessian,TD-DFT gradient, ASA, ECA, R-Raman, ABS, FL, XAS/XES, NRVS
   Peter Pinski           : DLPNO-MP2, DLPNO-MP2 Gradient
   Christoph Reimann      : Effective Core Potentials
   Marius Retegan         : Local ZFS, SOC
   Christoph Riplinger    : Optimizer, TS searches, QM/MM, DLPNO-CCSD(T), (RO)-DLPNO pert. Triples
   Tobias Risthaus        : Range-separated hybrids, TD-DFT gradient, RPA, STAB
   Michael Roemelt        : Original ROCIS implementation
   Masaaki Saitow         : Open-shell DLPNO-CCSD energy and density
   Barbara Sandhoefer     : DKH picture change effects
   Avijit Sen             : IP-ROCIS
   Kantharuban Sivalingam : CASSCF convergence, NEVPT2, FIC-MRCI
   Bernardo de Souza      : ESD, SOC TD-DFT
   Georgi Stoychev        : AutoAux, RI-MP2 NMR
   Willem Van den Heuvel  : Paramagnetic NMR
   Boris Wezisla          : Elementary symmetry handling
   Frank Wennmohs         : Technical directorship


 We gratefully acknowledge several colleagues who have allowed us to
 interface, adapt or use parts of their codes:
   Stefan Grimme, W. Hujo, H. Kruse,             : VdW corrections, initial TS optimization,
                  C. Bannwarth                     DFT functionals, gCP, sTDA/sTD-DF
   Ed Valeev, F. Pavosevic, A. Kumar             : LibInt (2-el integral package), F12 methods
   Garnet Chan, S. Sharma, J. Yang, R. Olivares  : DMRG
   Ulf Ekstrom                                   : XCFun DFT Library
   Mihaly Kallay                                 : mrcc  (arbitrary order and MRCC methods)
   Andreas Klamt, Michael Diedenhofen            : otool_cosmo (COSMO solvation model)
   Jiri Pittner, Ondrej Demel                    : Mk-CCSD
   Frank Weinhold                                : gennbo (NPA and NBO analysis)
   Christopher J. Cramer and Donald G. Truhlar   : smd solvation model
   Lars Goerigk                                  : TD-DFT with DH, B97 family of functionals
   V. Asgeirsson, H. Jonsson                     : NEB implementation
   FAccTs GmbH                                   : IRC, NEB, NEB-TS, Multilevel, MM, QM/MM, CI optimization
   S Lehtola, MJT Oliveira, MAL Marques          : LibXC Library


 Your calculation uses the libint2 library for the computation of 2-el integrals
 For citations please refer to: http://libint.valeyev.net

 Your ORCA version has been built with support for libXC version: 4.2.3
 For citations please refer to: https://tddft.org/programs/libxc/

 This ORCA versions uses:
   CBLAS   interface :  Fast vector & matrix operations
   LAPACKE interface :  Fast linear algebra routines
   SCALAPACK package :  Parallel linear algebra routines




***************************************
The coordinates will be read from file: model.xyz
***************************************


----- Orbital basis set information -----
Your calculation utilizes the basis: cc-pVDZ 
       H, B-Ne : Obtained from the ccRepo (grant-hill.group.shef.ac.uk/ccrepo) Feb. 2017
                 T. H. Dunning, Jr., J. Chem. Phys. 90, 1007 (1989)
            He : Obtained from the ccRepo (grant-hill.group.shef.ac.uk/ccrepo) Feb. 2017
                 D. E. Woon, T. H. Dunning, Jr., J. Chem. Phys. 100, 2975 (1994)
  Li-Be, Na-Mg : Obtained from the ccRepo (grant-hill.group.shef.ac.uk/ccrepo) Feb. 2017
                 B. P. Prascher, D. E. Woon, K. A. Peterson, T. H. Dunning, Jr., A. K. Wilson, Theor. Chem. Acc. 128, 69 (2011)
         Al-Ar : Obtained from the ccRepo (grant-hill.group.shef.ac.uk/ccrepo) Feb. 2017
                 D. E. Woon, T. H. Dunning, Jr., J. Chem. Phys. 98, 1358 (1993)
            Ca : Obtained from the Peterson Research Group Website (tyr0.chem.wsu.edu/~kipeters) Feb. 2017
                 J. Koput, K. A. Peterson, J. Phys. Chem. 106, 9595 (2002)
         Sc-Zn : Obtained from the ccRepo (grant-hill.group.shef.ac.uk/ccrepo) Feb. 2017
                 N. B. Balabanov, K. A. Peterson, J. Chem. Phys. 123, 064107 (2005)
                 N. B. Balabanov, K. A. Peterson, J. Chem. Phys. 125, 074110 (2006)
         Ga-Kr : Obtained from the ccRepo (grant-hill.group.shef.ac.uk/ccrepo) Feb. 2017
                 A. K. Wilson, D. E. Woon, K. A. Peterson, T. H. Dunning, Jr., J. Chem. Phys. 110, 7667 (1999)

================================================================================
                                        WARNINGS
                       Please study these warnings very carefully!
================================================================================


WARNING: your system is open-shell and RHF/RKS was chosen
  ===> : WILL SWITCH to UHF/UKS


WARNING: Geometry Optimization
  ===> : Switching off AutoStart
         For restart on a previous wavefunction, please use MOREAD

INFO   : the flag for use of LIBINT has been found!

================================================================================
                                       INPUT FILE
================================================================================
NAME = opt.inp
|  1> ! B3LYP cc-pVDZ OPT
|  2> %pal nprocs 16 end
|  3> *XYZFile 0 2 model.xyz
|  4> 
|  5>                          ****END OF INPUT****
================================================================================

                       *****************************
                       * Geometry Optimization Run *
                       *****************************

Geometry optimization settings:
Update method            Update   .... BFGS
Choice of coordinates    CoordSys .... Z-matrix Internals
Initial Hessian          InHess   .... Almoef's Model

Convergence Tolerances:
Energy Change            TolE     ....  5.0000e-06 Eh
Max. Gradient            TolMAXG  ....  3.0000e-04 Eh/bohr
RMS Gradient             TolRMSG  ....  1.0000e-04 Eh/bohr
Max. Displacement        TolMAXD  ....  4.0000e-03 bohr
RMS Displacement         TolRMSD  ....  2.0000e-03 bohr
Strict Convergence                ....  False
------------------------------------------------------------------------------
                        ORCA OPTIMIZATION COORDINATE SETUP
------------------------------------------------------------------------------

The optimization will be done in new redundant internal coordinates
Making redundant internal coordinates   ...  (new redundants) done
Evaluating the initial hessian          ...  (Almloef) done
Evaluating the coordinates              ...  done
Calculating the B-matrix                .... done
Calculating the G-matrix                .... done
Diagonalizing the G-matrix              .... done
Small eigenvalue found = 7.154e-04
Small eigenvalue found = 2.023e-03
Small eigenvalue found = 7.609e-03
Small eigenvalue found = 1.001e-02
Small eigenvalue found = 1.974e-02
Small eigenvalue found = 2.322e-02
Small eigenvalue found = 2.400e-02
Small eigenvalue found = 2.924e-02
Small eigenvalue found = 2.980e-02
The first mode is                       ....  113
The number of degrees of freedom        ....  135

    -----------------------------------------------------------------
                    Redundant Internal Coordinates


    -----------------------------------------------------------------
         Definition                    Initial Value    Approx d2E/dq
    -----------------------------------------------------------------
      1. B(C   2,C   1)                  1.4111         0.578224   
      2. B(C   3,C   2)                  1.3878         0.629955   
      3. B(C   4,C   0)                  1.4259         0.547693   
      4. B(C   4,C   3)                  1.4019         0.598152   
      5. B(C   5,C   4)                  1.4111         0.578125   
      6. B(C   6,C   1)                  1.4020         0.597867   
      7. B(C   6,C   5)                  1.3876         0.630222   
      8. B(H   7,C   3)                  1.0809         0.372351   
      9. B(H   8,C   6)                  1.0809         0.372365   
     10. B(C   9,C   2)                  1.5127         0.398023   
     11. B(H  10,C   9)                  1.0957         0.352640   
     12. B(H  11,C   9)                  1.0960         0.352269   
     13. B(C  12,C   9)                  1.5275         0.377009   
     14. B(H  13,C  12)                  1.0957         0.352646   
     15. B(H  14,C  12)                  1.0958         0.352550   
     16. B(C  15,C  12)                  1.5301         0.373432   
     17. B(H  16,C  15)                  1.0955         0.352935   
     18. B(H  17,C  15)                  1.0956         0.352755   
     19. B(C  18,C  15)                  1.5274         0.377135   
     20. B(H  19,C  18)                  1.0934         0.355623   
     21. B(H  20,C  18)                  1.0934         0.355570   
     22. B(C  21,C   5)                  1.5128         0.397870   
     23. B(H  22,C  21)                  1.0959         0.352417   
     24. B(H  23,C  21)                  1.0958         0.352455   
     25. B(C  24,C  21)                  1.5273         0.377284   
     26. B(H  25,C  24)                  1.0958         0.352524   
     27. B(H  26,C  24)                  1.0957         0.352615   
     28. B(C  27,C  24)                  1.5300         0.373552   
     29. B(H  28,C  27)                  1.0956         0.352759   
     30. B(H  29,C  27)                  1.0955         0.352927   
     31. B(C  30,C  27)                  1.5275         0.377029   
     32. B(H  31,C  30)                  1.0934         0.355592   
     33. B(H  32,C  30)                  1.0934         0.355603   
     34. B(C  33,C   0)                  1.2038         1.238027   
     35. B(H  34,C  18)                  1.0916         0.357963   
     36. B(H  35,C  30)                  1.0916         0.357977   
     37. B(C  36,C  33)                  1.4300         0.539413   
     38. B(C  37,C  36)                  1.4111         0.578224   
     39. B(C  38,C  37)                  1.3878         0.629955   
     40. B(C  39,C  38)                  1.4019         0.598152   
     41. B(C  40,C  39)                  1.4111         0.578125   
     42. B(C  41,C  40)                  1.3876         0.630222   
     43. B(C  41,C  36)                  1.4020         0.597867   
     44. B(H  42,C  39)                  1.0622         0.398769   
     45. B(H  43,C  40)                  1.0271         0.453781   
     46. B(H  44,C  37)                  1.0271         0.453781   
     47. B(H  45,C  41)                  1.0785         0.375649   
     48. B(H  46,C  38)                  1.0785         0.375649   
     49. L(C   4,C   0,C  33,C   3, 1) 179.4466         0.481365   
     50. L(C   4,C   0,C  33,C   3, 2) 179.7268         0.481365   
     51. A(C   2,C   1,C   6)          120.2893         0.425877   
     52. A(C   1,C   2,C   3)          117.3003         0.429887   
     53. A(C   3,C   2,C   9)          122.7248         0.402258   
     54. A(C   1,C   2,C   9)          119.9748         0.396241   
     55. A(C   2,C   3,C   4)          122.4149         0.432512   
     56. A(C   4,C   3,H   7)          117.6841         0.352764   
     57. A(C   2,C   3,H   7)          119.9011         0.355875   
     58. A(C   0,C   4,C   5)          120.8342         0.419247   
     59. A(C   0,C   4,C   3)          118.8863         0.421802   
     60. A(C   3,C   4,C   5)          120.2795         0.425901   
     61. A(C   4,C   5,C   6)          117.3134         0.429907   
     62. A(C   4,C   5,C  21)          119.9659         0.396202   
     63. A(C   6,C   5,C  21)          122.7207         0.402260   
     64. A(C   5,C   6,H   8)          119.8973         0.355903   
     65. A(C   1,C   6,H   8)          117.7000         0.352738   
     66. A(C   1,C   6,C   5)          122.4027         0.432508   
     67. A(H  10,C   9,C  12)          109.1309         0.323692   
     68. A(H  11,C   9,C  12)          109.0822         0.323636   
     69. A(C   2,C   9,C  12)          116.8036         0.367893   
     70. A(C   2,C   9,H  10)          108.2443         0.326591   
     71. A(C   2,C   9,H  11)          108.2119         0.326534   
     72. A(H  10,C   9,H  11)          104.6885         0.288888   
     73. A(H  14,C  12,C  15)          108.9438         0.323173   
     74. A(H  13,C  12,C  15)          109.0293         0.323187   
     75. A(C   9,C  12,C  15)          112.5404         0.363896   
     76. A(H  13,C  12,H  14)          106.3186         0.288925   
     77. A(C   9,C  12,H  14)          109.9290         0.323678   
     78. A(C   9,C  12,H  13)          109.8805         0.323693   
     79. A(C  12,C  15,C  18)          113.2208         0.363917   
     80. A(H  16,C  15,H  17)          106.0313         0.288988   
     81. A(C  12,C  15,H  17)          109.2541         0.323204   
     82. A(C  12,C  15,H  16)          109.2016         0.323231   
     83. A(H  16,C  15,C  18)          109.4449         0.323754   
     84. A(H  17,C  15,C  18)          109.4356         0.323727   
     85. A(H  19,C  18,H  34)          107.6746         0.289998   
     86. A(C  15,C  18,H  34)          111.3061         0.324507   
     87. A(H  20,C  18,H  34)          107.6706         0.289991   
     88. A(H  19,C  18,H  20)          107.4850         0.289693   
     89. A(C  15,C  18,H  20)          111.2520         0.324150   
     90. A(C  15,C  18,H  19)          111.2630         0.324158   
     91. A(H  23,C  21,C  24)          109.1286         0.323703   
     92. A(H  22,C  21,C  24)          109.1467         0.323697   
     93. A(C   5,C  21,C  24)          116.8158         0.367915   
     94. A(H  22,C  21,H  23)          104.7028         0.288883   
     95. A(C   5,C  21,H  23)          108.1602         0.326542   
     96. A(C   5,C  21,H  22)          108.2070         0.326536   
     97. A(H  26,C  24,C  27)          109.0073         0.323199   
     98. A(H  25,C  24,C  27)          108.9616         0.323186   
     99. A(C  21,C  24,C  27)          112.5497         0.363962   
    100. A(H  25,C  24,H  26)          106.3172         0.288918   
    101. A(C  21,C  24,H  26)          109.8944         0.323727   
    102. A(C  21,C  24,H  25)          109.9108         0.323713   
    103. A(H  29,C  27,C  30)          109.4367         0.323738   
    104. A(H  28,C  27,C  30)          109.4295         0.323713   
    105. A(C  24,C  27,C  30)          113.2199         0.363920   
    106. A(H  28,C  27,H  29)          106.0224         0.288988   
    107. A(C  24,C  27,H  29)          109.2068         0.323246   
    108. A(C  24,C  27,H  28)          109.2724         0.323221   
    109. A(H  31,C  30,H  32)          107.4879         0.289693   
    110. A(C  27,C  30,H  32)          111.2603         0.324140   
    111. A(C  27,C  30,H  31)          111.2574         0.324138   
    112. A(H  32,C  30,H  35)          107.6732         0.289997   
    113. A(H  31,C  30,H  35)          107.6733         0.289996   
    114. A(C  27,C  30,H  35)          111.2996         0.324494   
    115. L(C   0,C  33,C  36,C  41, 2) 179.7406         0.480015   
    116. L(C   0,C  33,C  36,C  41, 1) 177.3669         0.480015   
    117. A(C  37,C  36,C  41)          120.2893         0.425877   
    118. A(C  33,C  36,C  41)          120.9616         0.420621   
    119. A(C  33,C  36,C  37)          118.7492         0.418123   
    120. A(C  38,C  37,H  44)          121.4707         0.368093   
    121. A(C  36,C  37,H  44)          121.2289         0.362733   
    122. A(C  36,C  37,C  38)          117.3003         0.429887   
    123. A(C  39,C  38,H  46)          119.8152         0.353291   
    124. A(C  37,C  38,H  46)          117.7699         0.356408   
    125. A(C  37,C  38,C  39)          122.4149         0.432512   
    126. A(C  40,C  39,H  42)          118.7545         0.354832   
    127. A(C  38,C  39,H  42)          120.9660         0.356889   
    128. A(C  38,C  39,C  40)          120.2795         0.425901   
    129. A(C  41,C  40,H  43)          121.4630         0.368120   
    130. A(C  39,C  40,H  43)          121.2236         0.362722   
    131. A(C  39,C  40,C  41)          117.3134         0.429907   
    132. A(C  40,C  41,H  45)          117.7776         0.356434   
    133. A(C  36,C  41,H  45)          119.8197         0.353263   
    134. A(C  36,C  41,C  40)          122.4027         0.432508   
    135. D(C   9,C   2,C   1,C   6)    179.8417         0.020845   
    136. D(C   3,C   2,C   1,C   6)     -0.0321         0.020845   
    137. D(C   4,C   3,C   2,C   9)   -179.8492         0.027515   
    138. D(H   7,C   3,C   2,C   9)      0.1704         0.027515   
    139. D(C   4,C   3,C   2,C   1)      0.0208         0.027515   
    140. D(H   7,C   3,C   2,C   1)   -179.9596         0.027515   
    141. D(C   5,C   4,C   3,C   2)     -0.0119         0.024657   
    142. D(C   0,C   4,C   3,H   7)     -0.0331         0.024657   
    143. D(C   5,C   4,C   3,H   7)    179.9689         0.024657   
    144. D(C   0,C   4,C   3,C   2)    179.9861         0.024657   
    145. D(C  21,C   5,C   4,C   3)   -179.9325         0.022956   
    146. D(C   6,C   5,C   4,C   0)   -179.9846         0.022956   
    147. D(C   6,C   5,C   4,C   3)      0.0135         0.022956   
    148. D(C  21,C   5,C   4,C   0)      0.0695         0.022956   
    149. D(C   5,C   6,C   1,C   2)      0.0360         0.022349   
    150. D(H   8,C   6,C   1,C   2)   -179.9967         0.022349   
    151. D(H   8,C   6,C   5,C  21)     -0.0479         0.027540   
    152. D(C   1,C   6,C   5,C  21)    179.9186         0.027540   
    153. D(C   1,C   6,C   5,C   4)     -0.0258         0.027540   
    154. D(H   8,C   6,C   5,C   4)   -179.9923         0.027540   
    155. D(C  12,C   9,C   2,C   3)     -1.5594         0.011762   
    156. D(H  11,C   9,C   2,C   3)    121.9324         0.011762   
    157. D(C  12,C   9,C   2,C   1)    178.5739         0.011762   
    158. D(H  11,C   9,C   2,C   1)    -57.9343         0.011762   
    159. D(H  10,C   9,C   2,C   3)   -125.1429         0.011762   
    160. D(H  10,C   9,C   2,C   1)     54.9904         0.011762   
    161. D(H  14,C  12,C   9,C   2)     58.4862         0.011338   
    162. D(H  13,C  12,C   9,H  11)    178.7674         0.011338   
    163. D(H  13,C  12,C   9,C   2)    -58.1884         0.011338   
    164. D(H  14,C  12,C   9,H  10)   -178.3858         0.011338   
    165. D(H  13,C  12,C   9,H  10)     64.9395         0.011338   
    166. D(C  15,C  12,C   9,H  10)    -56.7606         0.011338   
    167. D(C  15,C  12,C   9,H  11)     57.0673         0.011338   
    168. D(H  14,C  12,C   9,H  11)    -64.5579         0.011338   
    169. D(C  15,C  12,C   9,C   2)   -179.8885         0.011338   
    170. D(C  18,C  15,C  12,H  14)    -57.6207         0.011136   
    171. D(C  18,C  15,C  12,C   9)   -179.8043         0.011136   
    172. D(H  17,C  15,C  12,H  14)   -179.8554         0.011136   
    173. D(H  17,C  15,C  12,H  13)    -64.2214         0.011136   
    174. D(H  17,C  15,C  12,C   9)     57.9609         0.011136   
    175. D(H  16,C  15,C  12,H  13)   -179.7782         0.011136   
    176. D(H  16,C  15,C  12,H  14)     64.5878         0.011136   
    177. D(H  16,C  15,C  12,C   9)    -57.5958         0.011136   
    178. D(C  18,C  15,C  12,H  13)     58.0133         0.011136   
    179. D(H  34,C  18,C  15,H  17)    -57.7452         0.011345   
    180. D(H  34,C  18,C  15,H  16)     58.0487         0.011345   
    181. D(H  34,C  18,C  15,C  12)   -179.8787         0.011345   
    182. D(H  20,C  18,C  15,H  17)     62.3387         0.011345   
    183. D(H  20,C  18,C  15,H  16)    178.1326         0.011345   
    184. D(H  20,C  18,C  15,C  12)    -59.7947         0.011345   
    185. D(H  19,C  18,C  15,H  17)   -177.8416         0.011345   
    186. D(H  19,C  18,C  15,H  16)    -62.0478         0.011345   
    187. D(H  19,C  18,C  15,C  12)     60.0249         0.011345   
    188. D(C  24,C  21,C   5,C   4)    179.8799         0.011754   
    189. D(H  23,C  21,C   5,C   6)   -123.5830         0.011754   
    190. D(H  23,C  21,C   5,C   4)     56.3599         0.011754   
    191. D(H  22,C  21,C   5,C   6)    123.5198         0.011754   
    192. D(C  24,C  21,C   5,C   6)     -0.0631         0.011754   
    193. D(H  22,C  21,C   5,C   4)    -56.5373         0.011754   
    194. D(H  26,C  24,C  21,C   5)     58.4800         0.011353   
    195. D(H  25,C  24,C  21,H  23)     64.8315         0.011353   
    196. D(H  25,C  24,C  21,H  22)    178.7095         0.011353   
    197. D(H  25,C  24,C  21,C   5)    -58.1905         0.011353   
    198. D(C  27,C  24,C  21,H  23)    -56.8099         0.011353   
    199. D(C  27,C  24,C  21,H  22)     57.0681         0.011353   
    200. D(C  27,C  24,C  21,C   5)   -179.8318         0.011353   
    201. D(H  26,C  24,C  21,H  23)   -178.4980         0.011353   
    202. D(H  26,C  24,C  21,H  22)    -64.6200         0.011353   
    203. D(C  30,C  27,C  24,H  26)    -57.7273         0.011142   
    204. D(C  30,C  27,C  24,H  25)     57.9028         0.011142   
    205. D(C  30,C  27,C  24,C  21)   -179.9180         0.011142   
    206. D(H  29,C  27,C  24,H  26)   -179.9285         0.011142   
    207. D(H  29,C  27,C  24,H  25)    -64.2984         0.011142   
    208. D(H  29,C  27,C  24,C  21)     57.8808         0.011142   
    209. D(H  28,C  27,C  24,H  26)     64.5123         0.011142   
    210. D(H  28,C  27,C  24,H  25)   -179.8576         0.011142   
    211. D(H  28,C  27,C  24,C  21)    -57.6784         0.011142   
    212. D(H  35,C  30,C  27,H  29)    -57.7990         0.011339   
    213. D(H  35,C  30,C  27,H  28)     57.9762         0.011339   
    214. D(H  35,C  30,C  27,C  24)   -179.8718         0.011339   
    215. D(H  32,C  30,C  27,H  29)     62.2893         0.011339   
    216. D(H  32,C  30,C  27,H  28)    178.0645         0.011339   
    217. D(H  32,C  30,C  27,C  24)    -59.7835         0.011339   
    218. D(H  31,C  30,C  27,H  29)   -177.8855         0.011339   
    219. D(H  31,C  30,C  27,H  28)    -62.1104         0.011339   
    220. D(H  31,C  30,C  27,C  24)     60.0416         0.011339   
    221. D(C  41,C  36,C   4,C   5)      0.0584         0.001500   
    222. D(C  41,C  36,C   4,C   3)   -179.9884         0.001500   
    223. D(C  37,C  36,C   4,C   5)    179.9905         0.001500   
    224. D(C  37,C  36,C   4,C   3)     -0.0562         0.001500   
    225. D(H  44,C  37,C  36,C  41)    179.9827         0.022964   
    226. D(H  44,C  37,C  36,C  33)      0.0047         0.022964   
    227. D(C  38,C  37,C  36,C  41)     -0.0321         0.022964   
    228. D(C  38,C  37,C  36,C  33)    179.9899         0.022964   
    229. D(H  46,C  38,C  37,H  44)      0.0011         0.027515   
    230. D(H  46,C  38,C  37,C  36)   -179.9841         0.027515   
    231. D(C  39,C  38,C  37,H  44)   -179.9940         0.027515   
    232. D(C  39,C  38,C  37,C  36)      0.0208         0.027515   
    233. D(H  42,C  39,C  38,H  46)     -0.0059         0.024657   
    234. D(H  42,C  39,C  38,C  37)    179.9891         0.024657   
    235. D(C  40,C  39,C  38,H  46)    179.9931         0.024657   
    236. D(C  40,C  39,C  38,C  37)     -0.0119         0.024657   
    237. D(H  43,C  40,C  39,H  42)      0.0047         0.022956   
    238. D(H  43,C  40,C  39,C  38)   -179.9943         0.022956   
    239. D(C  41,C  40,C  39,H  42)   -179.9875         0.022956   
    240. D(C  41,C  40,C  39,C  38)      0.0135         0.022956   
    241. D(H  45,C  41,C  40,H  43)      0.0011         0.027540   
    242. D(H  45,C  41,C  40,C  39)    179.9933         0.027540   
    243. D(C  36,C  41,C  40,H  43)    179.9820         0.027540   
    244. D(C  36,C  41,C  40,C  39)     -0.0258         0.027540   
    245. D(H  45,C  41,C  36,C  37)   -179.9834         0.024632   
    246. D(H  45,C  41,C  36,C  33)     -0.0059         0.024632   
    247. D(C  40,C  41,C  36,C  37)      0.0360         0.024632   
    248. D(C  40,C  41,C  36,C  33)   -179.9865         0.024632   
    -----------------------------------------------------------------

Number of atoms                         .... 47
Number of degrees of freedom            .... 248

         *************************************************************
         *                GEOMETRY OPTIMIZATION CYCLE   1            *
         *************************************************************
---------------------------------
CARTESIAN COORDINATES (ANGSTROEM)
---------------------------------
  C      2.818573   -0.051745    0.000063
  C     -1.393659   -0.000000    0.000000
  C     -0.714960   -1.237147    0.000202
  C      0.672358   -1.202059   -0.000021
  C      1.393659   -0.000000   -0.000000
  C      0.714822    1.237125    0.000000
  C     -0.672385    1.202227    0.000269
  H      1.234707   -2.125148   -0.000540
  H     -1.234543    2.125420    0.000154
  C     -1.500316   -2.530051    0.003530
  H     -2.190436   -2.514394   -0.847378
  H     -2.148685   -2.534708    0.887147
  C     -0.693094   -3.826402   -0.030390
  H     -0.055703   -3.845232   -0.921414
  H     -0.018245   -3.868841    0.831866
  C     -1.582505   -5.071453   -0.026825
  H     -2.223927   -5.053486    0.861044
  H     -2.257870   -5.035471   -0.888769
  C     -0.790682   -6.377281   -0.055735
  H     -0.133172   -6.461644    0.813805
  H     -0.163563   -6.440829   -0.949216
  C      1.500315    2.530072   -0.001521
  H      2.169550    2.525160    0.866254
  H      2.169751    2.521989   -0.869080
  C      0.693122    3.826647   -0.004282
  H      0.035552    3.854994   -0.880382
  H      0.038107    3.859943    0.873468
  C      1.582598    5.071538   -0.009791
  H      2.244242    5.047094    0.863125
  H      2.238133    5.042205   -0.886993
  C      0.790535    6.377630   -0.010598
  H      0.152401    6.454821    0.873944
  H      0.143909    6.448638   -0.889462
  C      4.021148   -0.107044   -0.002824
  H     -1.454567   -7.243820   -0.054558
  H      1.454541    7.244042   -0.016837
  C      5.451148   -0.107044   -0.002824
  C      6.129847   -1.344191   -0.002622
  C      7.517165   -1.309103   -0.002845
  C      8.238465   -0.107044   -0.002824
  C      7.559629    1.130082   -0.002824
  C      6.172422    1.095183   -0.002556
  H      9.300699   -0.107044   -0.002824
  H      8.073497    2.019342   -0.002897
  H      5.615979   -2.233451   -0.002550
  H      5.645960    2.036451   -0.002442
  H      8.043626   -2.250371   -0.002959

----------------------------
CARTESIAN COORDINATES (A.U.)
----------------------------
  NO LB      ZA    FRAG     MASS         X           Y           Z
   0 C     6.0000    0    12.011    5.326330   -0.097783    0.000119
   1 C     6.0000    0    12.011   -2.633633   -0.000000    0.000000
   2 C     6.0000    0    12.011   -1.351079   -2.337870    0.000382
   3 C     6.0000    0    12.011    1.270573   -2.271563   -0.000039
   4 C     6.0000    0    12.011    2.633633   -0.000000   -0.000000
   5 C     6.0000    0    12.011    1.350819    2.337828    0.000000
   6 C     6.0000    0    12.011   -1.270623    2.271879    0.000508
   7 H     1.0000    0     1.008    2.333258   -4.015948   -0.001021
   8 H     1.0000    0     1.008   -2.332949    4.016462    0.000290
   9 C     6.0000    0    12.011   -2.835187   -4.781103    0.006671
  10 H     1.0000    0     1.008   -4.139324   -4.751516   -1.601312
  11 H     1.0000    0     1.008   -4.060427   -4.789904    1.676465
  12 C     6.0000    0    12.011   -1.309757   -7.230852   -0.057429
  13 H     1.0000    0     1.008   -0.105264   -7.266436   -1.741220
  14 H     1.0000    0     1.008   -0.034478   -7.311051    1.572000
  15 C     6.0000    0    12.011   -2.990501   -9.583658   -0.050692
  16 H     1.0000    0     1.008   -4.202614   -9.549706    1.627138
  17 H     1.0000    0     1.008   -4.266757   -9.515660   -1.679530
  18 C     6.0000    0    12.011   -1.494173  -12.051315   -0.105323
  19 H     1.0000    0     1.008   -0.251658  -12.210737    1.537868
  20 H     1.0000    0     1.008   -0.309090  -12.171404   -1.793758
  21 C     6.0000    0    12.011    2.835185    4.781143   -0.002875
  22 H     1.0000    0     1.008    4.099855    4.771862    1.636982
  23 H     1.0000    0     1.008    4.100236    4.765869   -1.642323
  24 C     6.0000    0    12.011    1.309810    7.231315   -0.008092
  25 H     1.0000    0     1.008    0.067184    7.284884   -1.663680
  26 H     1.0000    0     1.008    0.072012    7.294236    1.650615
  27 C     6.0000    0    12.011    2.990676    9.583818   -0.018502
  28 H     1.0000    0     1.008    4.241004    9.537626    1.631069
  29 H     1.0000    0     1.008    4.229459    9.528387   -1.676174
  30 C     6.0000    0    12.011    1.493895   12.051974   -0.020027
  31 H     1.0000    0     1.008    0.287997   12.197844    1.651514
  32 H     1.0000    0     1.008    0.271949   12.186160   -1.680839
  33 C     6.0000    0    12.011    7.598868   -0.202283   -0.005337
  34 H     1.0000    0     1.008   -2.748734  -13.688836   -0.103100
  35 H     1.0000    0     1.008    2.748684   13.689255   -0.031817
  36 C     6.0000    0    12.011   10.301176   -0.202283   -0.005337
  37 C     6.0000    0    12.011   11.583731   -2.540153   -0.004956
  38 C     6.0000    0    12.011   14.205383   -2.473846   -0.005377
  39 C     6.0000    0    12.011   15.568443   -0.202283   -0.005337
  40 C     6.0000    0    12.011   14.285629    2.135545   -0.005337
  41 C     6.0000    0    12.011   11.664186    2.069596   -0.004830
  42 H     1.0000    0     1.008   17.575775   -0.202283   -0.005337
  43 H     1.0000    0     1.008   15.256698    3.816003   -0.005475
  44 H     1.0000    0     1.008   10.612662   -4.220611   -0.004818
  45 H     1.0000    0     1.008   10.669319    3.848334   -0.004615
  46 H     1.0000    0     1.008   15.200250   -4.252584   -0.005591

--------------------------------
INTERNAL COORDINATES (ANGSTROEM)
--------------------------------
 C      0   0   0     0.000000000000     0.00000000     0.00000000
 C      1   0   0     4.212549303449     0.00000000     0.00000000
 C      2   1   0     1.411086630355    60.54702872     0.00000000
 C      3   2   1     1.387761921145   117.30034507     0.00000000
 C      4   3   2     1.401863367215   122.41485361     0.00000000
 C      5   4   3     1.411133484181   120.27947131     0.00000000
 C      6   5   4     1.387646348732   117.31337556     0.00000000
 H      4   3   2     1.080892866064   119.90108961   180.04044054
 H      7   6   5     1.080883270791   119.89727682   180.00769160
 C      3   2   1     1.512744362226   119.97477239   179.86285324
 H     10   3   2     1.095698448783   108.24426074    54.99040003
 H     10   3   2     1.095984881354   108.21194884   302.06568299
 C     10   3   2     1.527509326982   116.80360948   178.57389876
 H     13  10   3     1.095693640321   109.88046138   301.81157965
 H     13  10   3     1.095768265280   109.92897162    58.48624710
 C     13  10   3     1.530103932895   112.54043221   180.11146270
 H     16  13  10     1.095470911171   109.20155269   302.40417200
 H     16  13  10     1.095609703510   109.25405865    57.96093191
 C     16  13  10     1.527418097630   113.22077323   180.19569149
 H     19  16  13     1.093405664969   111.26298580    60.02490208
 H     19  16  13     1.093446446637   111.25201123   300.20526423
 C      6   5   4     1.512848772823   119.96591851   180.06749758
 H     22   6   5     1.095870929166   108.20701139   303.46272899
 H     22   6   5     1.095841271800   108.16016250    56.35991179
 C     22   6   5     1.527310225573   116.81581972   179.87986183
 H     25  22   6     1.095787989463   109.91080342   301.80953662
 H     25  22   6     1.095717635561   109.89438900    58.48003765
 C     25  22   6     1.530016854917   112.54969241   180.16815767
 H     28  25  22     1.095606287083   109.27241889   302.32164844
 H     28  25  22     1.095477307357   109.20676447    57.88084990
 C     28  25  22     1.527494705747   113.21991705   180.08204778
 H     31  28  25     1.093428998082   111.25739266    60.04162402
 H     31  28  25     1.093420889088   111.26026023   300.21647247
 C      1   2   3     1.203849298024   178.06603770     4.11005007
 H     19  16  13     1.091620128544   111.30614120   180.12133626
 H     31  28  25     1.091609954224   111.29959312   180.12816985
 C     34   1   5     1.430000000000   177.36359726   168.78532916
 C     37  34   1     1.411086630355   118.74916400   177.00159060
 C     38  37  34     1.387761911149   117.30034506   179.98991456
 C     39  38  37     1.401863367215   122.41485363     0.00000000
 C     40  39  38     1.411133484181   120.27947131     0.00000000
 C     41  40  39     1.387646348732   117.31337556     0.00000000
 H     40  39  38     1.062234050000   120.96603716   179.98907393
 H     41  40  39     1.027055675042   121.22362018   180.00572024
 H     38  37  34     1.027055688704   121.22894751     0.00000000
 H     42  41  40     1.078492732490   117.77764362   179.99330825
 H     39  38  37     1.078492737371   117.76994235   180.01594079

---------------------------
INTERNAL COORDINATES (A.U.)
---------------------------
 C      0   0   0     0.000000000000     0.00000000     0.00000000
 C      1   0   0     7.960564509160     0.00000000     0.00000000
 C      2   1   0     2.666567282608    60.54702872     0.00000000
 C      3   2   1     2.622489970049   117.30034507     0.00000000
 C      4   3   2     2.649137841212   122.41485361     0.00000000
 C      5   4   3     2.666655823508   120.27947131     0.00000000
 C      6   5   4     2.622271569839   117.31337556     0.00000000
 H      4   3   2     2.042591496970   119.90108961   180.04044054
 H      7   6   5     2.042573364532   119.89727682   180.00769160
 C      3   2   1     2.858672555241   119.97477239   179.86285324
 H     10   3   2     2.070569993563   108.24426074    54.99040003
 H     10   3   2     2.071111272677   108.21194884   302.06568299
 C     10   3   2     2.886574295006   116.80360948   178.57389876
 H     13  10   3     2.070560906887   109.88046138   301.81157965
 H     13  10   3     2.070701927621   109.92897162    58.48624710
 C     13  10   3     2.891477389607   112.54043221   180.11146270
 H     16  13  10     2.070140009791   109.20155269   302.40417200
 H     16  13  10     2.070402289301   109.25405865    57.96093191
 C     16  13  10     2.886401896516   113.22077323   180.19569149
 H     19  16  13     2.066237260069   111.26298580    60.02490208
 H     19  16  13     2.066314326254   111.25201123   300.20526423
 C      6   5   4     2.858869862675   119.96591851   180.06749758
 H     22   6   5     2.070895934250   108.20701139   303.46272899
 H     22   6   5     2.070839889951   108.16016250    56.35991179
 C     22   6   5     2.886198047870   116.81581972   179.87986183
 H     25  22   6     2.070739200926   109.91080342   301.80953662
 H     25  22   6     2.070606251318   109.89438900    58.48003765
 C     25  22   6     2.891312836077   112.54969241   180.16815767
 H     28  25  22     2.070395833189   109.27241889   302.32164844
 H     28  25  22     2.070152096830   109.20676447    57.88084990
 C     28  25  22     2.886546664876   113.21991705   180.08204778
 H     31  28  25     2.066281353263   111.25739266    60.04162402
 H     31  28  25     2.066266029484   111.26026023   300.21647247
 C      1   2   3     2.274945479778   178.06603770     4.11005007
 H     19  16  13     2.062863085225   111.30614120   180.12133626
 H     31  28  25     2.062843858547   111.29959312   180.12816985
 C     34   1   5     2.702308371507   177.36359726   168.78532916
 C     37  34   1     2.666567282608   118.74916400   177.00159060
 C     38  37  34     2.622489951158   117.30034506   179.98991456
 C     39  38  37     2.649137841212   122.41485363     0.00000000
 C     40  39  38     2.666655823508   120.27947131     0.00000000
 C     41  40  39     2.622271569839   117.31337556     0.00000000
 H     40  39  38     2.007331444626   120.96603716   179.98907393
 H     41  40  39     1.940853950119   121.22362018   180.00572024
 H     38  37  34     1.940853975936   121.22894751     0.00000000
 H     42  41  40     2.038055901830   117.77764362   179.99330825
 H     39  38  37     2.038055911055   117.76994235   180.01594079

---------------------
BASIS SET INFORMATION
---------------------
There are 2 groups of distinct atoms

 Group   1 Type C   : 17s4p1d contracted to 3s2p1d pattern {881/31/1}
 Group   2 Type H   : 4s1p contracted to 2s1p pattern {31/1}

Atom   0C    basis set group =>   1
Atom   1C    basis set group =>   1
Atom   2C    basis set group =>   1
Atom   3C    basis set group =>   1
Atom   4C    basis set group =>   1
Atom   5C    basis set group =>   1
Atom   6C    basis set group =>   1
Atom   7H    basis set group =>   2
Atom   8H    basis set group =>   2
Atom   9C    basis set group =>   1
Atom  10H    basis set group =>   2
Atom  11H    basis set group =>   2
Atom  12C    basis set group =>   1
Atom  13H    basis set group =>   2
Atom  14H    basis set group =>   2
Atom  15C    basis set group =>   1
Atom  16H    basis set group =>   2
Atom  17H    basis set group =>   2
Atom  18C    basis set group =>   1
Atom  19H    basis set group =>   2
Atom  20H    basis set group =>   2
Atom  21C    basis set group =>   1
Atom  22H    basis set group =>   2
Atom  23H    basis set group =>   2
Atom  24C    basis set group =>   1
Atom  25H    basis set group =>   2
Atom  26H    basis set group =>   2
Atom  27C    basis set group =>   1
Atom  28H    basis set group =>   2
Atom  29H    basis set group =>   2
Atom  30C    basis set group =>   1
Atom  31H    basis set group =>   2
Atom  32H    basis set group =>   2
Atom  33C    basis set group =>   1
Atom  34H    basis set group =>   2
Atom  35H    basis set group =>   2
Atom  36C    basis set group =>   1
Atom  37C    basis set group =>   1
Atom  38C    basis set group =>   1
Atom  39C    basis set group =>   1
Atom  40C    basis set group =>   1
Atom  41C    basis set group =>   1
Atom  42H    basis set group =>   2
Atom  43H    basis set group =>   2
Atom  44H    basis set group =>   2
Atom  45H    basis set group =>   2
Atom  46H    basis set group =>   2


           ************************************************************
           *        Program running with 16 parallel MPI-processes    *
           *              working on a common directory               *
           ************************************************************
------------------------------------------------------------------------------
                           ORCA GTO INTEGRAL CALCULATION
------------------------------------------------------------------------------

                         BASIS SET STATISTICS AND STARTUP INFO

 # of primitive gaussian shells          ...  609
 # of primitive gaussian functions       ...  923
 # of contracted shells                  ...  207
 # of contracted basis functions         ...  433
 Highest angular momentum                ...    2
 Maximum contraction depth               ...    8
 Integral package used                   ... LIBINT
 Integral threshhold            Thresh   ...  2.500e-11
 Primitive cut-off              TCut     ...  2.500e-12


------------------------------ INTEGRAL EVALUATION ----------------------------


 * One electron integrals 
 Pre-screening matrix                    ... done
 Shell pair data                         ... done (   0.008 sec)



           ************************************************************
           *        Program running with 16 parallel MPI-processes    *
           *              working on a common directory               *
           ************************************************************
-------------------------------------------------------------------------------
                                 ORCA SCF
-------------------------------------------------------------------------------

------------
SCF SETTINGS
------------
Hamiltonian:
 Density Functional     Method          .... DFT(GTOs)
 Exchange Functional    Exchange        .... B88
   X-Alpha parameter    XAlpha          ....  0.666667
   Becke's b parameter  XBeta           ....  0.004200
 Correlation Functional Correlation     .... LYP
 LDA part of GGA corr.  LDAOpt          .... VWN-5
 Gradients option       PostSCFGGA      .... off
 Hybrid DFT is turned on
   Fraction HF Exchange ScalHFX         ....  0.200000
   Scaling of DF-GGA-X  ScalDFX         ....  0.720000
   Scaling of DF-GGA-C  ScalDFC         ....  0.810000
   Scaling of DF-LDA-C  ScalLDAC        ....  1.000000
   Perturbative correction              ....  0.000000
   Density functional embedding theory  .... OFF
   NL short-range parameter             ....  4.800000


General Settings:
 Integral files         IntName         .... opt
 Hartree-Fock type      HFTyp           .... UHF
 Total Charge           Charge          ....    0
 Multiplicity           Mult            ....    2
 Number of Electrons    NEL             ....  157
 Basis Dimension        Dim             ....  433
 Nuclear Repulsion      ENuc            ....   1533.1744309820 Eh

Convergence Acceleration:
 DIIS                   CNVDIIS         .... on
   Start iteration      DIISMaxIt       ....    12
   Startup error        DIISStart       ....  0.200000
   # of expansion vecs  DIISMaxEq       ....     5
   Bias factor          DIISBfac        ....   1.050
   Max. coefficient     DIISMaxC        ....  10.000
 Newton-Raphson         CNVNR           .... off
 SOSCF                  CNVSOSCF        .... off
 Level Shifting         CNVShift        .... on
   Level shift para.    LevelShift      ....    0.2500
   Turn off err/grad.   ShiftErr        ....    0.0010
 Zerner damping         CNVZerner       .... off
 Static damping         CNVDamp         .... on
   Fraction old density DampFac         ....    0.7000
   Max. Damping (<1)    DampMax         ....    0.9800
   Min. Damping (>=0)   DampMin         ....    0.0000
   Turn off err/grad.   DampErr         ....    0.1000
 Fernandez-Rico         CNVRico         .... off

SCF Procedure:
 Maximum # iterations   MaxIter         ....   125
 SCF integral mode      SCFMode         .... Direct
   Integral package                     .... LIBINT
 Reset frequency        DirectResetFreq ....    20
 Integral Threshold     Thresh          ....  2.500e-11 Eh
 Primitive CutOff       TCut            ....  2.500e-12 Eh

Convergence Tolerance:
 Convergence Check Mode ConvCheckMode   .... Total+1el-Energy
 Convergence forced     ConvForced      .... 0
 Energy Change          TolE            ....  1.000e-08 Eh
 1-El. energy change                    ....  1.000e-05 Eh
 DIIS Error             TolErr          ....  5.000e-07


Diagonalization of the overlap matrix:
Smallest eigenvalue                        ... 5.027e-05
Time for diagonalization                   ...    0.037 sec
Threshold for overlap eigenvalues          ... 1.000e-08
Number of eigenvalues below threshold      ... 0
Time for construction of square roots      ...    0.051 sec
Total time needed                          ...    0.089 sec

-------------------
DFT GRID GENERATION
-------------------

General Integration Accuracy     IntAcc      ...  4.340
Radial Grid Type                 RadialGrid  ... Gauss-Chebyshev
Angular Grid (max. acc.)         AngularGrid ... Lebedev-110
Angular grid pruning method      GridPruning ... 3 (G Style)
Weight generation scheme         WeightScheme... Becke
Basis function cutoff            BFCut       ...    1.0000e-11
Integration weight cutoff        WCut        ...    1.0000e-14
Grids for H and He will be reduced by one unit

# of grid points (after initial pruning)     ...  56282 (   0.0 sec)
# of grid points (after weights+screening)   ...  50268 (   0.1 sec)
nearest neighbour list constructed           ...    0.0 sec
Grid point re-assignment to atoms done       ...    0.0 sec
Grid point division into batches done        ...    0.1 sec
Reduced shell lists constructed in    0.2 sec

Total number of grid points                  ...    50268
Total number of batches                      ...      809
Average number of points per batch           ...       62
Average number of grid points per atom       ...     1070
Average number of shells per batch           ...   109.19 (52.75%)
Average number of basis functions per batch  ...   217.12 (50.14%)
Average number of large shells per batch     ...    69.19 (63.37%)
Average number of large basis fcns per batch ...   143.92 (66.29%)
Maximum spatial batch extension              ...  12.16,  4.76, 18.54 au
Average spatial batch extension              ...   0.14,  0.14,  0.24 au

Time for grid setup =    0.376 sec

------------------------------
INITIAL GUESS: MODEL POTENTIAL
------------------------------
Loading Hartree-Fock densities                     ... done
Calculating cut-offs                               ... done
Setting up the integral package                    ... done
Initializing the effective Hamiltonian             ... done
Starting the Coulomb interaction                   ... done (   0.2 sec)
Reading the grid                                   ... done
Mapping shells                                     ... done
Starting the XC term evaluation                    ... done (   0.1 sec)
  promolecular density results
     # of electrons  =    157.027461444
     EX              =   -120.523432992
     EC              =     -5.164505374
     EX+EC           =   -125.687938365
Transforming the Hamiltonian                       ... done (   0.0 sec)
Diagonalizing the Hamiltonian                      ... done (   0.0 sec)
Back transforming the eigenvectors                 ... done (   0.0 sec)
Now organizing SCF variables                       ... done
                      ------------------
                      INITIAL GUESS DONE (   0.9 sec)
                      ------------------
--------------
SCF ITERATIONS
--------------
ITER       Energy         Delta-E        Max-DP      RMS-DP      [F,P]     Damp
               ***  Starting incremental Fock matrix formation  ***
  0   -852.2030005822   0.000000000000 0.07279104  0.00084375  0.1768390 0.7000
  1   -852.4408771559  -0.237876573618 0.06481491  0.00067587  0.0935167 0.7000
                               ***Turning on DIIS***
  2   -852.5469484539  -0.106071298070 0.13338697  0.00130458  0.0361238 0.0000
  3   -852.6976476366  -0.150699182667 0.03025327  0.00037316  0.0506044 0.0000
  4   -852.7364731970  -0.038825560372 0.01834369  0.00015331  0.0105656 0.0000
  5   -852.7386787202  -0.002205523283 0.00296786  0.00003995  0.0025815 0.0000
  6   -852.7388867201  -0.000207999898 0.00160815  0.00001631  0.0013099 0.0000
  7   -852.7389271863  -0.000040466150 0.00193926  0.00001530  0.0008131 0.0000
  8   -852.7389552082  -0.000028021939 0.00090715  0.00000631  0.0006835 0.0000
  9   -852.7389644718  -0.000009263611 0.00072349  0.00000465  0.0003122 0.0000
 10   -852.7389697432  -0.000005271350 0.00068715  0.00000461  0.0000760 0.0000
 11   -852.7389735652  -0.000003821998 0.00032207  0.00000232  0.0000306 0.0000
 12   -852.7389749774  -0.000001412184 0.00034638  0.00000260  0.0000197 0.0000
 13   -852.7389761437  -0.000001166348 0.00015052  0.00000116  0.0000115 0.0000
 14   -852.7389765180  -0.000000374306 0.00018499  0.00000150  0.0000196 0.0000
 15   -852.7389768659  -0.000000347908 0.00007061  0.00000063  0.0000151 0.0000
 16   -852.7389769686  -0.000000102699 0.00008391  0.00000072  0.0000079 0.0000
 17   -852.7389770538  -0.000000085135 0.00004428  0.00000041  0.0000027 0.0000
 18   -852.7389770848  -0.000000031001 0.00002214  0.00000021  0.0000019 0.0000
 19   -852.7389770959  -0.000000011148 0.00002373  0.00000023  0.0000014 0.0000
               *** Restarting incremental Fock matrix formation ***
                                   *** Resetting DIIS ***
 20   -852.7389771167  -0.000000020763 0.00002036  0.00000019  0.0000020 0.0000
 21   -852.7389771270  -0.000000010358 0.00000467  0.00000004  0.0000051 0.0000
                            ***DIIS convergence achieved***

               *****************************************************
               *                     SUCCESS                       *
               *           SCF CONVERGED AFTER  22 CYCLES          *
               *****************************************************

Setting up the final grid:

General Integration Accuracy     IntAcc      ...  4.670
Radial Grid Type                 RadialGrid  ... Gauss-Chebyshev
Angular Grid (max. acc.)         AngularGrid ... Lebedev-302
Angular grid pruning method      GridPruning ... 3 (G Style)
Weight generation scheme         WeightScheme... Becke
Basis function cutoff            BFCut       ...    1.0000e-11
Integration weight cutoff        WCut        ...    1.0000e-14
Grids for H and He will be reduced by one unit

# of grid points (after initial pruning)     ... 221514 (   0.0 sec)
# of grid points (after weights+screening)   ... 194364 (   0.5 sec)
nearest neighbour list constructed           ...    0.0 sec
Grid point re-assignment to atoms done       ...    0.0 sec
Grid point division into batches done        ...    0.7 sec
Reduced shell lists constructed in    1.0 sec

Total number of grid points                  ...   194364
Total number of batches                      ...     3062
Average number of points per batch           ...       63
Average number of grid points per atom       ...     4135
Average number of shells per batch           ...   102.26 (49.40%)
Average number of basis functions per batch  ...   203.18 (46.92%)
Average number of large shells per batch     ...    63.93 (62.52%)
Average number of large basis fcns per batch ...   132.55 (65.24%)
Maximum spatial batch extension              ...   9.31,  4.27, 16.68 au
Average spatial batch extension              ...   0.09,  0.09,  0.11 au

Final grid set up in    1.6 sec
Final integration                            ... done (   0.6 sec)
Change in XC energy                          ...     0.002744006
Integrated number of electrons               ...   157.000315541
Previous integrated no of electrons          ...   157.020689135

----------------
TOTAL SCF ENERGY
----------------

Total Energy       :         -852.73623312 Eh          -23204.13258 eV

Components:
Nuclear Repulsion  :         1533.17443098 Eh           41719.79726 eV
Electronic Energy  :        -2385.91066411 Eh          -64923.92984 eV
One Electron Energy:        -4194.10825830 Eh         -114127.48784 eV
Two Electron Energy:         1808.19759419 Eh           49203.55800 eV

Virial components:
Potential Energy   :        -1700.26141345 Eh          -46266.46520 eV
Kinetic Energy     :          847.52518032 Eh           23062.33262 eV
Virial Ratio       :            2.00614855


DFT components:
N(Alpha)           :       79.000155444226 electrons
N(Beta)            :       78.000160096854 electrons
N(Total)           :      157.000315541080 electrons
E(X)               :      -97.587168201027 Eh       
E(C)               :       -6.096973198223 Eh       
E(XC)              :     -103.684141399250 Eh       
DFET-embed. en.    :        0.000000000000 Eh       

---------------
SCF CONVERGENCE
---------------

  Last Energy change         ...   -1.6857e-09  Tolerance :   1.0000e-08
  Last MAX-Density change    ...    8.5882e-06  Tolerance :   1.0000e-07
  Last RMS-Density change    ...    8.4103e-08  Tolerance :   5.0000e-09
  Last DIIS Error            ...    6.7472e-07  Tolerance :   5.0000e-07

             **** THE GBW FILE WAS UPDATED (opt.gbw) ****
             **** DENSITY FILE WAS UPDATED (opt.scfp) ****
             **** ENERGY FILE WAS UPDATED (opt.en.tmp) ****
----------------------
UHF SPIN CONTAMINATION
----------------------

Warning: in a DFT calculation there is little theoretical justification to 
         calculate <S**2> as in Hartree-Fock theory. We will do it anyways
         but you should keep in mind that the values have only limited relevance

Expectation value of <S**2>     :     0.760568
Ideal value S*(S+1) for S=0.5   :     0.750000
Deviation                       :     0.010568

             **** THE GBW FILE WAS UPDATED (opt.gbw) ****
             **** DENSITY FILE WAS UPDATED (opt.scfp) ****
----------------
ORBITAL ENERGIES
----------------
                 SPIN UP ORBITALS
  NO   OCC          E(Eh)            E(eV) 
   0   1.0000     -10.212087      -277.8850 
   1   1.0000     -10.210344      -277.8376 
   2   1.0000     -10.203399      -277.6486 
   3   1.0000     -10.198461      -277.5142 
   4   1.0000     -10.197840      -277.4973 
   5   1.0000     -10.191207      -277.3168 
   6   1.0000     -10.191064      -277.3130 
   7   1.0000     -10.190243      -277.2906 
   8   1.0000     -10.188301      -277.2378 
   9   1.0000     -10.188264      -277.2368 
  10   1.0000     -10.188209      -277.2353 
  11   1.0000     -10.188179      -277.2344 
  12   1.0000     -10.184404      -277.1317 
  13   1.0000     -10.183570      -277.1090 
  14   1.0000     -10.181256      -277.0461 
  15   1.0000     -10.178988      -276.9843 
  16   1.0000     -10.178909      -276.9822 
  17   1.0000     -10.178840      -276.9803 
  18   1.0000     -10.178748      -276.9778 
  19   1.0000     -10.178615      -276.9742 
  20   1.0000     -10.172371      -276.8043 
  21   1.0000     -10.172240      -276.8007 
  22   1.0000      -0.871201       -23.7066 
  23   1.0000      -0.862696       -23.4752 
  24   1.0000      -0.815296       -22.1853 
  25   1.0000      -0.797397       -21.6983 
  26   1.0000      -0.787413       -21.4266 
  27   1.0000      -0.770774       -20.9738 
  28   1.0000      -0.760787       -20.7021 
  29   1.0000      -0.754385       -20.5279 
  30   1.0000      -0.732969       -19.9451 
  31   1.0000      -0.714742       -19.4491 
  32   1.0000      -0.699110       -19.0237 
  33   1.0000      -0.653474       -17.7819 
  34   1.0000      -0.633012       -17.2251 
  35   1.0000      -0.619327       -16.8528 
  36   1.0000      -0.613351       -16.6901 
  37   1.0000      -0.607697       -16.5363 
  38   1.0000      -0.584896       -15.9158 
  39   1.0000      -0.579859       -15.7788 
  40   1.0000      -0.563319       -15.3287 
  41   1.0000      -0.540300       -14.7023 
  42   1.0000      -0.507525       -13.8105 
  43   1.0000      -0.485355       -13.2072 
  44   1.0000      -0.473234       -12.8774 
  45   1.0000      -0.472335       -12.8529 
  46   1.0000      -0.471816       -12.8388 
  47   1.0000      -0.457214       -12.4414 
  48   1.0000      -0.444157       -12.0861 
  49   1.0000      -0.439620       -11.9627 
  50   1.0000      -0.427680       -11.6378 
  51   1.0000      -0.424588       -11.5536 
  52   1.0000      -0.423988       -11.5373 
  53   1.0000      -0.422663       -11.5013 
  54   1.0000      -0.418445       -11.3865 
  55   1.0000      -0.414154       -11.2697 
  56   1.0000      -0.410400       -11.1676 
  57   1.0000      -0.382396       -10.4055 
  58   1.0000      -0.376105       -10.2343 
  59   1.0000      -0.373235       -10.1563 
  60   1.0000      -0.366886        -9.9835 
  61   1.0000      -0.365993        -9.9592 
  62   1.0000      -0.362050        -9.8519 
  63   1.0000      -0.357964        -9.7407 
  64   1.0000      -0.347250        -9.4491 
  65   1.0000      -0.341858        -9.3024 
  66   1.0000      -0.333367        -9.0714 
  67   1.0000      -0.331628        -9.0241 
  68   1.0000      -0.326234        -8.8773 
  69   1.0000      -0.325578        -8.8594 
  70   1.0000      -0.323778        -8.8104 
  71   1.0000      -0.319507        -8.6942 
  72   1.0000      -0.311796        -8.4844 
  73   1.0000      -0.267893        -7.2897 
  74   1.0000      -0.266450        -7.2505 
  75   1.0000      -0.258455        -7.0329 
  76   1.0000      -0.253465        -6.8971 
  77   1.0000      -0.242049        -6.5865 
  78   1.0000      -0.209950        -5.7130 
  79   0.0000      -0.049983        -1.3601 
  80   0.0000      -0.008490        -0.2310 
  81   0.0000       0.003126         0.0851 
  82   0.0000       0.004201         0.1143 
  83   0.0000       0.053995         1.4693 
  84   0.0000       0.058353         1.5879 
  85   0.0000       0.061739         1.6800 
  86   0.0000       0.067827         1.8457 
  87   0.0000       0.082831         2.2539 
  88   0.0000       0.085196         2.3183 
  89   0.0000       0.086443         2.3522 
  90   0.0000       0.093457         2.5431 
  91   0.0000       0.096440         2.6243 
  92   0.0000       0.096583         2.6282 
  93   0.0000       0.106127         2.8879 
  94   0.0000       0.107130         2.9151 
  95   0.0000       0.118723         3.2306 
  96   0.0000       0.129608         3.5268 
  97   0.0000       0.132151         3.5960 
  98   0.0000       0.142101         3.8668 
  99   0.0000       0.144816         3.9407 
 100   0.0000       0.145791         3.9672 
 101   0.0000       0.149846         4.0775 
 102   0.0000       0.154395         4.2013 
 103   0.0000       0.159613         4.3433 
 104   0.0000       0.160909         4.3785 
 105   0.0000       0.163919         4.4605 
 106   0.0000       0.165519         4.5040 
 107   0.0000       0.169194         4.6040 
 108   0.0000       0.176542         4.8040 
 109   0.0000       0.181005         4.9254 
 110   0.0000       0.185857         5.0574 
 111   0.0000       0.210209         5.7201 
 112   0.0000       0.210501         5.7280 
 113   0.0000       0.216135         5.8813 
 114   0.0000       0.217917         5.9298 
 115   0.0000       0.226113         6.1528 
 116   0.0000       0.229015         6.2318 
 117   0.0000       0.237085         6.4514 
 118   0.0000       0.242087         6.5875 
 119   0.0000       0.268718         7.3122 
 120   0.0000       0.279613         7.6087 
 121   0.0000       0.280634         7.6364 
 122   0.0000       0.288835         7.8596 
 123   0.0000       0.294411         8.0113 
 124   0.0000       0.310397         8.4463 
 125   0.0000       0.317757         8.6466 
 126   0.0000       0.332238         9.0407 
 127   0.0000       0.342337         9.3154 
 128   0.0000       0.357774         9.7355 
 129   0.0000       0.375366        10.2142 
 130   0.0000       0.388339        10.5672 
 131   0.0000       0.404087        10.9958 
 132   0.0000       0.406905        11.0725 
 133   0.0000       0.412204        11.2166 
 134   0.0000       0.412927        11.2363 
 135   0.0000       0.421833        11.4787 
 136   0.0000       0.422392        11.4939 
 137   0.0000       0.430697        11.7199 
 138   0.0000       0.438939        11.9441 
 139   0.0000       0.444597        12.0981 
 140   0.0000       0.447109        12.1664 
 141   0.0000       0.452750        12.3200 
 142   0.0000       0.453214        12.3326 
 143   0.0000       0.471416        12.8279 
 144   0.0000       0.484762        13.1910 
 145   0.0000       0.486855        13.2480 
 146   0.0000       0.488277        13.2867 
 147   0.0000       0.489264        13.3136 
 148   0.0000       0.493916        13.4402 
 149   0.0000       0.501449        13.6451 
 150   0.0000       0.510148        13.8818 
 151   0.0000       0.510457        13.8902 
 152   0.0000       0.514056        13.9882 
 153   0.0000       0.515964        14.0401 
 154   0.0000       0.516295        14.0491 
 155   0.0000       0.519566        14.1381 
 156   0.0000       0.527821        14.3627 
 157   0.0000       0.530387        14.4326 
 158   0.0000       0.531091        14.4517 
 159   0.0000       0.541941        14.7470 
 160   0.0000       0.548907        14.9365 
 161   0.0000       0.549291        14.9470 
 162   0.0000       0.571060        15.5393 
 163   0.0000       0.573024        15.5928 
 164   0.0000       0.587165        15.9776 
 165   0.0000       0.588010        16.0006 
 166   0.0000       0.594934        16.1890 
 167   0.0000       0.600323        16.3356 
 168   0.0000       0.610054        16.6004 
 169   0.0000       0.617572        16.8050 
 170   0.0000       0.618755        16.8372 
 171   0.0000       0.622433        16.9373 
 172   0.0000       0.626971        17.0607 
 173   0.0000       0.637049        17.3350 
 174   0.0000       0.642023        17.4703 
 175   0.0000       0.642273        17.4771 
 176   0.0000       0.646141        17.5824 
 177   0.0000       0.648413        17.6442 
 178   0.0000       0.655150        17.8275 
 179   0.0000       0.657805        17.8998 
 180   0.0000       0.659773        17.9533 
 181   0.0000       0.660872        17.9832 
 182   0.0000       0.664848        18.0914 
 183   0.0000       0.666807        18.1447 
 184   0.0000       0.669000        18.2044 
 185   0.0000       0.671393        18.2695 
 186   0.0000       0.675880        18.3916 
 187   0.0000       0.677774        18.4432 
 188   0.0000       0.679167        18.4811 
 189   0.0000       0.680838        18.5266 
 190   0.0000       0.689044        18.7498 
 191   0.0000       0.692418        18.8416 
 192   0.0000       0.693407        18.8686 
 193   0.0000       0.694321        18.8934 
 194   0.0000       0.704365        19.1667 
 195   0.0000       0.704905        19.1814 
 196   0.0000       0.710951        19.3460 
 197   0.0000       0.712250        19.3813 
 198   0.0000       0.722325        19.6555 
 199   0.0000       0.724587        19.7170 
 200   0.0000       0.732156        19.9230 
 201   0.0000       0.738068        20.0838 
 202   0.0000       0.741426        20.1752 
 203   0.0000       0.749668        20.3995 
 204   0.0000       0.751926        20.4610 
 205   0.0000       0.769687        20.9443 
 206   0.0000       0.785221        21.3670 
 207   0.0000       0.799554        21.7570 
 208   0.0000       0.811547        22.0833 
 209   0.0000       0.816382        22.2149 
 210   0.0000       0.827169        22.5084 
 211   0.0000       0.837434        22.7877 
 212   0.0000       0.842783        22.9333 
 213   0.0000       0.844212        22.9722 
 214   0.0000       0.860067        23.4036 
 215   0.0000       0.866986        23.5919 
 216   0.0000       0.876754        23.8577 
 217   0.0000       0.893355        24.3094 
 218   0.0000       0.902610        24.5613 
 219   0.0000       0.903415        24.5832 
 220   0.0000       0.916327        24.9345 
 221   0.0000       0.926328        25.2067 
 222   0.0000       0.940551        25.5937 
 223   0.0000       0.946168        25.7465 
 224   0.0000       0.956766        26.0349 
 225   0.0000       0.971971        26.4487 
 226   0.0000       0.977306        26.5939 
 227   0.0000       0.985867        26.8268 
 228   0.0000       0.994531        27.0626 
 229   0.0000       1.004822        27.3426 
 230   0.0000       1.016011        27.6471 
 231   0.0000       1.019284        27.7361 
 232   0.0000       1.027972        27.9725 
 233   0.0000       1.033040        28.1105 
 234   0.0000       1.040609        28.3164 
 235   0.0000       1.044048        28.4100 
 236   0.0000       1.049784        28.5661 
 237   0.0000       1.055861        28.7314 
 238   0.0000       1.061599        28.8876 
 239   0.0000       1.066756        29.0279 
 240   0.0000       1.084987        29.5240 
 241   0.0000       1.088567        29.6214 
 242   0.0000       1.108862        30.1737 
 243   0.0000       1.116628        30.3850 
 244   0.0000       1.129915        30.7465 
 245   0.0000       1.156843        31.4793 
 246   0.0000       1.162426        31.6312 
 247   0.0000       1.178545        32.0698 
 248   0.0000       1.197127        32.5755 
 249   0.0000       1.202823        32.7305 
 250   0.0000       1.209216        32.9044 
 251   0.0000       1.214239        33.0411 
 252   0.0000       1.220844        33.2208 
 253   0.0000       1.221288        33.2329 
 254   0.0000       1.224492        33.3201 
 255   0.0000       1.227278        33.3959 
 256   0.0000       1.228155        33.4198 
 257   0.0000       1.237685        33.6791 
 258   0.0000       1.277244        34.7556 
 259   0.0000       1.300114        35.3779 
 260   0.0000       1.304266        35.4909 
 261   0.0000       1.313691        35.7474 
 262   0.0000       1.322371        35.9835 
 263   0.0000       1.325741        36.0752 
 264   0.0000       1.331870        36.2420 
 265   0.0000       1.351121        36.7659 
 266   0.0000       1.362519        37.0760 
 267   0.0000       1.379736        37.5445 
 268   0.0000       1.404645        38.2223 
 269   0.0000       1.407304        38.2947 
 270   0.0000       1.429223        38.8911 
 271   0.0000       1.433007        38.9941 
 272   0.0000       1.433481        39.0070 
 273   0.0000       1.436822        39.0979 
 274   0.0000       1.444798        39.3149 
 275   0.0000       1.447018        39.3754 
 276   0.0000       1.474194        40.1149 
 277   0.0000       1.479808        40.2676 
 278   0.0000       1.480772        40.2938 
 279   0.0000       1.484725        40.4014 
 280   0.0000       1.496303        40.7165 
 281   0.0000       1.498751        40.7831 
 282   0.0000       1.504540        40.9406 
 283   0.0000       1.519817        41.3563 
 284   0.0000       1.540991        41.9325 
 285   0.0000       1.545206        42.0472 
 286   0.0000       1.551489        42.2182 
 287   0.0000       1.560646        42.4673 
 288   0.0000       1.581953        43.0471 
 289   0.0000       1.591378        43.3036 
 290   0.0000       1.596280        43.4370 
 291   0.0000       1.605025        43.6749 
 292   0.0000       1.607809        43.7507 
 293   0.0000       1.609729        43.8029 
 294   0.0000       1.619143        44.0591 
 295   0.0000       1.624823        44.2137 
 296   0.0000       1.625373        44.2286 
 297   0.0000       1.636668        44.5360 
 298   0.0000       1.638188        44.5774 
 299   0.0000       1.640214        44.6325 
 300   0.0000       1.643836        44.7310 
 301   0.0000       1.646899        44.8144 
 302   0.0000       1.653130        44.9839 
 303   0.0000       1.653954        45.0064 
 304   0.0000       1.657214        45.0951 
 305   0.0000       1.658285        45.1242 
 306   0.0000       1.664919        45.3047 
 307   0.0000       1.667890        45.3856 
 308   0.0000       1.677627        45.6506 
 309   0.0000       1.680043        45.7163 
 310   0.0000       1.689244        45.9667 
 311   0.0000       1.691658        46.0324 
 312   0.0000       1.697993        46.2047 
 313   0.0000       1.699585        46.2480 
 314   0.0000       1.702199        46.3192 
 315   0.0000       1.707045        46.4510 
 316   0.0000       1.708287        46.4848 
 317   0.0000       1.713488        46.6264 
 318   0.0000       1.719991        46.8033 
 319   0.0000       1.721804        46.8527 
 320   0.0000       1.724518        46.9265 
 321   0.0000       1.727082        46.9963 
 322   0.0000       1.740066        47.3496 
 323   0.0000       1.740971        47.3742 
 324   0.0000       1.744005        47.4568 
 325   0.0000       1.761055        47.9207 
 326   0.0000       1.772215        48.2244 
 327   0.0000       1.773506        48.2596 
 328   0.0000       1.776032        48.3283 
 329   0.0000       1.778904        48.4064 
 330   0.0000       1.783219        48.5239 
 331   0.0000       1.790343        48.7177 
 332   0.0000       1.796167        48.8762 
 333   0.0000       1.804915        49.1142 
 334   0.0000       1.808789        49.2196 
 335   0.0000       1.814007        49.3616 
 336   0.0000       1.828956        49.7684 
 337   0.0000       1.832326        49.8601 
 338   0.0000       1.843769        50.1715 
 339   0.0000       1.848418        50.2980 
 340   0.0000       1.855638        50.4945 
 341   0.0000       1.857624        50.5485 
 342   0.0000       1.862519        50.6817 
 343   0.0000       1.865705        50.7684 
 344   0.0000       1.867046        50.8049 
 345   0.0000       1.875295        51.0294 
 346   0.0000       1.887262        51.3550 
 347   0.0000       1.900201        51.7071 
 348   0.0000       1.922543        52.3151 
 349   0.0000       1.933338        52.6088 
 350   0.0000       1.937223        52.7145 
 351   0.0000       1.942238        52.8510 
 352   0.0000       1.944648        52.9166 
 353   0.0000       1.951671        53.1077 
 354   0.0000       1.970706        53.6256 
 355   0.0000       1.977595        53.8131 
 356   0.0000       1.980786        53.8999 
 357   0.0000       2.005886        54.5829 
 358   0.0000       2.010128        54.6984 
 359   0.0000       2.016269        54.8655 
 360   0.0000       2.029923        55.2370 
 361   0.0000       2.036042        55.4035 
 362   0.0000       2.037448        55.4418 
 363   0.0000       2.051766        55.8314 
 364   0.0000       2.071580        56.3706 
 365   0.0000       2.090089        56.8742 
 366   0.0000       2.095403        57.0188 
 367   0.0000       2.119019        57.6614 
 368   0.0000       2.122884        57.7666 
 369   0.0000       2.140366        58.2423 
 370   0.0000       2.145689        58.3872 
 371   0.0000       2.181314        59.3566 
 372   0.0000       2.183814        59.4246 
 373   0.0000       2.196848        59.7793 
 374   0.0000       2.207185        60.0606 
 375   0.0000       2.211102        60.1671 
 376   0.0000       2.218685        60.3735 
 377   0.0000       2.222260        60.4708 
 378   0.0000       2.225841        60.5682 
 379   0.0000       2.240128        60.9570 
 380   0.0000       2.240296        60.9616 
 381   0.0000       2.249325        61.2072 
 382   0.0000       2.267628        61.7053 
 383   0.0000       2.289956        62.3129 
 384   0.0000       2.300396        62.5970 
 385   0.0000       2.316069        63.0234 
 386   0.0000       2.318425        63.0875 
 387   0.0000       2.320668        63.1486 
 388   0.0000       2.328407        63.3592 
 389   0.0000       2.336904        63.5904 
 390   0.0000       2.340440        63.6866 
 391   0.0000       2.360349        64.2284 
 392   0.0000       2.402920        65.3868 
 393   0.0000       2.412539        65.6485 
 394   0.0000       2.428414        66.0805 
 395   0.0000       2.430887        66.1478 
 396   0.0000       2.437348        66.3236 
 397   0.0000       2.438248        66.3481 
 398   0.0000       2.438997        66.3685 
 399   0.0000       2.452101        66.7251 
 400   0.0000       2.453219        66.7555 
 401   0.0000       2.459680        66.9313 
 402   0.0000       2.479029        67.4578 
 403   0.0000       2.498581        67.9898 
 404   0.0000       2.500289        68.0363 
 405   0.0000       2.517183        68.4960 
 406   0.0000       2.533844        68.9494 
 407   0.0000       2.548842        69.3575 
 408   0.0000       2.552622        69.4604 
 409   0.0000       2.560690        69.6799 
 410   0.0000       2.567530        69.8660 
 411   0.0000       2.594141        70.5902 
 412   0.0000       2.610363        71.0316 
 413   0.0000       2.622631        71.3654 
 414   0.0000       2.651577        72.1531 
 415   0.0000       2.658638        72.3452 
 416   0.0000       2.669261        72.6343 
 417   0.0000       2.693551        73.2953 
 418   0.0000       2.729423        74.2714 
 419   0.0000       2.729559        74.2751 
 420   0.0000       2.730690        74.3058 
 421   0.0000       2.734717        74.4154 
 422   0.0000       2.737360        74.4874 
 423   0.0000       2.744173        74.6727 
 424   0.0000       2.784218        75.7624 
 425   0.0000       2.823455        76.8301 
 426   0.0000       2.860571        77.8401 
 427   0.0000       2.891607        78.6846 
 428   0.0000       2.960820        80.5680 
 429   0.0000       3.099899        84.3525 
 430   0.0000       3.128758        85.1378 
 431   0.0000       3.285914        89.4143 
 432   0.0000       3.656995        99.5119 

                 SPIN DOWN ORBITALS
  NO   OCC          E(Eh)            E(eV) 
   0   1.0000     -10.212016      -277.8831 
   1   1.0000     -10.204060      -277.6666 
   2   1.0000     -10.197729      -277.4943 
   3   1.0000     -10.197196      -277.4798 
   4   1.0000     -10.194509      -277.4067 
   5   1.0000     -10.191279      -277.3188 
   6   1.0000     -10.191133      -277.3148 
   7   1.0000     -10.190217      -277.2899 
   8   1.0000     -10.188371      -277.2397 
   9   1.0000     -10.188213      -277.2354 
  10   1.0000     -10.188175      -277.2343 
  11   1.0000     -10.187128      -277.2059 
  12   1.0000     -10.184059      -277.1223 
  13   1.0000     -10.183469      -277.1063 
  14   1.0000     -10.181291      -277.0470 
  15   1.0000     -10.178981      -276.9841 
  16   1.0000     -10.178941      -276.9831 
  17   1.0000     -10.178837      -276.9802 
  18   1.0000     -10.178740      -276.9776 
  19   1.0000     -10.178617      -276.9743 
  20   1.0000     -10.172372      -276.8043 
  21   1.0000     -10.172238      -276.8007 
  22   1.0000      -0.866686       -23.5837 
  23   1.0000      -0.862394       -23.4669 
  24   1.0000      -0.813706       -22.1421 
  25   1.0000      -0.797301       -21.6957 
  26   1.0000      -0.785330       -21.3699 
  27   1.0000      -0.769099       -20.9283 
  28   1.0000      -0.757658       -20.6169 
  29   1.0000      -0.753836       -20.5129 
  30   1.0000      -0.731146       -19.8955 
  31   1.0000      -0.711943       -19.3729 
  32   1.0000      -0.697212       -18.9721 
  33   1.0000      -0.652407       -17.7529 
  34   1.0000      -0.630964       -17.1694 
  35   1.0000      -0.617969       -16.8158 
  36   1.0000      -0.612380       -16.6637 
  37   1.0000      -0.602554       -16.3963 
  38   1.0000      -0.583127       -15.8677 
  39   1.0000      -0.575576       -15.6622 
  40   1.0000      -0.561300       -15.2737 
  41   1.0000      -0.539600       -14.6833 
  42   1.0000      -0.506484       -13.7821 
  43   1.0000      -0.485086       -13.1999 
  44   1.0000      -0.473119       -12.8742 
  45   1.0000      -0.472183       -12.8488 
  46   1.0000      -0.466549       -12.6954 
  47   1.0000      -0.457086       -12.4379 
  48   1.0000      -0.442459       -12.0399 
  49   1.0000      -0.433792       -11.8041 
  50   1.0000      -0.425804       -11.5867 
  51   1.0000      -0.423848       -11.5335 
  52   1.0000      -0.423615       -11.5271 
  53   1.0000      -0.421997       -11.4831 
  54   1.0000      -0.418369       -11.3844 
  55   1.0000      -0.411398       -11.1947 
  56   1.0000      -0.406858       -11.0712 
  57   1.0000      -0.382552       -10.4098 
  58   1.0000      -0.372491       -10.1360 
  59   1.0000      -0.371659       -10.1134 
  60   1.0000      -0.366815        -9.9816 
  61   1.0000      -0.364944        -9.9306 
  62   1.0000      -0.359345        -9.7783 
  63   1.0000      -0.357778        -9.7356 
  64   1.0000      -0.347273        -9.4498 
  65   1.0000      -0.341616        -9.2958 
  66   1.0000      -0.332733        -9.0541 
  67   1.0000      -0.330270        -8.9871 
  68   1.0000      -0.325840        -8.8666 
  69   1.0000      -0.325357        -8.8534 
  70   1.0000      -0.323725        -8.8090 
  71   1.0000      -0.317038        -8.6271 
  72   1.0000      -0.310157        -8.4398 
  73   1.0000      -0.267346        -7.2748 
  74   1.0000      -0.263209        -7.1623 
  75   1.0000      -0.258611        -7.0372 
  76   1.0000      -0.242161        -6.5895 
  77   1.0000      -0.205624        -5.5953 
  78   0.0000      -0.090841        -2.4719 
  79   0.0000      -0.045124        -1.2279 
  80   0.0000      -0.008508        -0.2315 
  81   0.0000       0.002727         0.0742 
  82   0.0000       0.009140         0.2487 
  83   0.0000       0.054093         1.4720 
  84   0.0000       0.058410         1.5894 
  85   0.0000       0.061753         1.6804 
  86   0.0000       0.067876         1.8470 
  87   0.0000       0.082940         2.2569 
  88   0.0000       0.086759         2.3608 
  89   0.0000       0.087664         2.3855 
  90   0.0000       0.093824         2.5531 
  91   0.0000       0.096476         2.6252 
  92   0.0000       0.096931         2.6376 
  93   0.0000       0.106170         2.8890 
  94   0.0000       0.108608         2.9554 
  95   0.0000       0.118800         3.2327 
  96   0.0000       0.130144         3.5414 
  97   0.0000       0.132910         3.6167 
  98   0.0000       0.142366         3.8740 
  99   0.0000       0.145358         3.9554 
 100   0.0000       0.146326         3.9817 
 101   0.0000       0.149885         4.0786 
 102   0.0000       0.154502         4.2042 
 103   0.0000       0.160017         4.3543 
 104   0.0000       0.161000         4.3810 
 105   0.0000       0.163925         4.4606 
 106   0.0000       0.166196         4.5224 
 107   0.0000       0.169623         4.6157 
 108   0.0000       0.176663         4.8072 
 109   0.0000       0.181545         4.9401 
 110   0.0000       0.188470         5.1285 
[...]
      pz      :     0.017697  p :     0.080415
      px      :     0.022083
      py      :     0.040636
 46 H s       :     0.892018  s :     0.892018
      pz      :     0.017339  p :     0.079273
      px      :     0.021812
      py      :     0.040122

SPIN
  0 C s       :     0.000790  s :     0.000790
      pz      :     0.006944  p :     0.009280
      px      :     0.000566
      py      :     0.001770
      dz2     :    -0.000007  d :    -0.002874
      dxz     :    -0.002549
      dyz     :     0.000001
      dx2y2   :    -0.000119
      dxy     :    -0.000200
  1 C s       :     0.103726  s :     0.103726
      pz      :     0.065267  p :     0.745429
      px      :     0.669725
      py      :     0.010436
      dz2     :     0.001291  d :     0.006017
      dxz     :    -0.001595
      dyz     :    -0.000766
      dx2y2   :     0.008939
      dxy     :    -0.001853
  2 C s       :     0.000396  s :     0.000396
      pz      :    -0.029223  p :    -0.011620
      px      :     0.012842
      py      :     0.004760
      dz2     :     0.000596  d :     0.034107
      dxz     :     0.001240
      dyz     :     0.001571
      dx2y2   :     0.020654
      dxy     :     0.010045
  3 C s       :     0.007057  s :     0.007057
      pz      :     0.017914  p :     0.039544
      px      :     0.021294
      py      :     0.000335
      dz2     :     0.000414  d :     0.000637
      dxz     :    -0.001705
      dyz     :    -0.000594
      dx2y2   :    -0.000291
      dxy     :     0.002813
  4 C s       :    -0.000815  s :    -0.000815
      pz      :    -0.025030  p :    -0.027251
      px      :    -0.000679
      py      :    -0.001543
      dz2     :     0.000112  d :     0.002735
      dxz     :     0.000623
      dyz     :     0.000791
      dx2y2   :     0.001012
      dxy     :     0.000198
  5 C s       :     0.006879  s :     0.006879
      pz      :     0.018593  p :     0.043480
      px      :     0.023776
      py      :     0.001111
      dz2     :     0.000352  d :    -0.001343
      dxz     :    -0.001619
      dyz     :    -0.000567
      dx2y2   :    -0.000312
      dxy     :     0.000803
  6 C s       :    -0.000385  s :    -0.000385
      pz      :    -0.032451  p :    -0.019495
      px      :     0.008926
      py      :     0.004030
      dz2     :     0.000584  d :     0.038970
      dxz     :     0.001381
      dyz     :     0.001526
      dx2y2   :     0.023284
      dxy     :     0.012194
  7 H s       :     0.006761  s :     0.006761
      pz      :     0.000511  p :     0.001447
      px      :     0.000969
      py      :    -0.000032
  8 H s       :     0.014310  s :     0.014310
      pz      :    -0.000902  p :    -0.001343
      px      :     0.000165
      py      :    -0.000606
  9 C s       :     0.003339  s :     0.003339
      pz      :     0.000883  p :     0.009925
      px      :     0.001514
      py      :     0.007528
      dz2     :    -0.000064  d :    -0.001347
      dxz     :    -0.000818
      dyz     :    -0.000468
      dx2y2   :     0.000085
      dxy     :    -0.000081
 10 H s       :    -0.000135  s :    -0.000135
      pz      :     0.000088  p :     0.000453
      px      :     0.000311
      py      :     0.000054
 11 H s       :    -0.000157  s :    -0.000157
      pz      :     0.000087  p :     0.000451
      px      :     0.000307
      py      :     0.000057
 12 C s       :     0.000014  s :     0.000014
      pz      :     0.000012  p :     0.000348
      px      :    -0.000127
      py      :     0.000462
      dz2     :     0.000011  d :     0.000092
      dxz     :    -0.000006
      dyz     :     0.000019
      dx2y2   :     0.000067
      dxy     :     0.000001
 13 H s       :     0.000017  s :     0.000017
      pz      :    -0.000001  p :     0.000022
      px      :     0.000005
      py      :     0.000018
 14 H s       :     0.000017  s :     0.000017
      pz      :    -0.000001  p :     0.000022
      px      :     0.000006
      py      :     0.000017
 15 C s       :     0.000050  s :     0.000050
      pz      :    -0.000017  p :     0.000163
      px      :    -0.000008
      py      :     0.000188
      dz2     :     0.000004  d :     0.000020
      dxz     :     0.000000
      dyz     :    -0.000001
      dx2y2   :    -0.000001
      dxy     :     0.000018
 16 H s       :    -0.000011  s :    -0.000011
      pz      :     0.000001  p :    -0.000002
      px      :     0.000001
      py      :    -0.000004
 17 H s       :    -0.000011  s :    -0.000011
      pz      :     0.000001  p :    -0.000002
      px      :     0.000001
      py      :    -0.000004
 18 C s       :     0.000025  s :     0.000025
      pz      :     0.000006  p :     0.000134
      px      :     0.000016
      py      :     0.000112
      dz2     :     0.000001  d :     0.000002
      dxz     :    -0.000002
      dyz     :    -0.000001
      dx2y2   :     0.000003
      dxy     :     0.000002
 19 H s       :    -0.000007  s :    -0.000007
      pz      :     0.000000  p :     0.000004
      px      :     0.000001
      py      :     0.000003
 20 H s       :    -0.000007  s :    -0.000007
      pz      :     0.000000  p :     0.000004
      px      :     0.000001
      py      :     0.000003
 21 C s       :     0.000670  s :     0.000670
      pz      :    -0.000177  p :     0.003373
      px      :     0.001600
      py      :     0.001949
      dz2     :     0.000044  d :     0.001942
      dxz     :     0.000483
      dyz     :     0.000303
      dx2y2   :     0.000792
      dxy     :     0.000320
 22 H s       :     0.001636  s :     0.001636
      pz      :    -0.000011  p :     0.000198
      px      :     0.000081
      py      :     0.000127
 23 H s       :     0.001632  s :     0.001632
      pz      :    -0.000011  p :     0.000198
      px      :     0.000081
      py      :     0.000127
 24 C s       :    -0.000017  s :    -0.000017
      pz      :    -0.000065  p :     0.000363
      px      :     0.000424
      py      :     0.000004
      dz2     :     0.000019  d :     0.000148
      dxz     :     0.000011
      dyz     :    -0.000008
      dx2y2   :     0.000072
      dxy     :     0.000053
 25 H s       :     0.000073  s :     0.000073
      pz      :     0.000003  p :     0.000004
      px      :    -0.000008
      py      :     0.000009
 26 H s       :     0.000073  s :     0.000073
      pz      :     0.000003  p :     0.000004
      px      :    -0.000008
      py      :     0.000009
 27 C s       :     0.000096  s :     0.000096
      pz      :     0.000022  p :     0.000143
      px      :     0.000007
      py      :     0.000114
      dz2     :    -0.000001  d :    -0.000006
      dxz     :    -0.000005
      dyz     :    -0.000000
      dx2y2   :     0.000003
      dxy     :    -0.000003
 28 H s       :     0.000042  s :     0.000042
      pz      :     0.000003  p :     0.000010
      px      :     0.000007
      py      :     0.000000
 29 H s       :     0.000042  s :     0.000042
      pz      :     0.000003  p :     0.000010
      px      :     0.000007
      py      :     0.000000
 30 C s       :    -0.000006  s :    -0.000006
      pz      :    -0.000001  p :     0.000002
      px      :     0.000002
      py      :     0.000001
      dz2     :    -0.000001  d :     0.000000
      dxz     :     0.000001
      dyz     :     0.000001
      dx2y2   :    -0.000000
      dxy     :    -0.000001
 31 H s       :     0.000002  s :     0.000002
      pz      :     0.000000  p :     0.000001
      px      :    -0.000000
      py      :     0.000001
 32 H s       :     0.000002  s :     0.000002
      pz      :     0.000000  p :     0.000001
      px      :    -0.000000
      py      :     0.000001
 33 C s       :    -0.000486  s :    -0.000486
      pz      :    -0.012540  p :    -0.014542
      px      :    -0.000246
      py      :    -0.001755
      dz2     :     0.000052  d :     0.000771
      dxz     :     0.000553
      dyz     :     0.000000
      dx2y2   :     0.000064
      dxy     :     0.000101
 34 H s       :     0.000024  s :     0.000024
      pz      :     0.000000  p :     0.000004
      px      :     0.000002
      py      :     0.000002
 35 H s       :    -0.000007  s :    -0.000007
      pz      :    -0.000000  p :     0.000000
      px      :     0.000001
      py      :    -0.000001
 36 C s       :     0.000183  s :     0.000183
      pz      :     0.002446  p :     0.002887
      px      :     0.000313
      py      :     0.000129
      dz2     :    -0.000016  d :    -0.000969
      dxz     :    -0.000729
      dyz     :    -0.000076
      dx2y2   :    -0.000048
      dxy     :    -0.000100
 37 C s       :    -0.000146  s :    -0.000146
      pz      :    -0.003530  p :    -0.003747
      px      :    -0.000111
      py      :    -0.000106
      dz2     :     0.000014  d :     0.000200
      dxz     :     0.000088
      dyz     :     0.000056
      dx2y2   :     0.000021
      dxy     :     0.000021
 38 C s       :     0.000082  s :     0.000082
      pz      :     0.001606  p :     0.001772
      px      :     0.000096
      py      :     0.000071
      dz2     :    -0.000008  d :    -0.000359
      dxz     :    -0.000248
      dyz     :    -0.000073
      dx2y2   :    -0.000015
      dxy     :    -0.000015
 39 C s       :    -0.000132  s :    -0.000132
      pz      :    -0.003783  p :    -0.003970
      px      :    -0.000086
      py      :    -0.000101
      dz2     :     0.000017  d :     0.000141
      dxz     :     0.000017
      dyz     :     0.000082
      dx2y2   :     0.000013
      dxy     :     0.000013
 40 C s       :     0.000082  s :     0.000082
      pz      :     0.001603  p :     0.001769
      px      :     0.000093
      py      :     0.000073
      dz2     :    -0.000008  d :    -0.000359
      dxz     :    -0.000233
      dyz     :    -0.000088
      dx2y2   :    -0.000015
      dxy     :    -0.000015
 41 C s       :    -0.000146  s :    -0.000146
      pz      :    -0.003526  p :    -0.003742
      px      :    -0.000113
      py      :    -0.000103
      dz2     :     0.000014  d :     0.000200
      dxz     :     0.000094
      dyz     :     0.000050
      dx2y2   :     0.000022
      dxy     :     0.000019
 42 H s       :     0.000120  s :     0.000120
      pz      :    -0.000116  p :    -0.000135
      px      :    -0.000016
      py      :    -0.000002
 43 H s       :    -0.000051  s :    -0.000051
      pz      :     0.000046  p :     0.000057
      px      :     0.000004
      py      :     0.000006
 44 H s       :     0.000110  s :     0.000110
      pz      :    -0.000095  p :    -0.000114
      px      :    -0.000006
      py      :    -0.000013
 45 H s       :     0.000112  s :     0.000112
      pz      :    -0.000095  p :    -0.000114
      px      :    -0.000005
      py      :    -0.000014
 46 H s       :    -0.000051  s :    -0.000051
      pz      :     0.000046  p :     0.000057
      px      :     0.000004
      py      :     0.000006


                      *****************************
                      * MAYER POPULATION ANALYSIS *
                      *****************************

  NA   - Mulliken gross atomic population
  ZA   - Total nuclear charge
  QA   - Mulliken gross atomic charge
  VA   - Mayer's total valence
  BVA  - Mayer's bonded valence
  FA   - Mayer's free valence

  ATOM       NA         ZA         QA         VA         BVA        FA
  0 C      5.7691     6.0000     0.2309     2.6133     2.6132     0.0001
  1 C      6.1389     6.0000    -0.1389     3.8441     3.0987     0.7455
  2 C      6.0217     6.0000    -0.0217     4.0466     4.0419     0.0047
  3 C      5.9720     6.0000     0.0280     3.9643     3.9626     0.0017
  4 C      6.1664     6.0000    -0.1664     3.8470     3.8461     0.0009
  5 C      6.1031     6.0000    -0.1031     4.2399     4.2379     0.0020
  6 C      5.9327     6.0000     0.0673     3.9548     3.9491     0.0057
  7 H      1.0484     1.0000    -0.0484     1.0016     1.0014     0.0002
  8 H      1.0209     1.0000    -0.0209     0.9958     0.9954     0.0004
  9 C      5.9528     6.0000     0.0472     4.0284     4.0282     0.0002
 10 H      0.9731     1.0000     0.0269     0.9697     0.9696     0.0000
 11 H      0.9730     1.0000     0.0270     0.9696     0.9696     0.0000
 12 C      6.0444     6.0000    -0.0444     4.1147     4.1147     0.0000
 13 H      0.9834     1.0000     0.0166     0.9641     0.9641     0.0000
 14 H      0.9833     1.0000     0.0167     0.9641     0.9641     0.0000
 15 C      6.0259     6.0000    -0.0259     4.1148     4.1148     0.0000
 16 H      0.9935     1.0000     0.0065     0.9675     0.9675     0.0000
 17 H      0.9935     1.0000     0.0065     0.9675     0.9675     0.0000
 18 C      5.9996     6.0000     0.0004     4.0182     4.0182     0.0000
 19 H      0.9829     1.0000     0.0171     0.9777     0.9777     0.0000
 20 H      0.9829     1.0000     0.0171     0.9777     0.9777     0.0000
 21 C      5.9626     6.0000     0.0374     4.0258     4.0258     0.0000
 22 H      0.9657     1.0000     0.0343     0.9699     0.9699     0.0000
 23 H      0.9657     1.0000     0.0343     0.9698     0.9698     0.0000
 24 C      6.0371     6.0000    -0.0371     4.1098     4.1098     0.0000
 25 H      0.9848     1.0000     0.0152     0.9640     0.9640     0.0000
 26 H      0.9848     1.0000     0.0152     0.9640     0.9640     0.0000
 27 C      6.0252     6.0000    -0.0252     4.1157     4.1157     0.0000
 28 H      0.9941     1.0000     0.0059     0.9680     0.9680     0.0000
 29 H      0.9940     1.0000     0.0060     0.9680     0.9680     0.0000
 30 C      5.9969     6.0000     0.0031     4.0163     4.0163     0.0000
 31 H      0.9831     1.0000     0.0169     0.9776     0.9776     0.0000
 32 H      0.9831     1.0000     0.0169     0.9776     0.9776     0.0000
 33 C      5.8405     6.0000     0.1595     2.6760     2.6758     0.0002
 34 H      0.9870     1.0000     0.0130     0.9746     0.9746     0.0000
 35 H      0.9876     1.0000     0.0124     0.9744     0.9744     0.0000
 36 C      6.2496     6.0000    -0.2496     3.9243     3.9243     0.0000
 37 C      5.9683     6.0000     0.0317     3.9954     3.9954     0.0000
 38 C      5.9589     6.0000     0.0411     4.0024     4.0024     0.0000
 39 C      5.9751     6.0000     0.0249     3.9983     3.9983     0.0000
 40 C      5.9562     6.0000     0.0438     3.9998     3.9998     0.0000
 41 C      5.9737     6.0000     0.0263     3.9963     3.9963     0.0000
 42 H      1.0238     1.0000    -0.0238     0.9690     0.9690     0.0000
 43 H      1.0290     1.0000    -0.0290     0.9686     0.9686     0.0000
 44 H      1.0414     1.0000    -0.0414     0.9841     0.9841     0.0000
 45 H      1.0407     1.0000    -0.0407     0.9834     0.9834     0.0000
 46 H      1.0294     1.0000    -0.0294     0.9688     0.9688     0.0000

  Mayer bond orders larger than 0.100000
B(  0-C ,  4-C ) :   0.9082 B(  0-C , 33-C ) :   1.7951 B(  0-C , 36-C ) :  -0.1636 
B(  1-C ,  2-C ) :   1.3971 B(  1-C ,  6-C ) :   1.4379 B(  2-C ,  3-C ) :   1.4351 
B(  2-C ,  9-C ) :   1.0440 B(  3-C ,  4-C ) :   1.4118 B(  3-C ,  7-H ) :   0.9247 
B(  4-C ,  5-C ) :   1.4152 B(  4-C , 33-C ) :  -0.1028 B(  5-C ,  6-C ) :   1.4552 
B(  5-C , 21-C ) :   1.0897 B(  6-C ,  8-H ) :   0.9110 B(  9-C , 10-H ) :   0.9177 
B(  9-C , 11-H ) :   0.9176 B(  9-C , 12-C ) :   1.1014 B( 12-C , 13-H ) :   0.9313 
B( 12-C , 14-H ) :   0.9312 B( 12-C , 15-C ) :   1.0747 B( 15-C , 16-H ) :   0.9421 
B( 15-C , 17-H ) :   0.9421 B( 15-C , 18-C ) :   1.1037 B( 18-C , 19-H ) :   0.9668 
B( 18-C , 20-H ) :   0.9668 B( 18-C , 34-H ) :   0.9631 B( 21-C , 22-H ) :   0.8987 
B( 21-C , 23-H ) :   0.8988 B( 21-C , 24-C ) :   1.0994 B( 24-C , 25-H ) :   0.9300 
B( 24-C , 26-H ) :   0.9300 B( 24-C , 27-C ) :   1.0748 B( 27-C , 28-H ) :   0.9417 
B( 27-C , 29-H ) :   0.9417 B( 27-C , 30-C ) :   1.1040 B( 30-C , 31-H ) :   0.9665 
B( 30-C , 32-H ) :   0.9665 B( 30-C , 35-H ) :   0.9627 B( 33-C , 36-C ) :   0.9273 
B( 36-C , 37-C ) :   1.4403 B( 36-C , 41-C ) :   1.4384 B( 37-C , 38-C ) :   1.4723 
B( 37-C , 44-H ) :   0.9401 B( 38-C , 39-C ) :   1.4455 B( 38-C , 46-H ) :   0.9376 
B( 39-C , 40-C ) :   1.4431 B( 39-C , 42-H ) :   0.9441 B( 40-C , 41-C ) :   1.4724 
B( 40-C , 43-H ) :   0.9376 B( 41-C , 45-H ) :   0.9404 

-------
TIMINGS
-------

Total SCF time: 0 days 0 hours 0 min 46 sec 

Total time                  ....      46.920 sec
Sum of individual times     ....      45.663 sec  ( 97.3%)

Fock matrix formation       ....      41.267 sec  ( 88.0%)
  XC integration            ....       2.261 sec  (  5.5% of F)
    Basis function eval.    ....       0.411 sec  ( 18.2% of XC)
    Density eval.           ....       0.350 sec  ( 15.5% of XC)
    XC-Functional eval.     ....       0.070 sec  (  3.1% of XC)
    XC-Potential eval.      ....       0.375 sec  ( 16.6% of XC)
Diagonalization             ....       1.188 sec  (  2.5%)
Density matrix formation    ....       0.095 sec  (  0.2%)
Population analysis         ....       0.236 sec  (  0.5%)
Initial guess               ....       0.175 sec  (  0.4%)
Orbital Transformation      ....       0.000 sec  (  0.0%)
Orbital Orthonormalization  ....       0.133 sec  (  0.3%)
DIIS solution               ....       0.840 sec  (  1.8%)
Grid generation             ....       1.862 sec  (  4.0%)

-------------------------   --------------------
FINAL SINGLE POINT ENERGY      -852.751423683812
-------------------------   --------------------

                                *** OPTIMIZATION RUN DONE ***

                            ***************************************
                            *     ORCA property calculations      *
                            ***************************************

                                    ---------------------
                                    Active property flags
                                    ---------------------
   (+) Dipole Moment


------------------------------------------------------------------------------
                       ORCA ELECTRIC PROPERTIES CALCULATION
------------------------------------------------------------------------------

Dipole Moment Calculation                       ... on
Quadrupole Moment Calculation                   ... off
Polarizability Calculation                      ... off
GBWName                                         ... opt.gbw
Electron density file                           ... opt.scfp
The origin for moment calculation is the CENTER OF MASS  = ( 4.014918, -0.062614 -0.019499)

-------------
DIPOLE MOMENT
-------------
                                X             Y             Z
Electronic contribution:     15.83419      -0.23445       0.01745
Nuclear contribution   :    -15.63654       0.22826      -0.01735
                        -----------------------------------------
Total Dipole Moment    :      0.19765      -0.00618       0.00009
                        -----------------------------------------
Magnitude (a.u.)       :      0.19775
Magnitude (Debye)      :      0.50263



--------------------
Rotational spectrum 
--------------------
 
Rotational constants in cm-1:     0.007062     0.004912     0.002909 
Rotational constants in MHz :   211.706210   147.251620    87.223548 

 Dipole components along the rotational axes: 
x,y,z [a.u.] :     0.152255     0.126184    -0.000020 
x,y,z [Debye]:     0.387002     0.320733    -0.000050 

 

Timings for individual modules:

Sum of individual times         ...      885.927 sec (=  14.765 min)
GTO integral calculation        ...       18.440 sec (=   0.307 min)   2.1 %
SCF iterations                  ...      659.443 sec (=  10.991 min)  74.4 %
SCF Gradient evaluation         ...      202.388 sec (=   3.373 min)  22.8 %
Geometry relaxation             ...        5.656 sec (=   0.094 min)   0.6 %
                             ****ORCA TERMINATED NORMALLY****
TOTAL RUN TIME: 0 days 0 hours 14 minutes 52 seconds 863 msec
