
                                 *****************
                                 * O   R   C   A *
                                 *****************

                                            #,                                       
                                            ###                                      
                                            ####                                     
                                            #####                                    
                                            ######                                   
                                           ########,                                 
                                     ,,################,,,,,                         
                               ,,#################################,,                 
                          ,,##########################################,,             
                       ,#########################################, ''#####,          
                    ,#############################################,,   '####,        
                  ,##################################################,,,,####,       
                ,###########''''           ''''###############################       
              ,#####''   ,,,,##########,,,,          '''####'''          '####       
            ,##' ,,,,###########################,,,                        '##       
           ' ,,###''''                  '''############,,,                           
         ,,##''                                '''############,,,,        ,,,,,,###''
      ,#''                                            '''#######################'''  
     '                                                          ''''####''''         
             ,#######,   #######,   ,#######,      ##                                
            ,#'     '#,  ##    ##  ,#'     '#,    #''#        ######   ,####,        
            ##       ##  ##   ,#'  ##            #'  '#       #        #'  '#        
            ##       ##  #######   ##           ,######,      #####,   #    #        
            '#,     ,#'  ##    ##  '#,     ,#' ,#      #,         ##   #,  ,#        
             '#######'   ##     ##  '#######'  #'      '#     #####' # '####'        



                  #######################################################
                  #                        -***-                        #
                  #          Department of theory and spectroscopy      #
                  #    Directorship and core code : Frank Neese         #
                  #        Max Planck Institute fuer Kohlenforschung    #
                  #                Kaiser Wilhelm Platz 1               #
                  #                 D-45470 Muelheim/Ruhr               #
                  #                      Germany                        #
                  #                                                     #
                  #                  All rights reserved                #
                  #                        -***-                        #
                  #######################################################


                         Program Version 5.0.4 -  RELEASE  -


 With contributions from (in alphabetic order):
   Daniel Aravena         : Magnetic Suceptibility
   Michael Atanasov       : Ab Initio Ligand Field Theory (pilot matlab implementation)
   Alexander A. Auer      : GIAO ZORA, VPT2 properties, NMR spectrum
   Ute Becker             : Parallelization
   Giovanni Bistoni       : ED, misc. LED, open-shell LED, HFLD
   Martin Brehm           : Molecular dynamics
   Dmytro Bykov           : SCF Hessian
   Vijay G. Chilkuri      : MRCI spin determinant printing, contributions to CSF-ICE
   Dipayan Datta          : RHF DLPNO-CCSD density
   Achintya Kumar Dutta   : EOM-CC, STEOM-CC
   Dmitry Ganyushin       : Spin-Orbit,Spin-Spin,Magnetic field MRCI
   Miquel Garcia          : C-PCM and meta-GGA Hessian, CC/C-PCM, Gaussian charge scheme
   Yang Guo               : DLPNO-NEVPT2, F12-NEVPT2, CIM, IAO-localization
   Andreas Hansen         : Spin unrestricted coupled pair/coupled cluster methods
   Benjamin Helmich-Paris : MC-RPA, TRAH-SCF, COSX integrals
   Lee Huntington         : MR-EOM, pCC
   Robert Izsak           : Overlap fitted RIJCOSX, COSX-SCS-MP3, EOM
   Marcus Kettner         : VPT2
   Christian Kollmar      : KDIIS, OOCD, Brueckner-CCSD(T), CCSD density, CASPT2, CASPT2-K
   Simone Kossmann        : Meta GGA functionals, TD-DFT gradient, OOMP2, MP2 Hessian
   Martin Krupicka        : Initial AUTO-CI
   Lucas Lang             : DCDCAS
   Marvin Lechner         : AUTO-CI (C++ implementation), FIC-MRCC
   Dagmar Lenk            : GEPOL surface, SMD
   Dimitrios Liakos       : Extrapolation schemes; Compound Job, initial MDCI parallelization
   Dimitrios Manganas     : Further ROCIS development; embedding schemes
   Dimitrios Pantazis     : SARC Basis sets
   Anastasios Papadopoulos: AUTO-CI, single reference methods and gradients
   Taras Petrenko         : DFT Hessian,TD-DFT gradient, ASA, ECA, R-Raman, ABS, FL, XAS/XES, NRVS
   Peter Pinski           : DLPNO-MP2, DLPNO-MP2 Gradient
   Christoph Reimann      : Effective Core Potentials
   Marius Retegan         : Local ZFS, SOC
   Christoph Riplinger    : Optimizer, TS searches, QM/MM, DLPNO-CCSD(T), (RO)-DLPNO pert. Triples
   Tobias Risthaus        : Range-separated hybrids, TD-DFT gradient, RPA, STAB
   Michael Roemelt        : Original ROCIS implementation
   Masaaki Saitow         : Open-shell DLPNO-CCSD energy and density
   Barbara Sandhoefer     : DKH picture change effects
   Avijit Sen             : IP-ROCIS
   Kantharuban Sivalingam : CASSCF convergence, NEVPT2, FIC-MRCI
   Bernardo de Souza      : ESD, SOC TD-DFT
   Georgi Stoychev        : AutoAux, RI-MP2 NMR, DLPNO-MP2 response
   Willem Van den Heuvel  : Paramagnetic NMR
   Boris Wezisla          : Elementary symmetry handling
   Frank Wennmohs         : Technical directorship


 We gratefully acknowledge several colleagues who have allowed us to
 interface, adapt or use parts of their codes:
   Stefan Grimme, W. Hujo, H. Kruse, P. Pracht,  : VdW corrections, initial TS optimization,
                  C. Bannwarth, S. Ehlert          DFT functionals, gCP, sTDA/sTD-DF
   Ed Valeev, F. Pavosevic, A. Kumar             : LibInt (2-el integral package), F12 methods
   Garnet Chan, S. Sharma, J. Yang, R. Olivares  : DMRG
   Ulf Ekstrom                                   : XCFun DFT Library
   Mihaly Kallay                                 : mrcc  (arbitrary order and MRCC methods)
   Jiri Pittner, Ondrej Demel                    : Mk-CCSD
   Frank Weinhold                                : gennbo (NPA and NBO analysis)
   Christopher J. Cramer and Donald G. Truhlar   : smd solvation model
   Lars Goerigk                                  : TD-DFT with DH, B97 family of functionals
   V. Asgeirsson, H. Jonsson                     : NEB implementation
   FAccTs GmbH                                   : IRC, NEB, NEB-TS, DLPNO-Multilevel, CI-OPT
                                                   MM, QMMM, 2- and 3-layer-ONIOM, Crystal-QMMM,
                                                   LR-CPCM, SF, NACMEs, symmetry and pop. for TD-DFT,
                                                   nearIR, NL-DFT gradient (VV10), updates on ESD,
                                                   ML-optimized integration grids
   S Lehtola, MJT Oliveira, MAL Marques          : LibXC Library
   Liviu Ungur et al                             : ANISO software


 Your calculation uses the libint2 library for the computation of 2-el integrals
 For citations please refer to: http://libint.valeyev.net

 Your ORCA version has been built with support for libXC version: 5.1.0
 For citations please refer to: https://tddft.org/programs/libxc/

 This ORCA versions uses:
   CBLAS   interface :  Fast vector & matrix operations
   LAPACKE interface :  Fast linear algebra routines
   SCALAPACK package :  Parallel linear algebra routines
   Shared memory     :  Shared parallel matrices
   BLAS/LAPACK       :  OpenBLAS 0.3.15  USE64BITINT DYNAMIC_ARCH NO_AFFINITY SkylakeX SINGLE_THREADED
        Core in use  :  SkylakeX
   Copyright (c) 2011-2014, The OpenBLAS Project




***************************************
The coordinates will be read from file: model.xyz
***************************************


================================================================================

----- Orbital basis set information -----
Your calculation utilizes the basis: cc-pVDZ 
       H, B-Ne : Obtained from the ccRepo (grant-hill.group.shef.ac.uk/ccrepo) Feb. 2017
                 T. H. Dunning, Jr., J. Chem. Phys. 90, 1007 (1989)
            He : Obtained from the ccRepo (grant-hill.group.shef.ac.uk/ccrepo) Feb. 2017
                 D. E. Woon, T. H. Dunning, Jr., J. Chem. Phys. 100, 2975 (1994)
  Li-Be, Na-Mg : Obtained from the ccRepo (grant-hill.group.shef.ac.uk/ccrepo) Feb. 2017
                 B. P. Prascher, D. E. Woon, K. A. Peterson, T. H. Dunning, Jr., A. K. Wilson, Theor. Chem. Acc. 128, 69 (2011)
         Al-Ar : Obtained from the ccRepo (grant-hill.group.shef.ac.uk/ccrepo) Feb. 2017
                 D. E. Woon, T. H. Dunning, Jr., J. Chem. Phys. 98, 1358 (1993)
            Ca : Obtained from the Peterson Research Group Website (tyr0.chem.wsu.edu/~kipeters) Feb. 2017
                 J. Koput, K. A. Peterson, J. Phys. Chem. 106, 9595 (2002)
         Sc-Zn : Obtained from the ccRepo (grant-hill.group.shef.ac.uk/ccrepo) Feb. 2017
                 N. B. Balabanov, K. A. Peterson, J. Chem. Phys. 123, 064107 (2005)
                 N. B. Balabanov, K. A. Peterson, J. Chem. Phys. 125, 074110 (2006)
         Ga-Kr : Obtained from the ccRepo (grant-hill.group.shef.ac.uk/ccrepo) Feb. 2017
                 A. K. Wilson, D. E. Woon, K. A. Peterson, T. H. Dunning, Jr., J. Chem. Phys. 110, 7667 (1999)

----- AuxJ basis set information -----
Your calculation utilizes the auxiliary basis: def2/J
   F. Weigend, Phys. Chem. Chem. Phys. 8, 1057 (2006).

================================================================================
                                        WARNINGS
                       Please study these warnings very carefully!
================================================================================

WARNING: Old DensityContainer found on disk!
         Will remove this file - 
         If you want to keep old densities, please start your calculation with a different basename. 


WARNING: your system is open-shell and RHF/RKS was chosen
  ===> : WILL SWITCH to UHF/UKS


WARNING: Geometry Optimization
  ===> : Switching off AutoStart
         For restart on a previous wavefunction, please use MOREAD

INFO   : the flag for use of the SHARK integral package has been found!

================================================================================
                                       INPUT FILE
================================================================================
NAME = opt_cc-pVDZ.inp
|  1> ! B3LYP cc-pVDZ OPT
|  2> %pal nprocs 16 end
|  3> *XYZFile 0 2 model.xyz
|  4> 
|  5>                          ****END OF INPUT****
================================================================================

                       *****************************
                       * Geometry Optimization Run *
                       *****************************

Geometry optimization settings:
Update method            Update   .... BFGS
Choice of coordinates    CoordSys .... Z-matrix Internals
Initial Hessian          InHess   .... Almoef's Model

Convergence Tolerances:
Energy Change            TolE     ....  5.0000e-06 Eh
Max. Gradient            TolMAXG  ....  3.0000e-04 Eh/bohr
RMS Gradient             TolRMSG  ....  1.0000e-04 Eh/bohr
Max. Displacement        TolMAXD  ....  4.0000e-03 bohr
RMS Displacement         TolRMSD  ....  2.0000e-03 bohr
Strict Convergence                ....  False
------------------------------------------------------------------------------
                        ORCA OPTIMIZATION COORDINATE SETUP
------------------------------------------------------------------------------

The optimization will be done in new redundant internal coordinates
Making redundant internal coordinates   ...  (new redundants) done
Evaluating the initial hessian          ...  (Almloef) done
Evaluating the coordinates              ...  done
Calculating the B-matrix                .... done
Calculating the G-matrix                .... done
Diagonalizing the G-matrix              .... done
Small eigenvalue found = 7.063e-04
Small eigenvalue found = 2.007e-03
Small eigenvalue found = 7.547e-03
Small eigenvalue found = 1.017e-02
Small eigenvalue found = 1.948e-02
Small eigenvalue found = 2.312e-02
Small eigenvalue found = 2.392e-02
Small eigenvalue found = 2.915e-02
Small eigenvalue found = 2.952e-02
The first mode is                       ....  113
The number of degrees of freedom        ....  135

    -----------------------------------------------------------------
                    Redundant Internal Coordinates


    -----------------------------------------------------------------
         Definition                    Initial Value    Approx d2E/dq
    -----------------------------------------------------------------
      1. B(C   2,C   1)                  1.3867         0.632404   
      2. B(C   3,C   2)                  1.4043         0.592891   
      3. B(C   4,C   0)                  1.4297         0.539913   
      4. B(C   4,C   3)                  1.4138         0.572516   
      5. B(C   5,C   4)                  1.4212         0.557044   
      6. B(C   6,C   1)                  1.3771         0.655208   
      7. B(C   6,C   5)                  1.4090         0.582619   
      8. B(H   7,C   3)                  1.0915         0.358164   
      9. B(H   8,C   6)                  1.0914         0.358227   
     10. B(C   9,C   2)                  1.5194         0.388416   
     11. B(H  10,C   9)                  1.1054         0.340265   
     12. B(H  11,C   9)                  1.1054         0.340233   
     13. B(C  12,C   9)                  1.5308         0.372412   
     14. B(H  13,C  12)                  1.1057         0.339918   
     15. B(H  14,C  12)                  1.1057         0.339916   
     16. B(C  15,C  12)                  1.5332         0.369170   
     17. B(H  16,C  15)                  1.1059         0.339618   
     18. B(H  17,C  15)                  1.1059         0.339618   
     19. B(C  18,C  15)                  1.5307         0.372633   
     20. B(H  19,C  18)                  1.1038         0.342346   
     21. B(H  20,C  18)                  1.1038         0.342344   
     22. B(C  21,C   5)                  1.5165         0.392610   
     23. B(H  22,C  21)                  1.1058         0.339789   
     24. B(H  23,C  21)                  1.1058         0.339774   
     25. B(C  24,C  21)                  1.5309         0.372372   
     26. B(H  25,C  24)                  1.1058         0.339821   
     27. B(H  26,C  24)                  1.1058         0.339823   
     28. B(C  27,C  24)                  1.5335         0.368848   
     29. B(H  28,C  27)                  1.1059         0.339671   
     30. B(H  29,C  27)                  1.1059         0.339674   
     31. B(C  30,C  27)                  1.5306         0.372721   
     32. B(H  31,C  30)                  1.1038         0.342338   
     33. B(H  32,C  30)                  1.1038         0.342339   
     34. B(C  33,C   0)                  1.2220         1.158149   
     35. B(H  34,C  18)                  1.1021         0.344424   
     36. B(H  35,C  30)                  1.1021         0.344414   
     37. B(C  36,C  33)                  1.4286         0.542255   
     38. B(C  37,C  36)                  1.4121         0.576162   
     39. B(C  38,C  37)                  1.3946         0.614324   
     40. B(C  39,C  38)                  1.3995         0.603445   
     41. B(C  40,C  39)                  1.3996         0.603237   
     42. B(C  41,C  40)                  1.3945         0.614453   
     43. B(C  41,C  36)                  1.4121         0.576074   
     44. B(H  42,C  39)                  1.0925         0.356784   
     45. B(H  43,C  40)                  1.0927         0.356489   
     46. B(H  44,C  37)                  1.0916         0.357925   
     47. B(H  45,C  41)                  1.0917         0.357887   
     48. B(H  46,C  38)                  1.0928         0.356469   
     49. L(C   4,C   0,C  33,C   3, 1) 179.5326         0.474237   
     50. L(C   4,C   0,C  33,C   3, 2) 179.8018         0.474237   
     51. A(C   2,C   1,C   6)          127.3878         0.439977   
     52. A(C   1,C   2,C   3)          113.8092         0.432127   
     53. A(C   3,C   2,C   9)          124.3323         0.396284   
     54. A(C   1,C   2,C   9)          121.8585         0.400804   
     55. A(C   2,C   3,C   4)          122.1225         0.424487   
     56. A(C   4,C   3,H   7)          117.8174         0.347876   
     57. A(C   2,C   3,H   7)          120.0601         0.349933   
     58. A(C   0,C   4,C   5)          120.3894         0.415423   
     59. A(C   0,C   4,C   3)          118.6491         0.417454   
     60. A(C   3,C   4,C   5)          120.9615         0.419784   
     61. A(C   4,C   5,C   6)          117.3529         0.421096   
     62. A(C   4,C   5,C  21)          120.0331         0.392714   
     63. A(C   6,C   5,C  21)          122.6140         0.395815   
     64. A(C   5,C   6,H   8)          120.5737         0.348914   
     65. A(C   1,C   6,H   8)          121.0603         0.355914   
     66. A(C   1,C   6,C   5)          118.3660         0.433523   
     67. A(H  10,C   9,C  12)          109.2610         0.321157   
     68. A(H  11,C   9,C  12)          109.2517         0.321152   
     69. A(C   2,C   9,C  12)          116.4160         0.365586   
     70. A(C   2,C   9,H  10)          108.0966         0.323378   
     71. A(C   2,C   9,H  11)          108.0944         0.323373   
     72. A(H  10,C   9,H  11)          105.1273         0.285724   
     73. A(H  14,C  12,C  15)          109.0946         0.320644   
     74. A(H  13,C  12,C  15)          109.1024         0.320644   
     75. A(C   9,C  12,C  15)          112.7526         0.362423   
     76. A(H  13,C  12,H  14)          106.1948         0.285638   
     77. A(C   9,C  12,H  14)          109.7401         0.321103   
     78. A(C   9,C  12,H  13)          109.7406         0.321103   
     79. A(C  12,C  15,C  18)          113.1667         0.362460   
     80. A(H  16,C  15,H  17)          105.8715         0.285559   
     81. A(C  12,C  15,H  17)          109.2212         0.320598   
     82. A(C  12,C  15,H  16)          109.2224         0.320598   
     83. A(H  16,C  15,C  18)          109.5497         0.321088   
     84. A(H  17,C  15,C  18)          109.5489         0.321088   
     85. A(H  19,C  18,H  34)          107.5928         0.286543   
     86. A(C  15,C  18,H  34)          111.4987         0.321827   
     87. A(H  20,C  18,H  34)          107.5913         0.286543   
     88. A(H  19,C  18,H  20)          107.3685         0.286272   
     89. A(C  15,C  18,H  20)          111.2908         0.321508   
     90. A(C  15,C  18,H  19)          111.2916         0.321508   
     91. A(H  23,C  21,C  24)          109.2309         0.321075   
     92. A(H  22,C  21,C  24)          109.2328         0.321077   
     93. A(C   5,C  21,C  24)          116.8206         0.366253   
     94. A(H  22,C  21,H  23)          104.5942         0.285602   
     95. A(C   5,C  21,H  23)          108.1331         0.323872   
     96. A(C   5,C  21,H  22)          108.1335         0.323874   
     97. A(H  26,C  24,C  27)          109.0178         0.320584   
     98. A(H  25,C  24,C  27)          109.0130         0.320583   
     99. A(C  21,C  24,C  27)          112.6478         0.362362   
    100. A(H  25,C  24,H  26)          106.2476         0.285613   
    101. A(C  21,C  24,H  26)          109.8532         0.321083   
    102. A(C  21,C  24,H  25)          109.8530         0.321082   
    103. A(H  29,C  27,C  30)          109.5641         0.321109   
    104. A(H  28,C  27,C  30)          109.5631         0.321108   
    105. A(C  24,C  27,C  30)          113.1939         0.362420   
    106. A(H  28,C  27,H  29)          105.8701         0.285574   
    107. A(C  24,C  27,H  29)          109.1935         0.320561   
    108. A(C  24,C  27,H  28)          109.1936         0.320560   
    109. A(H  31,C  30,H  32)          107.3653         0.286270   
    110. A(C  27,C  30,H  32)          111.2953         0.321520   
    111. A(C  27,C  30,H  31)          111.2947         0.321520   
    112. A(H  32,C  30,H  35)          107.5827         0.286541   
    113. A(H  31,C  30,H  35)          107.5819         0.286540   
    114. A(C  27,C  30,H  35)          111.5125         0.321838   
    115. L(C   0,C  33,C  36,C  37, 2) 180.1701         0.474615   
    116. L(C   0,C  33,C  36,C  37, 1) 179.8557         0.474615   
    117. A(C  37,C  36,C  41)          118.7106         0.422788   
    118. A(C  33,C  36,C  41)          120.6657         0.418237   
    119. A(C  33,C  36,C  37)          120.6237         0.418249   
    120. A(C  38,C  37,H  44)          120.4684         0.351999   
    121. A(C  36,C  37,H  44)          119.1006         0.348209   
    122. A(C  36,C  37,C  38)          120.4309         0.427680   
    123. A(C  39,C  38,H  46)          120.0235         0.350696   
    124. A(C  37,C  38,H  46)          119.5983         0.351757   
    125. A(C  37,C  38,C  39)          120.3782         0.431245   
    126. A(C  40,C  39,H  42)          120.1794         0.350728   
    127. A(C  38,C  39,H  42)          120.1487         0.350748   
    128. A(C  38,C  39,C  40)          119.6718         0.429838   
    129. A(C  41,C  40,H  43)          119.5947         0.351773   
    130. A(C  39,C  40,H  43)          120.0550         0.350679   
    131. A(C  39,C  40,C  41)          120.3503         0.431235   
    132. A(C  40,C  41,H  45)          120.4480         0.352005   
    133. A(C  36,C  41,H  45)          119.0939         0.348194   
    134. A(C  36,C  41,C  40)          120.4582         0.427685   
    135. D(C   9,C   2,C   1,C   6)    179.9832         0.025153   
    136. D(C   3,C   2,C   1,C   6)     -0.0066         0.025153   
    137. D(C   4,C   3,C   2,C   9)   -179.9930         0.024203   
    138. D(H   7,C   3,C   2,C   9)      0.0166         0.024203   
    139. D(C   4,C   3,C   2,C   1)     -0.0036         0.024203   
    140. D(H   7,C   3,C   2,C   1)   -179.9939         0.024203   
    141. D(C   5,C   4,C   3,C   2)      0.0132         0.022493   
    142. D(C   0,C   4,C   3,H   7)      0.0121         0.022493   
    143. D(C   5,C   4,C   3,H   7)   -179.9962         0.022493   
    144. D(C   0,C   4,C   3,C   2)   -179.9784         0.022493   
    145. D(C  21,C   5,C   4,C   3)    179.9926         0.021247   
    146. D(C   6,C   5,C   4,C   0)    179.9788         0.021247   
    147. D(C   6,C   5,C   4,C   3)     -0.0127         0.021247   
    148. D(C  21,C   5,C   4,C   0)     -0.0159         0.021247   
    149. D(C   5,C   6,C   1,C   2)      0.0068         0.027119   
    150. D(H   8,C   6,C   1,C   2)   -179.9947         0.027119   
    151. D(H   8,C   6,C   5,C  21)     -0.0007         0.023331   
    152. D(C   1,C   6,C   5,C  21)    179.9978         0.023331   
    153. D(C   1,C   6,C   5,C   4)      0.0033         0.023331   
    154. D(H   8,C   6,C   5,C   4)   -179.9953         0.023331   
    155. D(C  12,C   9,C   2,C   3)     -0.1467         0.011229   
    156. D(H  11,C   9,C   2,C   3)    123.1945         0.011229   
    157. D(C  12,C   9,C   2,C   1)    179.8647         0.011229   
    158. D(H  11,C   9,C   2,C   1)    -56.7941         0.011229   
    159. D(H  10,C   9,C   2,C   3)   -123.5019         0.011229   
    160. D(H  10,C   9,C   2,C   1)     56.5094         0.011229   
    161. D(H  14,C  12,C   9,C   2)     58.2303         0.011078   
    162. D(H  13,C  12,C   9,H  11)    179.1573         0.011078   
    163. D(H  13,C  12,C   9,C   2)    -58.1029         0.011078   
    164. D(H  14,C  12,C   9,H  10)   -179.0194         0.011078   
    165. D(H  13,C  12,C   9,H  10)     64.6474         0.011078   
    166. D(C  15,C  12,C   9,H  10)    -57.1911         0.011078   
    167. D(C  15,C  12,C   9,H  11)     57.3188         0.011078   
    168. D(H  14,C  12,C   9,H  11)    -64.5095         0.011078   
    169. D(C  15,C  12,C   9,C   2)   -179.9414         0.011078   
    170. D(C  18,C  15,C  12,H  14)    -57.7649         0.010898   
    171. D(C  18,C  15,C  12,C   9)   -179.9572         0.010898   
    172. D(H  17,C  15,C  12,H  14)    179.9157         0.010898   
    173. D(H  17,C  15,C  12,H  13)    -64.4750         0.010898   
    174. D(H  17,C  15,C  12,C   9)     57.7234         0.010898   
    175. D(H  16,C  15,C  12,H  13)   -179.8342         0.010898   
    176. D(H  16,C  15,C  12,H  14)     64.5565         0.010898   
    177. D(H  16,C  15,C  12,C   9)    -57.6358         0.010898   
    178. D(C  18,C  15,C  12,H  13)     57.8444         0.010898   
    179. D(H  34,C  18,C  15,H  17)    -57.8444         0.011091   
    180. D(H  34,C  18,C  15,H  16)     57.8804         0.011091   
    181. D(H  34,C  18,C  15,C  12)   -179.9809         0.011091   
    182. D(H  20,C  18,C  15,H  17)     62.2957         0.011091   
    183. D(H  20,C  18,C  15,H  16)    178.0205         0.011091   
    184. D(H  20,C  18,C  15,C  12)    -59.8409         0.011091   
    185. D(H  19,C  18,C  15,H  17)   -177.9868         0.011091   
    186. D(H  19,C  18,C  15,H  16)    -62.2620         0.011091   
    187. D(H  19,C  18,C  15,C  12)     59.8766         0.011091   
    188. D(C  24,C  21,C   5,C   4)   -179.9449         0.011460   
    189. D(H  23,C  21,C   5,C   6)   -123.5773         0.011460   
    190. D(H  23,C  21,C   5,C   4)     56.4171         0.011460   
    191. D(H  22,C  21,C   5,C   6)    123.7015         0.011460   
    192. D(C  24,C  21,C   5,C   6)      0.0607         0.011460   
    193. D(H  22,C  21,C   5,C   4)    -56.3041         0.011460   
    194. D(H  26,C  24,C  21,C   5)     58.2306         0.011076   
    195. D(H  25,C  24,C  21,H  23)     64.7766         0.011076   
    196. D(H  25,C  24,C  21,H  22)    178.6265         0.011076   
    197. D(H  25,C  24,C  21,C   5)    -58.2974         0.011076   
    198. D(C  27,C  24,C  21,H  23)    -56.9562         0.011076   
    199. D(C  27,C  24,C  21,H  22)     56.8936         0.011076   
    200. D(C  27,C  24,C  21,C   5)    179.9697         0.011076   
    201. D(H  26,C  24,C  21,H  23)   -178.6954         0.011076   
    202. D(H  26,C  24,C  21,H  22)    -64.8455         0.011076   
    203. D(C  30,C  27,C  24,H  26)    -57.8054         0.010880   
    204. D(C  30,C  27,C  24,H  25)     57.7756         0.010880   
    205. D(C  30,C  27,C  24,C  21)    179.9832         0.010880   
    206. D(H  29,C  27,C  24,H  26)    179.8572         0.010880   
    207. D(H  29,C  27,C  24,H  25)    -64.5618         0.010880   
    208. D(H  29,C  27,C  24,C  21)     57.6458         0.010880   
    209. D(H  28,C  27,C  24,H  26)     64.5307         0.010880   
    210. D(H  28,C  27,C  24,H  25)   -179.8883         0.010880   
    211. D(H  28,C  27,C  24,C  21)    -57.6807         0.010880   
    212. D(H  35,C  30,C  27,H  29)    -57.8838         0.011096   
    213. D(H  35,C  30,C  27,H  28)     57.8556         0.011096   
    214. D(H  35,C  30,C  27,C  24)    179.9856         0.011096   
    215. D(H  32,C  30,C  27,H  29)     62.2576         0.011096   
    216. D(H  32,C  30,C  27,H  28)    177.9970         0.011096   
    217. D(H  32,C  30,C  27,C  24)    -59.8730         0.011096   
    218. D(H  31,C  30,C  27,H  29)   -178.0239         0.011096   
    219. D(H  31,C  30,C  27,H  28)    -62.2845         0.011096   
    220. D(H  31,C  30,C  27,C  24)     59.8455         0.011096   
    221. D(C  41,C  36,C   4,C   5)      0.1268         0.001500   
    222. D(C  41,C  36,C   4,C   3)   -179.9233         0.001500   
    223. D(C  37,C  36,C   4,C   5)   -179.8951         0.001500   
    224. D(C  37,C  36,C   4,C   3)      0.0548         0.001500   
    225. D(H  44,C  37,C  36,C  41)   -179.9967         0.022793   
    226. D(H  44,C  37,C  36,C  33)      0.0025         0.022793   
    227. D(C  38,C  37,C  36,C  41)      0.0043         0.022793   
    228. D(C  38,C  37,C  36,C  33)   -179.9965         0.022793   
    229. D(H  46,C  38,C  37,H  44)      0.0005         0.026086   
    230. D(H  46,C  38,C  37,C  36)    179.9995         0.026086   
    231. D(C  39,C  38,C  37,H  44)    179.9984         0.026086   
    232. D(C  39,C  38,C  37,C  36)     -0.0026         0.026086   
    233. D(H  42,C  39,C  38,H  46)     -0.0024         0.025119   
    234. D(H  42,C  39,C  38,C  37)    179.9998         0.025119   
    235. D(C  40,C  39,C  38,H  46)    179.9977         0.025119   
    236. D(C  40,C  39,C  38,C  37)     -0.0001         0.025119   
    237. D(H  43,C  40,C  39,H  42)     -0.0007         0.025101   
    238. D(H  43,C  40,C  39,C  38)    179.9992         0.025101   
    239. D(C  41,C  40,C  39,H  42)   -179.9988         0.025101   
    240. D(C  41,C  40,C  39,C  38)      0.0011         0.025101   
    241. D(H  45,C  41,C  40,H  43)     -0.0002         0.026097   
    242. D(H  45,C  41,C  40,C  39)    179.9980         0.026097   
    243. D(C  36,C  41,C  40,H  43)   -179.9975         0.026097   
    244. D(C  36,C  41,C  40,C  39)      0.0006         0.026097   
    245. D(H  45,C  41,C  36,C  37)    179.9993         0.022786   
    246. D(H  45,C  41,C  36,C  33)      0.0001         0.022786   
    247. D(C  40,C  41,C  36,C  37)     -0.0033         0.022786   
    248. D(C  40,C  41,C  36,C  33)    179.9975         0.022786   
    -----------------------------------------------------------------

Number of atoms                         .... 47
Number of degrees of freedom            .... 248

         *************************************************************
         *                GEOMETRY OPTIMIZATION CYCLE   1            *
         *************************************************************
---------------------------------
CARTESIAN COORDINATES (ANGSTROEM)
---------------------------------
  C      2.831806   -0.006236   -0.008272
  C     -1.314139   -0.014773   -0.012929
  C     -0.703841   -1.259958   -0.014279
  C      0.699293   -1.203568   -0.012429
  C      1.402358    0.023007   -0.009542
  C      0.708612    1.263431   -0.008102
  C     -0.699666    1.217589   -0.009942
  H      1.283513   -2.125515   -0.013363
  H     -1.285093    2.138713   -0.009038
  C     -1.509688   -2.548043   -0.017242
  H     -2.182378   -2.530206   -0.894243
  H     -2.180594   -2.535322    0.861245
  C     -0.708611   -3.852555   -0.021718
  H     -0.045377   -3.880501   -0.905977
  H     -0.045441   -3.886600    0.862377
  C     -1.603186   -5.097748   -0.025923
  H     -2.269586   -5.070311    0.856270
  H     -2.268554   -5.065066   -0.908715
  C     -0.811642   -6.407882   -0.029365
  H     -0.163127   -6.486668    0.860305
  H     -0.161649   -6.481086   -0.918435
  C      1.483960    2.566701   -0.004836
  H      2.159953    2.562804    0.870276
  H      2.160515    2.566853   -0.879537
  C      0.662999    3.858831   -0.002137
  H      0.000591    3.884733   -0.887173
  H     -0.000881    3.880108    0.881917
  C      1.540854    5.116159    0.001806
  H      2.206133    5.092323    0.884894
  H      2.207958    5.096581   -0.880007
  C      0.732381    6.415841    0.004122
  H      0.081081    6.481192    0.892854
  H      0.083265    6.485731   -0.885860
  C      4.053310   -0.041189   -0.009378
  H     -1.480462   -7.283854   -0.032687
  H      1.389551    7.300598    0.007195
  C      5.481187   -0.085650   -0.008586
  C      6.162322   -1.322563   -0.012255
  C      7.556386   -1.361278   -0.011394
  C      8.297343   -0.174069   -0.006934
  C      7.632552    1.057518   -0.003328
  C      6.238850    1.105969   -0.004137
  H      9.389310   -0.208771   -0.006270
  H      8.204901    1.988374    0.000175
  H      5.582883   -2.247731   -0.015759
  H      5.718665    2.065740   -0.001296
  H      8.069533   -2.326054   -0.014261

----------------------------
CARTESIAN COORDINATES (A.U.)
----------------------------
  NO LB      ZA    FRAG     MASS         X           Y           Z
   0 C     6.0000    0    12.011    5.351338   -0.011785   -0.015631
   1 C     6.0000    0    12.011   -2.483364   -0.027917   -0.024431
   2 C     6.0000    0    12.011   -1.330066   -2.380976   -0.026983
   3 C     6.0000    0    12.011    1.321473   -2.274413   -0.023487
   4 C     6.0000    0    12.011    2.650073    0.043478   -0.018032
   5 C     6.0000    0    12.011    1.339083    2.387539   -0.015311
   6 C     6.0000    0    12.011   -1.322177    2.300909   -0.018788
   7 H     1.0000    0     1.008    2.425488   -4.016642   -0.025253
   8 H     1.0000    0     1.008   -2.428474    4.041583   -0.017079
   9 C     6.0000    0    12.011   -2.852898   -4.815103   -0.032583
  10 H     1.0000    0     1.008   -4.124097   -4.781396   -1.689874
  11 H     1.0000    0     1.008   -4.120726   -4.791064    1.627518
  12 C     6.0000    0    12.011   -1.339080   -7.280273   -0.041042
  13 H     1.0000    0     1.008   -0.085750   -7.333084   -1.712048
  14 H     1.0000    0     1.008   -0.085871   -7.344609    1.629656
  15 C     6.0000    0    12.011   -3.029583   -9.633348   -0.048987
  16 H     1.0000    0     1.008   -4.288897   -9.581498    1.618115
  17 H     1.0000    0     1.008   -4.286946   -9.571588   -1.717223
  18 C     6.0000    0    12.011   -1.533781  -12.109141   -0.055493
  19 H     1.0000    0     1.008   -0.308266  -12.258027    1.625740
  20 H     1.0000    0     1.008   -0.305472  -12.247478   -1.735591
  21 C     6.0000    0    12.011    2.804278    4.850361   -0.009138
  22 H     1.0000    0     1.008    4.081720    4.842998    1.644584
  23 H     1.0000    0     1.008    4.082782    4.850648   -1.662084
  24 C     6.0000    0    12.011    1.252887    7.292135   -0.004038
  25 H     1.0000    0     1.008    0.001116    7.341081   -1.676515
  26 H     1.0000    0     1.008   -0.001665    7.332341    1.666581
  27 C     6.0000    0    12.011    2.911791    9.668140    0.003413
  28 H     1.0000    0     1.008    4.168988    9.623096    1.672208
  29 H     1.0000    0     1.008    4.172435    9.631142   -1.662972
  30 C     6.0000    0    12.011    1.384000   12.124183    0.007789
  31 H     1.0000    0     1.008    0.153221   12.247679    1.687249
  32 H     1.0000    0     1.008    0.157348   12.256256   -1.674034
  33 C     6.0000    0    12.011    7.659646   -0.077837   -0.017722
  34 H     1.0000    0     1.008   -2.797668  -13.764489   -0.061769
  35 H     1.0000    0     1.008    2.625870   13.796131    0.013597
  36 C     6.0000    0    12.011   10.357943   -0.161856   -0.016225
  37 C     6.0000    0    12.011   11.645101   -2.499282   -0.023159
  38 C     6.0000    0    12.011   14.279499   -2.572442   -0.021531
  39 C     6.0000    0    12.011   15.679706   -0.328942   -0.013103
  40 C     6.0000    0    12.011   14.423433    1.998419   -0.006290
  41 C     6.0000    0    12.011   11.789718    2.089978   -0.007818
  42 H     1.0000    0     1.008   17.743224   -0.394519   -0.011848
  43 H     1.0000    0     1.008   15.505016    3.757482    0.000330
  44 H     1.0000    0     1.008   10.550119   -4.247595   -0.029780
  45 H     1.0000    0     1.008   10.806712    3.903684   -0.002449
  46 H     1.0000    0     1.008   15.249208   -4.395604   -0.026950

--------------------------------
INTERNAL COORDINATES (ANGSTROEM)
--------------------------------
 C      0   0   0     0.000000000000     0.00000000     0.00000000
 C      1   0   0     4.145956972330     0.00000000     0.00000000
 C      2   1   0     1.386705572751    64.00736294     0.00000000
 C      3   2   1     1.404267951800   113.80917769     0.00000000
 C      4   3   2     1.413787197441   122.12254984     0.00000000
 C      5   4   3     1.421244947863   120.96152510     0.00000000
 C      2   1   3     1.377062606787    63.38045054   179.98672725
 H      4   3   2     1.091467392313   120.06006875   180.00610204
 H      7   2   1     1.091419179036   121.06025554   179.99031170
 C      3   2   1     1.519395131551   121.85854189   179.99808656
 H     10   3   2     1.105422690072   108.09656554    56.50943260
 H     10   3   2     1.105448549626   108.09435705   303.20586723
 C     10   3   2     1.530848508559   116.41604721   179.86468520
 H     13  10   3     1.105700237225   109.74058441   301.89712942
 H     13  10   3     1.105702136890   109.74013782    58.23028527
 C     13  10   3     1.533228643071   112.75261366   180.05856701
 H     16  13  10     1.105940861893   109.22236151   302.36419181
 H     16  13  10     1.105940819044   109.22117694    57.72338683
 C     16  13  10     1.530687250755   113.16674899   180.04284764
 H     19  16  13     1.103762615619   111.29155407    59.87662583
 H     19  16  13     1.103764246698   111.29080235   300.15912779
 C      6   5   4     1.516471559442   120.03309389   179.99259452
 H     22   6   5     1.105804072622   108.13345201   303.69586697
 H     22   6   5     1.105816078214   108.13311618    56.41713002
 C     22   6   5     1.530877596450   116.82062797   180.05506339
 H     25  22   6     1.105778211995   109.85295917   301.70259723
 H     25  22   6     1.105776140534   109.85320595    58.23059783
 C     25  22   6     1.533465937956   112.64776606   179.96973985
 H     28  25  22     1.105898182379   109.19355319   302.31931063
 H     28  25  22     1.105895613498   109.19346700    57.64583295
 C     28  25  22     1.530622738703   113.19389718   179.98322094
 H     31  28  25     1.103769590186   111.29474515    59.84551868
 H     31  28  25     1.103768522177   111.29528239   300.12698471
 C      1   2   3     1.222004700144   178.23912351     3.69132463
 H     19  16  13     1.102115396255   111.49874449   180.01907338
 H     31  28  25     1.102123287121   111.51248324   179.98555342
 C     34   1   5     1.428569279574   179.83309015   317.50147920
 C     37  34   1     1.412059114205   120.62367126    30.27733087
 C     38  37  34     1.394601310200   120.43094264   180.00345416
 C     39  38  37     1.399465157304   120.37816545     0.00000000
 C     40  39  38     1.399559028655   119.67181994     0.00000000
 C     41  40  39     1.394544231546   120.35030040     0.00000000
 H     40  39  38     1.092518596414   120.14873255   179.99977903
 H     41  40  39     1.092743427941   120.05497762   179.99924884
 H     38  37  34     1.091649007667   119.10064703     0.00000000
 H     42  41  40     1.091678109648   120.44798239   179.99797555
 H     39  38  37     1.092758465741   119.59829225   179.99953192

---------------------------
INTERNAL COORDINATES (A.U.)
---------------------------
 C      0   0   0     0.000000000000     0.00000000     0.00000000
 C      1   0   0     7.834723240724     0.00000000     0.00000000
 C      2   1   0     2.620493760881    64.00736294     0.00000000
 C      3   2   1     2.653681847544   113.80917769     0.00000000
 C      4   3   2     2.671670614808   122.12254984     0.00000000
 C      5   4   3     2.685763720680   120.96152510     0.00000000
 C      2   1   3     2.602271196091    63.38045054   179.98672725
 H      4   3   2     2.062574455578   120.06006875   180.00610204
 H      7   2   1     2.062483345686   121.06025554   179.99031170
 C      3   2   1     2.871240687844   121.85854189   179.99808656
 H     10   3   2     2.088946146458   108.09656554    56.50943260
 H     10   3   2     2.088995013933   108.09435705   303.20586723
 C     10   3   2     2.892884433698   116.41604721   179.86468520
 H     13  10   3     2.089470634567   109.74058441   301.89712942
 H     13  10   3     2.089474224414   109.74013782    58.23028527
 C     13  10   3     2.897382236087   112.75261366   180.05856701
 H     16  13  10     2.089925349290   109.22236151   302.36419181
 H     16  13  10     2.089925268318   109.22117694    57.72338683
 C     16  13  10     2.892579700612   113.16674899   180.04284764
 H     19  16  13     2.085809060381   111.29155407    59.87662583
 H     19  16  13     2.085812142674   111.29080235   300.15912779
 C      6   5   4     2.865715937226   120.03309389   179.99259452
 H     22   6   5     2.089666855030   108.13345201   303.69586697
 H     22   6   5     2.089689542312   108.13311618    56.41713002
 C     22   6   5     2.892939401846   116.82062797   180.05506339
 H     25  22   6     2.089617985527   109.85295917   301.70259723
 H     25  22   6     2.089614071033   109.85320595    58.23059783
 C     25  22   6     2.897830658434   112.64776606   179.96973985
 H     28  25  22     2.089844696697   109.19355319   302.31931063
 H     28  25  22     2.089839842217   109.19346700    57.64583295
 C     28  25  22     2.892457790501   113.19389718   179.98322094
 H     31  28  25     2.085822240402   111.29474515    59.84551868
 H     31  28  25     2.085820222158   111.29528239   300.12698471
 C      1   2   3     2.309254217638   178.23912351     3.69132463
 H     19  16  13     2.082696266900   111.49874449   180.01907338
 H     31  28  25     2.082711178476   111.51248324   179.98555342
 C     34   1   5     2.699604701728   179.83309015   317.50147920
 C     37  34   1     2.668405010756   120.62367126    30.27733087
 C     38  37  34     2.635414542286   120.43094264   180.00345416
 C     39  38  37     2.644605881270   120.37816545     0.00000000
 C     40  39  38     2.644783272414   119.67181994     0.00000000
 C     41  40  39     2.635306679262   120.35030040     0.00000000
 H     40  39  38     2.064560943438   120.14873255   179.99977903
 H     41  40  39     2.064985813450   120.05497762   179.99924884
 H     38  37  34     2.062917658858   119.10064703     0.00000000
 H     42  41  40     2.062972653632   120.44798239   179.99797555
 H     39  38  37     2.065014230774   119.59829225   179.99953192

---------------------
BASIS SET INFORMATION
---------------------
There are 2 groups of distinct atoms

 Group   1 Type C   : 17s4p1d contracted to 3s2p1d pattern {881/31/1}
 Group   2 Type H   : 4s1p contracted to 2s1p pattern {31/1}

Atom   0C    basis set group =>   1
Atom   1C    basis set group =>   1
Atom   2C    basis set group =>   1
Atom   3C    basis set group =>   1
Atom   4C    basis set group =>   1
Atom   5C    basis set group =>   1
Atom   6C    basis set group =>   1
Atom   7H    basis set group =>   2
Atom   8H    basis set group =>   2
Atom   9C    basis set group =>   1
Atom  10H    basis set group =>   2
Atom  11H    basis set group =>   2
Atom  12C    basis set group =>   1
Atom  13H    basis set group =>   2
Atom  14H    basis set group =>   2
Atom  15C    basis set group =>   1
Atom  16H    basis set group =>   2
Atom  17H    basis set group =>   2
Atom  18C    basis set group =>   1
Atom  19H    basis set group =>   2
Atom  20H    basis set group =>   2
Atom  21C    basis set group =>   1
Atom  22H    basis set group =>   2
Atom  23H    basis set group =>   2
Atom  24C    basis set group =>   1
Atom  25H    basis set group =>   2
Atom  26H    basis set group =>   2
Atom  27C    basis set group =>   1
Atom  28H    basis set group =>   2
Atom  29H    basis set group =>   2
Atom  30C    basis set group =>   1
Atom  31H    basis set group =>   2
Atom  32H    basis set group =>   2
Atom  33C    basis set group =>   1
Atom  34H    basis set group =>   2
Atom  35H    basis set group =>   2
Atom  36C    basis set group =>   1
Atom  37C    basis set group =>   1
Atom  38C    basis set group =>   1
Atom  39C    basis set group =>   1
Atom  40C    basis set group =>   1
Atom  41C    basis set group =>   1
Atom  42H    basis set group =>   2
Atom  43H    basis set group =>   2
Atom  44H    basis set group =>   2
Atom  45H    basis set group =>   2
Atom  46H    basis set group =>   2
---------------------------------
AUXILIARY/J BASIS SET INFORMATION
---------------------------------
There are 2 groups of distinct atoms

 Group   1 Type C   : 12s5p4d2f1g contracted to 6s4p3d1f1g pattern {711111/2111/211/2/1}
 Group   2 Type H   : 5s2p1d contracted to 3s1p1d pattern {311/2/1}

Atom   0C    basis set group =>   1
Atom   1C    basis set group =>   1
Atom   2C    basis set group =>   1
Atom   3C    basis set group =>   1
Atom   4C    basis set group =>   1
Atom   5C    basis set group =>   1
Atom   6C    basis set group =>   1
Atom   7H    basis set group =>   2
Atom   8H    basis set group =>   2
Atom   9C    basis set group =>   1
Atom  10H    basis set group =>   2
Atom  11H    basis set group =>   2
Atom  12C    basis set group =>   1
Atom  13H    basis set group =>   2
Atom  14H    basis set group =>   2
Atom  15C    basis set group =>   1
Atom  16H    basis set group =>   2
Atom  17H    basis set group =>   2
Atom  18C    basis set group =>   1
Atom  19H    basis set group =>   2
Atom  20H    basis set group =>   2
Atom  21C    basis set group =>   1
Atom  22H    basis set group =>   2
Atom  23H    basis set group =>   2
Atom  24C    basis set group =>   1
Atom  25H    basis set group =>   2
Atom  26H    basis set group =>   2
Atom  27C    basis set group =>   1
Atom  28H    basis set group =>   2
Atom  29H    basis set group =>   2
Atom  30C    basis set group =>   1
Atom  31H    basis set group =>   2
Atom  32H    basis set group =>   2
Atom  33C    basis set group =>   1
Atom  34H    basis set group =>   2
Atom  35H    basis set group =>   2
Atom  36C    basis set group =>   1
Atom  37C    basis set group =>   1
Atom  38C    basis set group =>   1
Atom  39C    basis set group =>   1
Atom  40C    basis set group =>   1
Atom  41C    basis set group =>   1
Atom  42H    basis set group =>   2
Atom  43H    basis set group =>   2
Atom  44H    basis set group =>   2
Atom  45H    basis set group =>   2
Atom  46H    basis set group =>   2


           ************************************************************
           *        Program running with 16 parallel MPI-processes    *
           *              working on a common directory               *
           ************************************************************
------------------------------------------------------------------------------
                           ORCA GTO INTEGRAL CALCULATION
                           -- RI-GTO INTEGRALS CHOSEN --
------------------------------------------------------------------------------
------------------------------------------------------------------------------
                   ___                                                        
                  /   \      - P O W E R E D   B Y -                         
                 /     \                                                     
                 |  |  |   _    _      __       _____    __    __             
                 |  |  |  | |  | |    /  \     |  _  \  |  |  /  |          
                  \  \/   | |  | |   /    \    | | | |  |  | /  /          
                 / \  \   | |__| |  /  /\  \   | |_| |  |  |/  /          
                |  |  |   |  __  | /  /__\  \  |    /   |      \           
                |  |  |   | |  | | |   __   |  |    \   |  |\   \          
                \     /   | |  | | |  |  |  |  | |\  \  |  | \   \       
                 \___/    |_|  |_| |__|  |__|  |_| \__\ |__|  \__/        
                                                                              
                      - O R C A' S   B I G   F R I E N D -                    
                                      &                                       
                       - I N T E G R A L  F E E D E R -                       
                                                                              
 v1 FN, 2020, v2 2021                                                         
------------------------------------------------------------------------------


Reading SHARK input file opt_cc-pVDZ.SHARKINP.tmp ... ok
----------------------
SHARK INTEGRAL PACKAGE
----------------------

Number of atoms                             ...     47
Number of basis functions                   ...    565
Number of shells                            ...    339
Maximum angular momentum                    ...      2
Integral batch strategy                     ... SHARK/LIBINT Hybrid
RI-J (if used) integral strategy            ... SPLIT-RIJ (Revised 2003 algorithm where possible)
Printlevel                                  ...      1
Contraction scheme used                     ... PARTIAL GENERAL contraction
Coulomb Range Separation                    ... NOT USED
Exchange Range Separation                   ... NOT USED
Finite Nucleus Model                        ... NOT USED
Auxiliary Coulomb fitting basis             ... AVAILABLE
   # of basis functions in Aux-J            ...   1353
   # of shells in Aux-J                     ...    455
   Maximum angular momentum in Aux-J        ...      4
Auxiliary J/K fitting basis                 ... NOT available
Auxiliary Correlation fitting basis         ... NOT available
Auxiliary 'external' fitting basis          ... NOT available
Integral threshold                          ...     2.500000e-11
Primitive cut-off                           ...     2.500000e-12
Primitive pair pre-selection threshold      ...     2.500000e-12

Calculating pre-screening integrals         ... done (  0.0 sec) Dimension = 339
Calculating pre-screening integrals (ORCA)  ... done (  0.1 sec) Dimension = 207
Organizing shell pair data                  ... done (  0.1 sec)
Shell pair information
Total number of shell pairs                 ...     57630
Shell pairs after pre-screening             ...     23705
Total number of primitive shell pairs       ...     94102
Primitive shell pairs kept                  ...     32475
          la=0 lb=0:  10393 shell pairs
          la=1 lb=0:   8341 shell pairs
          la=1 lb=1:   1482 shell pairs
          la=2 lb=0:   2479 shell pairs
          la=2 lb=1:    870 shell pairs
          la=2 lb=2:    140 shell pairs

Calculating one electron integrals          ... done (  0.0 sec)
Calculating RI/J V-Matrix + Cholesky decomp.... done (  0.2 sec)
Calculating Nuclear repulsion               ... done (  0.0 sec) ENN=   1524.480174178007 Eh

SHARK setup successfully completed in   1.0 seconds

Maximum memory used throughout the entire GTOINT-calculation: 34.3 MB


           ************************************************************
           *        Program running with 16 parallel MPI-processes    *
           *              working on a common directory               *
           ************************************************************
-------------------------------------------------------------------------------
                                 ORCA SCF
-------------------------------------------------------------------------------

------------
SCF SETTINGS
------------
Hamiltonian:
 Density Functional     Method          .... DFT(GTOs)
 Exchange Functional    Exchange        .... B88
   X-Alpha parameter    XAlpha          ....  0.666667
   Becke's b parameter  XBeta           ....  0.004200
 Correlation Functional Correlation     .... LYP
 LDA part of GGA corr.  LDAOpt          .... VWN-5
 Gradients option       PostSCFGGA      .... off
 Hybrid DFT is turned on
   Fraction HF Exchange ScalHFX         ....  0.200000
   Scaling of DF-GGA-X  ScalDFX         ....  0.720000
   Scaling of DF-GGA-C  ScalDFC         ....  0.810000
   Scaling of DF-LDA-C  ScalLDAC        ....  1.000000
   Perturbative correction              ....  0.000000
   Density functional embedding theory  .... OFF
   NL short-range parameter             ....  4.800000
 RI-approximation to the Coulomb term is turned on
   Number of AuxJ basis functions       .... 1353
   RIJ-COSX (HFX calculated with COS-X)).... on


General Settings:
 Integral files         IntName         .... opt_cc-pVDZ
 Hartree-Fock type      HFTyp           .... UHF
 Total Charge           Charge          ....    0
 Multiplicity           Mult            ....    2
 Number of Electrons    NEL             ....  157
 Basis Dimension        Dim             ....  433
 Nuclear Repulsion      ENuc            ....   1524.4801741780 Eh

Convergence Acceleration:
 DIIS                   CNVDIIS         .... on
   Start iteration      DIISMaxIt       ....    12
   Startup error        DIISStart       ....  0.200000
   # of expansion vecs  DIISMaxEq       ....     5
   Bias factor          DIISBfac        ....   1.050
   Max. coefficient     DIISMaxC        ....  10.000
 Trust-Rad. Augm. Hess. CNVTRAH         .... auto
   Auto Start mean grad. ratio tolernc. ....  1.125000
   Auto Start start iteration           ....    20
   Auto Start num. interpolation iter.  ....    10
   Max. Number of Micro iterations      ....    16
   Max. Number of Macro iterations      .... Maxiter - #DIIS iter
   Number of Davidson start vectors     ....     2
   Converg. threshold I  (grad. norm)   ....   1.000e-05
   Converg. threshold II (energy diff.) ....   1.000e-08
   Grad. Scal. Fac. for Micro threshold ....   0.100
   Minimum threshold for Micro iter.    ....   0.010
   NR start threshold (gradient norm)   ....   0.001
   Initial trust radius                 ....   0.400
   Minimum AH scaling param. (alpha)    ....   1.000
   Maximum AH scaling param. (alpha)    .... 1000.000
   Orbital update algorithm             .... Taylor
   White noise on init. David. guess    .... on
   Maximum white noise                  ....   0.010
   Quad. conv. algorithm                .... NR
 SOSCF                  CNVSOSCF        .... off
 Level Shifting         CNVShift        .... on
   Level shift para.    LevelShift      ....    0.2500
   Turn off err/grad.   ShiftErr        ....    0.0010
 Zerner damping         CNVZerner       .... off
 Static damping         CNVDamp         .... on
   Fraction old density DampFac         ....    0.7000
   Max. Damping (<1)    DampMax         ....    0.9800
   Min. Damping (>=0)   DampMin         ....    0.0000
   Turn off err/grad.   DampErr         ....    0.1000
 Fernandez-Rico         CNVRico         .... off

SCF Procedure:
 Maximum # iterations   MaxIter         ....   125
 SCF integral mode      SCFMode         .... Direct
   Integral package                     .... SHARK and LIBINT hybrid scheme
 Reset frequency        DirectResetFreq ....    20
 Integral Threshold     Thresh          ....  2.500e-11 Eh
 Primitive CutOff       TCut            ....  2.500e-12 Eh

Convergence Tolerance:
 Convergence Check Mode ConvCheckMode   .... Total+1el-Energy
 Convergence forced     ConvForced      .... 0
 Energy Change          TolE            ....  1.000e-08 Eh
 1-El. energy change                    ....  1.000e-05 Eh
 DIIS Error             TolErr          ....  5.000e-07


Diagonalization of the overlap matrix:
Smallest eigenvalue                        ... 5.295e-05
Time for diagonalization                   ...    0.050 sec
Threshold for overlap eigenvalues          ... 1.000e-08
Number of eigenvalues below threshold      ... 0
Time for construction of square roots      ...    0.040 sec
Total time needed                          ...    0.091 sec

Time for model grid setup =    0.317 sec

------------------------------
INITIAL GUESS: MODEL POTENTIAL
------------------------------
Loading Hartree-Fock densities                     ... done
Calculating cut-offs                               ... done
Initializing the effective Hamiltonian             ... done
Setting up the integral package (SHARK)            ... done
Starting the Coulomb interaction                   ... done (   0.2 sec)
Reading the grid                                   ... done
Mapping shells                                     ... done
Starting the XC term evaluation                    ... done (   0.1 sec)
  promolecular density results
     # of electrons  =    156.996548462
     EX              =   -120.430025324
     EC              =     -5.156812120
     EX+EC           =   -125.586837445
Transforming the Hamiltonian                       ... done (   0.0 sec)
Diagonalizing the Hamiltonian                      ... done (   0.0 sec)
Back transforming the eigenvectors                 ... done (   0.0 sec)
Now organizing SCF variables                       ... done
                      ------------------
                      INITIAL GUESS DONE (   1.0 sec)
                      ------------------
-------------------
DFT GRID GENERATION
-------------------

General Integration Accuracy     IntAcc      ... 4.388
Radial Grid Type                 RadialGrid  ... OptM3 with GC (2021)
Angular Grid (max. ang.)         AngularGrid ... 4 (Lebedev-302)
Angular grid pruning method      GridPruning ... 4 (adaptive)
Weight generation scheme         WeightScheme... Becke
Basis function cutoff            BFCut       ... 1.0000e-11
Integration weight cutoff        WCut        ... 1.0000e-14
Angular grids for H and He will be reduced by one unit
Partially contracted basis set               ... off
Rotationally invariant grid construction     ... off

Total number of grid points                  ...   211214
Total number of batches                      ...     3326
Average number of points per batch           ...       63
Average number of grid points per atom       ...     4494
Time for grid setup =    1.320 sec

--------------------
COSX GRID GENERATION
--------------------

GRIDX 1
-------
General Integration Accuracy     IntAcc      ... 3.816
Radial Grid Type                 RadialGrid  ... OptM3 with GC (2021)
Angular Grid (max. ang.)         AngularGrid ... 1 (Lebedev-50)
Angular grid pruning method      GridPruning ... 4 (adaptive)
Weight generation scheme         WeightScheme... Becke
Basis function cutoff            BFCut       ... 1.0000e-11
Integration weight cutoff        WCut        ... 1.0000e-14
Angular grids for H and He will be reduced by one unit
Partially contracted basis set               ... on
Rotationally invariant grid construction     ... off

Total number of grid points                  ...    26939
Total number of batches                      ...      446
Average number of points per batch           ...       60
Average number of grid points per atom       ...      573
UseSFitting                                  ... on

GRIDX 2
-------
General Integration Accuracy     IntAcc      ... 4.020
Radial Grid Type                 RadialGrid  ... OptM3 with GC (2021)
Angular Grid (max. ang.)         AngularGrid ... 2 (Lebedev-110)
Angular grid pruning method      GridPruning ... 4 (adaptive)
Weight generation scheme         WeightScheme... Becke
Basis function cutoff            BFCut       ... 1.0000e-11
Integration weight cutoff        WCut        ... 1.0000e-14
Angular grids for H and He will be reduced by one unit
Partially contracted basis set               ... on
Rotationally invariant grid construction     ... off

Total number of grid points                  ...    57171
Total number of batches                      ...      916
Average number of points per batch           ...       62
Average number of grid points per atom       ...     1216
UseSFitting                                  ... on

GRIDX 3
-------
General Integration Accuracy     IntAcc      ... 4.338
Radial Grid Type                 RadialGrid  ... OptM3 with GC (2021)
Angular Grid (max. ang.)         AngularGrid ... 3 (Lebedev-194)
Angular grid pruning method      GridPruning ... 4 (adaptive)
Weight generation scheme         WeightScheme... Becke
Basis function cutoff            BFCut       ... 1.0000e-11
Integration weight cutoff        WCut        ... 1.0000e-14
Angular grids for H and He will be reduced by one unit
Partially contracted basis set               ... on
Rotationally invariant grid construction     ... off

Total number of grid points                  ...   125073
Total number of batches                      ...     1980
Average number of points per batch           ...       63
Average number of grid points per atom       ...     2661
UseSFitting                                  ... on

Time for X-Grid setup             =    2.243 sec

 re-compute Schwartz prescreening matrix in partically contracted basis (1) ...done (   0.118 sec)
--------------
SCF ITERATIONS
--------------
ITER       Energy         Delta-E        Max-DP      RMS-DP      [F,P]     Damp
               ***  Starting incremental Fock matrix formation  ***
  0   -852.2366834567   0.000000000000 0.06799865  0.00081851  0.0869471 0.7000
  1   -852.4658587838  -0.229175327172 0.05888774  0.00065584  0.0457983 0.7000
                               ***Turning on DIIS***
  2   -852.5677332796  -0.101874495800 0.12164908  0.00126327  0.0175204 0.0000
  3   -852.7116094918  -0.143876212183 0.02757218  0.00036360  0.0249128 0.0000
  4   -852.7494340284  -0.037824536594 0.01701474  0.00015461  0.0052645 0.0000
  5   -852.7516120494  -0.002178021038 0.00322813  0.00003826  0.0016987 0.0000
  6   -852.7518138523  -0.000201802861 0.00274938  0.00002760  0.0009763 0.0000
               *** Restarting incremental Fock matrix formation ***
                                   *** Resetting DIIS ***
  7   -852.7521144605  -0.000300608154 0.00147249  0.00001610  0.0006179 0.0000
  8   -852.7521144232   0.000000037230 0.00043760  0.00000504  0.0012194 0.0000
  9   -852.7521295150  -0.000015091731 0.00068925  0.00000553  0.0003779 0.0000
 10   -852.7521350174  -0.000005502437 0.00080881  0.00000633  0.0002114 0.0000
 11   -852.7521384113  -0.000003393894 0.00040748  0.00000358  0.0002676 0.0000
 12   -852.7521397502  -0.000001338915 0.00025415  0.00000214  0.0000897 0.0000
 13   -852.7521400500  -0.000000299836 0.00009917  0.00000079  0.0000484 0.0000
 14   -852.7521401293  -0.000000079305 0.00004612  0.00000043  0.0000231 0.0000
 15   -852.7521401612  -0.000000031863 0.00001870  0.00000020  0.0000112 0.0000
 16   -852.7521401635  -0.000000002253 0.00001519  0.00000016  0.0000061 0.0000
 17   -852.7521401737  -0.000000010204 0.00000755  0.00000008  0.0000053 0.0000
 18   -852.7521401705   0.000000003140 0.00000660  0.00000008  0.0000042 0.0000
 19   -852.7521401649   0.000000005622 0.00000665  0.00000007  0.0000017 0.0000
 20   -852.7521401748  -0.000000009865 0.00001123  0.00000007  0.0000014 0.0000
                 **** Energy Check signals convergence ****

               *****************************************************
               *                     SUCCESS                       *
               *           SCF CONVERGED AFTER  21 CYCLES          *
               *****************************************************

Old exchange energy                            =    -24.574579755 Eh
New exchange energy                            =    -24.574687767 Eh
Exchange energy change after final integration =     -0.000108012 Eh
Total energy after final integration           =   -852.752248186 Eh
Final COS-X integration done in                =     7.134 sec

----------------
TOTAL SCF ENERGY
----------------

Total Energy       :         -852.75224819 Eh          -23204.56837 eV

Components:
Nuclear Repulsion  :         1524.48017418 Eh           41483.21451 eV
Electronic Energy  :        -2377.23242236 Eh          -64687.78288 eV
One Electron Energy:        -4176.86884476 Eh         -113658.37955 eV
Two Electron Energy:         1799.63642239 Eh           48970.59667 eV
Max COSX asymmetry :            0.00000056 Eh               0.00002 eV

Virial components:
Potential Energy   :        -1699.51595275 Eh          -46246.18018 eV
Kinetic Energy     :          846.76370456 Eh           23041.61181 eV
Virial Ratio       :            2.00707227


DFT components:
N(Alpha)           :       79.000191332316 electrons
N(Beta)            :       78.000188907636 electrons
N(Total)           :      157.000380239952 electrons
E(X)               :      -97.444202134565 Eh       
E(C)               :       -6.088280949974 Eh       
E(XC)              :     -103.532483084539 Eh       
DFET-embed. en.    :        0.000000000000 Eh       

---------------
SCF CONVERGENCE
---------------

  Last Energy change         ...    2.7069e-10  Tolerance :   1.0000e-08
  Last MAX-Density change    ...    0.0000e+00  Tolerance :   1.0000e-07
  Last RMS-Density change    ...    0.0000e+00  Tolerance :   5.0000e-09
  Last DIIS Error            ...    8.5067e-07  Tolerance :   5.0000e-07

             **** THE GBW FILE WAS UPDATED (opt_cc-pVDZ.gbw) ****
             **** DENSITY opt_cc-pVDZ.scfp WAS UPDATED ****
             **** ENERGY FILE WAS UPDATED (opt_cc-pVDZ.en.tmp) ****
----------------------
UHF SPIN CONTAMINATION
----------------------

Warning: in a DFT calculation there is little theoretical justification to 
         calculate <S**2> as in Hartree-Fock theory. We will do it anyways
         but you should keep in mind that the values have only limited relevance

Expectation value of <S**2>     :     0.759085
Ideal value S*(S+1) for S=0.5   :     0.750000
Deviation                       :     0.009085

             **** THE GBW FILE WAS UPDATED (opt_cc-pVDZ.gbw) ****
             **** DENSITY opt_cc-pVDZ.scfp WAS UPDATED ****
----------------
ORBITAL ENERGIES
----------------
                 SPIN UP ORBITALS
  NO   OCC          E(Eh)            E(eV) 
   0   1.0000     -10.213991      -277.9368 
   1   1.0000     -10.207000      -277.7466 
   2   1.0000     -10.203567      -277.6532 
   3   1.0000     -10.203401      -277.6487 
   4   1.0000     -10.199724      -277.5486 
   5   1.0000     -10.194575      -277.4085 
   6   1.0000     -10.194429      -277.4045 
   7   1.0000     -10.194357      -277.4025 
   8   1.0000     -10.193597      -277.3819 
   9   1.0000     -10.193259      -277.3727 
  10   1.0000     -10.192948      -277.3642 
  11   1.0000     -10.191416      -277.3225 
  12   1.0000     -10.190025      -277.2847 
  13   1.0000     -10.186685      -277.1938 
  14   1.0000     -10.186063      -277.1769 
  15   1.0000     -10.183836      -277.1163 
  16   1.0000     -10.182758      -277.0869 
  17   1.0000     -10.182590      -277.0824 
  18   1.0000     -10.182410      -277.0775 
  19   1.0000     -10.182237      -277.0728 
  20   1.0000     -10.176300      -276.9112 
  21   1.0000     -10.176134      -276.9067 
  22   1.0000      -0.870702       -23.6930 
  23   1.0000      -0.860731       -23.4217 
  24   1.0000      -0.813858       -22.1462 
  25   1.0000      -0.795878       -21.6569 
  26   1.0000      -0.786786       -21.4095 
  27   1.0000      -0.769855       -20.9488 
  28   1.0000      -0.760155       -20.6849 
  29   1.0000      -0.748583       -20.3700 
  30   1.0000      -0.732267       -19.9260 
  31   1.0000      -0.712430       -19.3862 
  32   1.0000      -0.698275       -19.0010 
  33   1.0000      -0.652731       -17.7617 
  34   1.0000      -0.630631       -17.1604 
  35   1.0000      -0.617621       -16.8063 
  36   1.0000      -0.606752       -16.5106 
  37   1.0000      -0.605575       -16.4785 
  38   1.0000      -0.582029       -15.8378 
  39   1.0000      -0.577096       -15.7036 
  40   1.0000      -0.563186       -15.3251 
  41   1.0000      -0.534627       -14.5479 
  42   1.0000      -0.506517       -13.7830 
  43   1.0000      -0.477806       -13.0018 
  44   1.0000      -0.471877       -12.8404 
  45   1.0000      -0.471419       -12.8280 
  46   1.0000      -0.470336       -12.7985 
  47   1.0000      -0.455217       -12.3871 
  48   1.0000      -0.441092       -12.0027 
  49   1.0000      -0.434779       -11.8309 
  50   1.0000      -0.427543       -11.6340 
  51   1.0000      -0.423905       -11.5350 
  52   1.0000      -0.422498       -11.4968 
  53   1.0000      -0.421907       -11.4807 
  54   1.0000      -0.417068       -11.3490 
  55   1.0000      -0.413694       -11.2572 
  56   1.0000      -0.411821       -11.2062 
  57   1.0000      -0.381151       -10.3717 
  58   1.0000      -0.378479       -10.2989 
  59   1.0000      -0.372644       -10.1402 
  60   1.0000      -0.366056        -9.9609 
  61   1.0000      -0.364286        -9.9127 
  62   1.0000      -0.358014        -9.7420 
  63   1.0000      -0.357006        -9.7146 
  64   1.0000      -0.348169        -9.4742 
  65   1.0000      -0.341188        -9.2842 
  66   1.0000      -0.334043        -9.0898 
  67   1.0000      -0.331759        -9.0276 
  68   1.0000      -0.327325        -8.9070 
  69   1.0000      -0.324791        -8.8380 
  70   1.0000      -0.322875        -8.7859 
  71   1.0000      -0.322869        -8.7857 
  72   1.0000      -0.312224        -8.4960 
  73   1.0000      -0.268079        -7.2948 
  74   1.0000      -0.265667        -7.2292 
  75   1.0000      -0.256416        -6.9774 
  76   1.0000      -0.242197        -6.5905 
  77   1.0000      -0.235962        -6.4208 
  78   1.0000      -0.209145        -5.6911 
  79   0.0000      -0.049512        -1.3473 
  80   0.0000      -0.008146        -0.2217 
  81   0.0000      -0.003243        -0.0882 
  82   0.0000       0.006348         0.1727 
  83   0.0000       0.048463         1.3187 
  84   0.0000       0.055871         1.5203 
  85   0.0000       0.061297         1.6680 
  86   0.0000       0.064279         1.7491 
  87   0.0000       0.079585         2.1656 
  88   0.0000       0.083876         2.2824 
  89   0.0000       0.084145         2.2897 
  90   0.0000       0.089483         2.4350 
  91   0.0000       0.092737         2.5235 
  92   0.0000       0.094611         2.5745 
  93   0.0000       0.102318         2.7842 
  94   0.0000       0.105415         2.8685 
  95   0.0000       0.114453         3.1144 
  96   0.0000       0.126257         3.4356 
  97   0.0000       0.128737         3.5031 
  98   0.0000       0.137898         3.7524 
  99   0.0000       0.142473         3.8769 
 100   0.0000       0.142811         3.8861 
 101   0.0000       0.144816         3.9406 
 102   0.0000       0.153251         4.1702 
 103   0.0000       0.156564         4.2603 
 104   0.0000       0.158863         4.3229 
 105   0.0000       0.161077         4.3831 
 106   0.0000       0.161801         4.4028 
 107   0.0000       0.165761         4.5106 
 108   0.0000       0.173337         4.7167 
 109   0.0000       0.176181         4.7941 
 110   0.0000       0.184659         5.0248 
 111   0.0000       0.206119         5.6088 
 112   0.0000       0.208579         5.6757 
 113   0.0000       0.212579         5.7846 
 114   0.0000       0.213946         5.8218 
 115   0.0000       0.223401         6.0791 
 116   0.0000       0.225005         6.1227 
 117   0.0000       0.233810         6.3623 
 118   0.0000       0.239321         6.5123 
 119   0.0000       0.267132         7.2690 
 120   0.0000       0.273402         7.4396 
 121   0.0000       0.281200         7.6518 
 122   0.0000       0.285888         7.7794 
 123   0.0000       0.292681         7.9642 
 124   0.0000       0.309530         8.4228 
 125   0.0000       0.314354         8.5540 
 126   0.0000       0.332723         9.0539 
 127   0.0000       0.346049         9.4165 
 128   0.0000       0.354277         9.6404 
 129   0.0000       0.366777         9.9805 
 130   0.0000       0.381694        10.3864 
 131   0.0000       0.401726        10.9315 
 132   0.0000       0.403665        10.9843 
 133   0.0000       0.411633        11.2011 
 134   0.0000       0.412162        11.2155 
 135   0.0000       0.419490        11.4149 
 136   0.0000       0.420234        11.4352 
 137   0.0000       0.428974        11.6730 
 138   0.0000       0.433469        11.7953 
 139   0.0000       0.441890        12.0244 
 140   0.0000       0.446657        12.1541 
 141   0.0000       0.453967        12.3531 
 142   0.0000       0.454929        12.3792 
 143   0.0000       0.471474        12.8295 
 144   0.0000       0.474678        12.9166 
 145   0.0000       0.481522        13.1029 
 146   0.0000       0.482604        13.1323 
 147   0.0000       0.488228        13.2854 
 148   0.0000       0.490702        13.3527 
 149   0.0000       0.493724        13.4349 
 150   0.0000       0.506866        13.7925 
 151   0.0000       0.509211        13.8563 
 152   0.0000       0.512047        13.9335 
 153   0.0000       0.512096        13.9348 
 154   0.0000       0.516777        14.0622 
 155   0.0000       0.516995        14.0681 
 156   0.0000       0.519634        14.1400 
 157   0.0000       0.524703        14.2779 
 158   0.0000       0.528476        14.3806 
 159   0.0000       0.541527        14.7357 
 160   0.0000       0.548948        14.9376 
 161   0.0000       0.549927        14.9643 
 162   0.0000       0.566458        15.4141 
 163   0.0000       0.571442        15.5497 
 164   0.0000       0.581436        15.8217 
 165   0.0000       0.587148        15.9771 
 166   0.0000       0.593769        16.1573 
 167   0.0000       0.597220        16.2512 
 168   0.0000       0.601791        16.3756 
 169   0.0000       0.616550        16.7772 
 170   0.0000       0.616599        16.7785 
 171   0.0000       0.622059        16.9271 
 172   0.0000       0.623218        16.9586 
 173   0.0000       0.629801        17.1377 
 174   0.0000       0.634456        17.2644 
 175   0.0000       0.637934        17.3591 
 176   0.0000       0.640412        17.4265 
 177   0.0000       0.641747        17.4628 
 178   0.0000       0.643283        17.5046 
 179   0.0000       0.653327        17.7779 
 180   0.0000       0.653832        17.7917 
 181   0.0000       0.659058        17.9339 
 182   0.0000       0.659328        17.9412 
 183   0.0000       0.660891        17.9837 
 184   0.0000       0.661683        18.0053 
 185   0.0000       0.670295        18.2396 
 186   0.0000       0.672384        18.2965 
 187   0.0000       0.675579        18.3834 
 188   0.0000       0.676522        18.4091 
 189   0.0000       0.681009        18.5312 
 190   0.0000       0.683256        18.5923 
 191   0.0000       0.687722        18.7139 
 192   0.0000       0.691574        18.8187 
 193   0.0000       0.691873        18.8268 
 194   0.0000       0.698131        18.9971 
 195   0.0000       0.703032        19.1305 
 196   0.0000       0.704940        19.1824 
 197   0.0000       0.707371        19.2486 
 198   0.0000       0.715778        19.4773 
 199   0.0000       0.722674        19.6650 
 200   0.0000       0.725515        19.7423 
 201   0.0000       0.735008        20.0006 
 202   0.0000       0.736292        20.0355 
 203   0.0000       0.746193        20.3050 
 204   0.0000       0.751246        20.4425 
 205   0.0000       0.765420        20.8281 
 206   0.0000       0.777309        21.1516 
 207   0.0000       0.794275        21.6133 
 208   0.0000       0.810327        22.0501 
 209   0.0000       0.815028        22.1780 
 210   0.0000       0.824284        22.4299 
 211   0.0000       0.833898        22.6915 
 212   0.0000       0.838465        22.8158 
 213   0.0000       0.839708        22.8496 
 214   0.0000       0.857222        23.3262 
 215   0.0000       0.866317        23.5737 
 216   0.0000       0.873295        23.7636 
 217   0.0000       0.891542        24.2601 
 218   0.0000       0.893469        24.3125 
 219   0.0000       0.903681        24.5904 
 220   0.0000       0.913650        24.8617 
 221   0.0000       0.923661        25.1341 
 222   0.0000       0.939770        25.5724 
 223   0.0000       0.939904        25.5761 
 224   0.0000       0.948460        25.8089 
 225   0.0000       0.966138        26.2899 
 226   0.0000       0.972589        26.4655 
 227   0.0000       0.982986        26.7484 
 228   0.0000       0.984497        26.7895 
 229   0.0000       1.002319        27.2745 
 230   0.0000       1.009004        27.4564 
 231   0.0000       1.013258        27.5721 
 232   0.0000       1.016405        27.6578 
 233   0.0000       1.024386        27.8750 
 234   0.0000       1.040998        28.3270 
 235   0.0000       1.042598        28.3705 
 236   0.0000       1.046604        28.4795 
 237   0.0000       1.054418        28.6922 
 238   0.0000       1.060798        28.8658 
 239   0.0000       1.075667        29.2704 
 240   0.0000       1.079899        29.3856 
 241   0.0000       1.098280        29.8857 
 242   0.0000       1.115548        30.3556 
 243   0.0000       1.118414        30.4336 
 244   0.0000       1.124974        30.6121 
 245   0.0000       1.147732        31.2314 
 246   0.0000       1.152328        31.3565 
 247   0.0000       1.175499        31.9869 
 248   0.0000       1.192867        32.4596 
 249   0.0000       1.198660        32.6172 
 250   0.0000       1.205013        32.7901 
 251   0.0000       1.206145        32.8209 
 252   0.0000       1.209920        32.9236 
 253   0.0000       1.218336        33.1526 
 254   0.0000       1.221000        33.2251 
 255   0.0000       1.221230        33.2314 
 256   0.0000       1.223376        33.2898 
 257   0.0000       1.232503        33.5381 
 258   0.0000       1.273737        34.6601 
 259   0.0000       1.288022        35.0489 
 260   0.0000       1.296385        35.2764 
 261   0.0000       1.301947        35.4278 
 262   0.0000       1.310676        35.6653 
 263   0.0000       1.318746        35.8849 
 264   0.0000       1.332561        36.2608 
 265   0.0000       1.348160        36.6853 
 266   0.0000       1.353513        36.8310 
 267   0.0000       1.370162        37.2840 
 268   0.0000       1.395088        37.9623 
 269   0.0000       1.405943        38.2577 
 270   0.0000       1.422813        38.7167 
 271   0.0000       1.426016        38.8039 
 272   0.0000       1.426813        38.8256 
 273   0.0000       1.430509        38.9261 
 274   0.0000       1.437867        39.1264 
 275   0.0000       1.446907        39.3723 
 276   0.0000       1.473979        40.1090 
 277   0.0000       1.476483        40.1771 
 278   0.0000       1.476784        40.1853 
 279   0.0000       1.485229        40.4151 
 280   0.0000       1.485471        40.4217 
 281   0.0000       1.492299        40.6075 
 282   0.0000       1.499670        40.8081 
 283   0.0000       1.514928        41.2233 
 284   0.0000       1.531805        41.6825 
 285   0.0000       1.533842        41.7380 
 286   0.0000       1.544537        42.0290 
 287   0.0000       1.545059        42.0432 
 288   0.0000       1.569873        42.7184 
 289   0.0000       1.587004        43.1846 
 290   0.0000       1.593659        43.3657 
 291   0.0000       1.600414        43.5495 
 292   0.0000       1.601370        43.5755 
 293   0.0000       1.603823        43.6422 
 294   0.0000       1.608648        43.7735 
 295   0.0000       1.615479        43.9594 
 296   0.0000       1.615839        43.9692 
 297   0.0000       1.626124        44.2491 
 298   0.0000       1.628462        44.3127 
 299   0.0000       1.629076        44.3294 
 300   0.0000       1.632719        44.4285 
 301   0.0000       1.638720        44.5918 
 302   0.0000       1.640697        44.6456 
 303   0.0000       1.645609        44.7793 
 304   0.0000       1.646953        44.8159 
 305   0.0000       1.647979        44.8438 
 306   0.0000       1.652599        44.9695 
 307   0.0000       1.657753        45.1097 
 308   0.0000       1.670092        45.4455 
 309   0.0000       1.672445        45.5095 
[...]
      px      :     0.021779
      py      :     0.040238

SPIN
  0 C s       :     0.000789  s :     0.000789
      pz      :     0.006931  p :     0.009270
      px      :     0.000567
      py      :     0.001771
      dz2     :    -0.000007  d :    -0.002869
      dxz     :    -0.002545
      dyz     :     0.000001
      dx2y2   :    -0.000119
      dxy     :    -0.000200
  1 C s       :     0.103571  s :     0.103571
      pz      :     0.065189  p :     0.745582
      px      :     0.669944
      py      :     0.010448
      dz2     :     0.001286  d :     0.006043
      dxz     :    -0.001593
      dyz     :    -0.000765
      dx2y2   :     0.008962
      dxy     :    -0.001847
  2 C s       :     0.000402  s :     0.000402
      pz      :    -0.029200  p :    -0.011555
      px      :     0.012891
      py      :     0.004754
      dz2     :     0.000597  d :     0.034066
      dxz     :     0.001238
      dyz     :     0.001568
      dx2y2   :     0.020673
      dxy     :     0.009990
  3 C s       :     0.007069  s :     0.007069
      pz      :     0.017881  p :     0.039520
      px      :     0.021309
      py      :     0.000330
      dz2     :     0.000415  d :     0.000644
      dxz     :    -0.001703
      dyz     :    -0.000594
      dx2y2   :    -0.000292
      dxy     :     0.002818
  4 C s       :    -0.000814  s :    -0.000814
      pz      :    -0.024984  p :    -0.027202
      px      :    -0.000677
      py      :    -0.001541
      dz2     :     0.000111  d :     0.002734
      dxz     :     0.000622
      dyz     :     0.000790
      dx2y2   :     0.001013
      dxy     :     0.000197
  5 C s       :     0.006866  s :     0.006866
      pz      :     0.018571  p :     0.043461
      px      :     0.023782
      py      :     0.001108
      dz2     :     0.000350  d :    -0.001345
      dxz     :    -0.001618
      dyz     :    -0.000565
      dx2y2   :    -0.000310
      dxy     :     0.000798
  6 C s       :    -0.000388  s :    -0.000388
      pz      :    -0.032419  p :    -0.019436
      px      :     0.008931
      py      :     0.004052
      dz2     :     0.000583  d :     0.038897
      dxz     :     0.001378
      dyz     :     0.001524
      dx2y2   :     0.023202
      dxy     :     0.012210
  7 H s       :     0.006782  s :     0.006782
      pz      :     0.000510  p :     0.001447
      px      :     0.000969
      py      :    -0.000032
  8 H s       :     0.014244  s :     0.014244
      pz      :    -0.000900  p :    -0.001346
      px      :     0.000156
      py      :    -0.000601
  9 C s       :     0.003326  s :     0.003326
      pz      :     0.000893  p :     0.009918
      px      :     0.001502
      py      :     0.007524
      dz2     :    -0.000062  d :    -0.001342
      dxz     :    -0.000817
      dyz     :    -0.000469
      dx2y2   :     0.000088
      dxy     :    -0.000081
 10 H s       :    -0.000146  s :    -0.000146
      pz      :     0.000087  p :     0.000452
      px      :     0.000311
      py      :     0.000054
 11 H s       :    -0.000162  s :    -0.000162
      pz      :     0.000086  p :     0.000451
      px      :     0.000308
      py      :     0.000057
 12 C s       :     0.000020  s :     0.000020
      pz      :     0.000014  p :     0.000362
      px      :    -0.000124
      py      :     0.000473
      dz2     :     0.000010  d :     0.000092
      dxz     :    -0.000006
      dyz     :     0.000019
      dx2y2   :     0.000067
      dxy     :     0.000001
 13 H s       :     0.000016  s :     0.000016
      pz      :    -0.000001  p :     0.000023
      px      :     0.000006
      py      :     0.000018
 14 H s       :     0.000017  s :     0.000017
      pz      :    -0.000001  p :     0.000023
      px      :     0.000006
      py      :     0.000018
 15 C s       :     0.000050  s :     0.000050
      pz      :    -0.000017  p :     0.000164
      px      :    -0.000008
      py      :     0.000189
      dz2     :     0.000004  d :     0.000020
      dxz     :     0.000000
      dyz     :    -0.000001
      dx2y2   :    -0.000002
      dxy     :     0.000018
 16 H s       :    -0.000011  s :    -0.000011
      pz      :     0.000001  p :    -0.000002
      px      :     0.000001
      py      :    -0.000004
 17 H s       :    -0.000011  s :    -0.000011
      pz      :     0.000001  p :    -0.000002
      px      :     0.000001
      py      :    -0.000004
 18 C s       :     0.000025  s :     0.000025
      pz      :     0.000006  p :     0.000134
      px      :     0.000016
      py      :     0.000112
      dz2     :     0.000001  d :     0.000002
      dxz     :    -0.000002
      dyz     :    -0.000001
      dx2y2   :     0.000003
      dxy     :     0.000002
 19 H s       :    -0.000007  s :    -0.000007
      pz      :     0.000000  p :     0.000004
      px      :     0.000001
      py      :     0.000003
 20 H s       :    -0.000007  s :    -0.000007
      pz      :     0.000000  p :     0.000004
      px      :     0.000001
      py      :     0.000003
 21 C s       :     0.000663  s :     0.000663
      pz      :    -0.000176  p :     0.003358
      px      :     0.001593
      py      :     0.001941
      dz2     :     0.000044  d :     0.001940
      dxz     :     0.000483
      dyz     :     0.000303
      dx2y2   :     0.000791
      dxy     :     0.000319
 22 H s       :     0.001635  s :     0.001635
      pz      :    -0.000011  p :     0.000197
      px      :     0.000081
      py      :     0.000126
 23 H s       :     0.001632  s :     0.001632
      pz      :    -0.000010  p :     0.000197
      px      :     0.000081
      py      :     0.000126
 24 C s       :    -0.000018  s :    -0.000018
      pz      :    -0.000067  p :     0.000365
      px      :     0.000427
      py      :     0.000005
      dz2     :     0.000018  d :     0.000147
      dxz     :     0.000011
      dyz     :    -0.000008
      dx2y2   :     0.000073
      dxy     :     0.000053
 25 H s       :     0.000073  s :     0.000073
      pz      :     0.000003  p :     0.000004
      px      :    -0.000009
      py      :     0.000009
 26 H s       :     0.000073  s :     0.000073
      pz      :     0.000003  p :     0.000004
      px      :    -0.000008
      py      :     0.000009
 27 C s       :     0.000094  s :     0.000094
      pz      :     0.000022  p :     0.000142
      px      :     0.000007
      py      :     0.000113
      dz2     :    -0.000001  d :    -0.000006
      dxz     :    -0.000005
      dyz     :    -0.000000
      dx2y2   :     0.000003
      dxy     :    -0.000003
 28 H s       :     0.000041  s :     0.000041
      pz      :     0.000003  p :     0.000010
      px      :     0.000007
      py      :     0.000000
 29 H s       :     0.000041  s :     0.000041
      pz      :     0.000003  p :     0.000010
      px      :     0.000007
      py      :     0.000000
 30 C s       :    -0.000006  s :    -0.000006
      pz      :    -0.000001  p :     0.000002
      px      :     0.000001
      py      :     0.000001
      dz2     :    -0.000001  d :     0.000000
      dxz     :     0.000001
      dyz     :     0.000001
      dx2y2   :    -0.000000
      dxy     :    -0.000001
 31 H s       :     0.000002  s :     0.000002
      pz      :     0.000000  p :     0.000001
      px      :    -0.000000
      py      :     0.000001
 32 H s       :     0.000002  s :     0.000002
      pz      :     0.000000  p :     0.000001
      px      :    -0.000000
      py      :     0.000001
 33 C s       :    -0.000485  s :    -0.000485
      pz      :    -0.012517  p :    -0.014518
      px      :    -0.000247
      py      :    -0.001754
      dz2     :     0.000052  d :     0.000769
      dxz     :     0.000551
      dyz     :     0.000000
      dx2y2   :     0.000064
      dxy     :     0.000101
 34 H s       :     0.000025  s :     0.000025
      pz      :     0.000000  p :     0.000004
      px      :     0.000002
      py      :     0.000002
 35 H s       :    -0.000007  s :    -0.000007
      pz      :    -0.000000  p :     0.000000
      px      :     0.000001
      py      :    -0.000001
 36 C s       :     0.000182  s :     0.000182
      pz      :     0.002434  p :     0.002875
      px      :     0.000313
      py      :     0.000128
      dz2     :    -0.000016  d :    -0.000967
      dxz     :    -0.000727
      dyz     :    -0.000076
      dx2y2   :    -0.000048
      dxy     :    -0.000100
 37 C s       :    -0.000145  s :    -0.000145
      pz      :    -0.003518  p :    -0.003733
      px      :    -0.000110
      py      :    -0.000104
      dz2     :     0.000014  d :     0.000200
      dxz     :     0.000088
      dyz     :     0.000056
      dx2y2   :     0.000021
      dxy     :     0.000021
 38 C s       :     0.000082  s :     0.000082
      pz      :     0.001600  p :     0.001766
      px      :     0.000096
      py      :     0.000070
      dz2     :    -0.000008  d :    -0.000357
      dxz     :    -0.000247
      dyz     :    -0.000072
      dx2y2   :    -0.000014
      dxy     :    -0.000015
 39 C s       :    -0.000132  s :    -0.000132
      pz      :    -0.003763  p :    -0.003949
      px      :    -0.000086
      py      :    -0.000100
      dz2     :     0.000016  d :     0.000141
      dxz     :     0.000017
      dyz     :     0.000082
      dx2y2   :     0.000013
      dxy     :     0.000013
 40 C s       :     0.000082  s :     0.000082
      pz      :     0.001597  p :     0.001762
      px      :     0.000093
      py      :     0.000073
      dz2     :    -0.000008  d :    -0.000357
      dxz     :    -0.000232
      dyz     :    -0.000088
      dx2y2   :    -0.000015
      dxy     :    -0.000015
 41 C s       :    -0.000145  s :    -0.000145
      pz      :    -0.003512  p :    -0.003728
      px      :    -0.000113
      py      :    -0.000102
      dz2     :     0.000014  d :     0.000199
      dxz     :     0.000094
      dyz     :     0.000049
      dx2y2   :     0.000022
      dxy     :     0.000019
 42 H s       :     0.000119  s :     0.000119
      pz      :    -0.000115  p :    -0.000134
      px      :    -0.000016
      py      :    -0.000002
 43 H s       :    -0.000051  s :    -0.000051
      pz      :     0.000046  p :     0.000056
      px      :     0.000004
      py      :     0.000006
 44 H s       :     0.000108  s :     0.000108
      pz      :    -0.000095  p :    -0.000114
      px      :    -0.000006
      py      :    -0.000013
 45 H s       :     0.000112  s :     0.000112
      pz      :    -0.000095  p :    -0.000114
      px      :    -0.000005
      py      :    -0.000014
 46 H s       :    -0.000051  s :    -0.000051
      pz      :     0.000046  p :     0.000057
      px      :     0.000004
      py      :     0.000006


                      *****************************
                      * MAYER POPULATION ANALYSIS *
                      *****************************

  NA   - Mulliken gross atomic population
  ZA   - Total nuclear charge
  QA   - Mulliken gross atomic charge
  VA   - Mayer's total valence
  BVA  - Mayer's bonded valence
  FA   - Mayer's free valence

  ATOM       NA         ZA         QA         VA         BVA        FA
  0 C      5.7665     6.0000     0.2335     2.5947     2.5946     0.0001
  1 C      6.1356     6.0000    -0.1356     3.8500     3.1051     0.7450
  2 C      6.0151     6.0000    -0.0151     4.0405     4.0358     0.0047
  3 C      5.9752     6.0000     0.0248     3.9646     3.9630     0.0016
  4 C      6.1656     6.0000    -0.1656     3.8531     3.8521     0.0009
  5 C      6.1004     6.0000    -0.1004     4.2321     4.2301     0.0020
  6 C      5.9410     6.0000     0.0590     3.9616     3.9559     0.0057
  7 H      1.0504     1.0000    -0.0504     1.0013     1.0011     0.0002
  8 H      1.0219     1.0000    -0.0219     0.9967     0.9963     0.0004
  9 C      5.9525     6.0000     0.0475     4.0310     4.0308     0.0002
 10 H      0.9743     1.0000     0.0257     0.9692     0.9692     0.0000
 11 H      0.9742     1.0000     0.0258     0.9691     0.9691     0.0000
 12 C      6.0422     6.0000    -0.0422     4.1158     4.1158     0.0000
 13 H      0.9836     1.0000     0.0164     0.9636     0.9636     0.0000
 14 H      0.9836     1.0000     0.0164     0.9635     0.9635     0.0000
 15 C      6.0258     6.0000    -0.0258     4.1175     4.1175     0.0000
 16 H      0.9938     1.0000     0.0062     0.9671     0.9671     0.0000
 17 H      0.9938     1.0000     0.0062     0.9671     0.9671     0.0000
 18 C      5.9990     6.0000     0.0010     4.0190     4.0190     0.0000
 19 H      0.9829     1.0000     0.0171     0.9774     0.9774     0.0000
 20 H      0.9829     1.0000     0.0171     0.9774     0.9774     0.0000
 21 C      5.9602     6.0000     0.0398     4.0257     4.0257     0.0000
 22 H      0.9673     1.0000     0.0327     0.9695     0.9695     0.0000
 23 H      0.9673     1.0000     0.0327     0.9694     0.9694     0.0000
 24 C      6.0349     6.0000    -0.0349     4.1117     4.1117     0.0000
 25 H      0.9849     1.0000     0.0151     0.9635     0.9635     0.0000
 26 H      0.9850     1.0000     0.0150     0.9635     0.9635     0.0000
 27 C      6.0257     6.0000    -0.0257     4.1193     4.1193     0.0000
 28 H      0.9943     1.0000     0.0057     0.9676     0.9676     0.0000
 29 H      0.9943     1.0000     0.0057     0.9675     0.9675     0.0000
 30 C      5.9963     6.0000     0.0037     4.0169     4.0169     0.0000
 31 H      0.9831     1.0000     0.0169     0.9772     0.9772     0.0000
 32 H      0.9830     1.0000     0.0170     0.9772     0.9772     0.0000
 33 C      5.8440     6.0000     0.1560     2.6601     2.6599     0.0002
 34 H      0.9871     1.0000     0.0129     0.9736     0.9736     0.0000
 35 H      0.9873     1.0000     0.0127     0.9735     0.9735     0.0000
 36 C      6.2474     6.0000    -0.2474     3.9283     3.9283     0.0000
 37 C      5.9698     6.0000     0.0302     3.9944     3.9943     0.0000
 38 C      5.9593     6.0000     0.0407     3.9986     3.9986     0.0000
 39 C      5.9675     6.0000     0.0325     3.9985     3.9985     0.0000
 40 C      5.9596     6.0000     0.0404     3.9982     3.9982     0.0000
 41 C      5.9723     6.0000     0.0277     3.9934     3.9934     0.0000
 42 H      1.0287     1.0000    -0.0287     0.9686     0.9686     0.0000
 43 H      1.0286     1.0000    -0.0286     0.9683     0.9683     0.0000
 44 H      1.0418     1.0000    -0.0418     0.9834     0.9834     0.0000
 45 H      1.0412     1.0000    -0.0412     0.9830     0.9830     0.0000
 46 H      1.0285     1.0000    -0.0285     0.9682     0.9682     0.0000

  Mayer bond orders larger than 0.100000
B(  0-C ,  4-C ) :   0.9037 B(  0-C , 33-C ) :   1.7834 B(  0-C , 36-C ) :  -0.1630 
B(  1-C ,  2-C ) :   1.3941 B(  1-C ,  6-C ) :   1.4445 B(  2-C ,  3-C ) :   1.4325 
B(  2-C ,  9-C ) :   1.0450 B(  3-C ,  4-C ) :   1.4172 B(  3-C ,  7-H ) :   0.9222 
B(  4-C ,  5-C ) :   1.4134 B(  4-C , 33-C ) :  -0.1015 B(  5-C ,  6-C ) :   1.4548 
B(  5-C , 21-C ) :   1.0884 B(  6-C ,  8-H ) :   0.9100 B(  9-C , 10-H ) :   0.9171 
B(  9-C , 11-H ) :   0.9170 B(  9-C , 12-C ) :   1.1023 B( 12-C , 13-H ) :   0.9310 
B( 12-C , 14-H ) :   0.9309 B( 12-C , 15-C ) :   1.0754 B( 15-C , 16-H ) :   0.9415 
B( 15-C , 17-H ) :   0.9415 B( 15-C , 18-C ) :   1.1056 B( 18-C , 19-H ) :   0.9666 
B( 18-C , 20-H ) :   0.9666 B( 18-C , 34-H ) :   0.9622 B( 21-C , 22-H ) :   0.8984 
B( 21-C , 23-H ) :   0.8984 B( 21-C , 24-C ) :   1.1010 B( 24-C , 25-H ) :   0.9298 
B( 24-C , 26-H ) :   0.9298 B( 24-C , 27-C ) :   1.0758 B( 27-C , 28-H ) :   0.9412 
B( 27-C , 29-H ) :   0.9412 B( 27-C , 30-C ) :   1.1061 B( 30-C , 31-H ) :   0.9662 
B( 30-C , 32-H ) :   0.9663 B( 30-C , 35-H ) :   0.9617 B( 33-C , 36-C ) :   0.9222 
B( 36-C , 37-C ) :   1.4427 B( 36-C , 41-C ) :   1.4397 B( 37-C , 38-C ) :   1.4697 
B( 37-C , 44-H ) :   0.9399 B( 38-C , 39-C ) :   1.4446 B( 38-C , 46-H ) :   0.9379 
B( 39-C , 40-C ) :   1.4440 B( 39-C , 42-H ) :   0.9432 B( 40-C , 41-C ) :   1.4699 
B( 40-C , 43-H ) :   0.9379 B( 41-C , 45-H ) :   0.9403 

-------
TIMINGS
-------

Total SCF time: 0 days 0 hours 0 min 56 sec 

Total time                  ....      56.895 sec
Sum of individual times     ....      53.415 sec  ( 93.9%)

Fock matrix formation       ....      47.869 sec  ( 84.1%)
  Split-RI-J                ....       3.710 sec  (  7.8% of F)
  Chain of spheres X        ....      30.552 sec  ( 63.8% of F)
  XC integration            ....      10.518 sec  ( 22.0% of F)
    Basis function eval.    ....       0.984 sec  (  9.4% of XC)
    Density eval.           ....       1.058 sec  ( 10.1% of XC)
    XC-Functional eval.     ....       0.244 sec  (  2.3% of XC)
    XC-Potential eval.      ....       0.548 sec  (  5.2% of XC)
Diagonalization             ....       0.904 sec  (  1.6%)
Density matrix formation    ....       0.133 sec  (  0.2%)
Population analysis         ....       0.333 sec  (  0.6%)
Initial guess               ....       0.170 sec  (  0.3%)
Orbital Transformation      ....       0.000 sec  (  0.0%)
Orbital Orthonormalization  ....       0.130 sec  (  0.2%)
DIIS solution               ....       0.656 sec  (  1.2%)
Grid generation             ....       3.349 sec  (  5.9%)

Maximum memory used throughout the entire SCF-calculation: 111.1 MB

-------------------------   --------------------
FINAL SINGLE POINT ENERGY      -852.752248306515
-------------------------   --------------------

                                *** OPTIMIZATION RUN DONE ***

                            ***************************************
                            *     ORCA property calculations      *
                            ***************************************

                                    ---------------------
                                    Active property flags
                                    ---------------------
   (+) Dipole Moment


------------------------------------------------------------------------------
                       ORCA ELECTRIC PROPERTIES CALCULATION
------------------------------------------------------------------------------

Dipole Moment Calculation                       ... on
Quadrupole Moment Calculation                   ... off
Polarizability Calculation                      ... off
GBWName                                         ... opt_cc-pVDZ.gbw
Electron density                                ... opt_cc-pVDZ.scfp
The origin for moment calculation is the CENTER OF MASS  = ( 4.014269, -0.062737 -0.019641)

-------------
DIPOLE MOMENT
-------------
                                X             Y             Z
Electronic contribution:     15.81967      -0.23800       0.01391
Nuclear contribution   :    -15.61999       0.23141      -0.01374
                        -----------------------------------------
Total Dipole Moment    :      0.19968      -0.00659       0.00017
                        -----------------------------------------
Magnitude (a.u.)       :      0.19979
Magnitude (Debye)      :      0.50783



--------------------
Rotational spectrum 
--------------------
 
Rotational constants in cm-1:     0.007051     0.004917     0.002910 
Rotational constants in MHz :   211.388096   147.419085    87.227783 

 Dipole components along the rotational axes: 
x,y,z [a.u.] :     0.153521     0.127857     0.000063 
x,y,z [Debye]:     0.390218     0.324987     0.000161 

 

Timings for individual modules:

Sum of individual times         ...      206.306 sec (=   3.438 min)
GTO integral calculation        ...        6.422 sec (=   0.107 min)   3.1 %
SCF iterations                  ...      178.073 sec (=   2.968 min)  86.3 %
SCF Gradient evaluation         ...       20.787 sec (=   0.346 min)  10.1 %
Geometry relaxation             ...        1.024 sec (=   0.017 min)   0.5 %
                             ****ORCA TERMINATED NORMALLY****
TOTAL RUN TIME: 0 days 0 hours 3 minutes 30 seconds 654 msec
