
                                 *****************
                                 * O   R   C   A *
                                 *****************

                                            #,                                       
                                            ###                                      
                                            ####                                     
                                            #####                                    
                                            ######                                   
                                           ########,                                 
                                     ,,################,,,,,                         
                               ,,#################################,,                 
                          ,,##########################################,,             
                       ,#########################################, ''#####,          
                    ,#############################################,,   '####,        
                  ,##################################################,,,,####,       
                ,###########''''           ''''###############################       
              ,#####''   ,,,,##########,,,,          '''####'''          '####       
            ,##' ,,,,###########################,,,                        '##       
           ' ,,###''''                  '''############,,,                           
         ,,##''                                '''############,,,,        ,,,,,,###''
      ,#''                                            '''#######################'''  
     '                                                          ''''####''''         
             ,#######,   #######,   ,#######,      ##                                
            ,#'     '#,  ##    ##  ,#'     '#,    #''#        ######   ,####,        
            ##       ##  ##   ,#'  ##            #'  '#       #        #'  '#        
            ##       ##  #######   ##           ,######,      #####,   #    #        
            '#,     ,#'  ##    ##  '#,     ,#' ,#      #,         ##   #,  ,#        
             '#######'   ##     ##  '#######'  #'      '#     #####' # '####'        



                  #######################################################
                  #                        -***-                        #
                  #          Department of theory and spectroscopy      #
                  #    Directorship and core code : Frank Neese         #
                  #        Max Planck Institute fuer Kohlenforschung    #
                  #                Kaiser Wilhelm Platz 1               #
                  #                 D-45470 Muelheim/Ruhr               #
                  #                      Germany                        #
                  #                                                     #
                  #                  All rights reserved                #
                  #                        -***-                        #
                  #######################################################


                         Program Version 5.0.4 -  RELEASE  -


 With contributions from (in alphabetic order):
   Daniel Aravena         : Magnetic Suceptibility
   Michael Atanasov       : Ab Initio Ligand Field Theory (pilot matlab implementation)
   Alexander A. Auer      : GIAO ZORA, VPT2 properties, NMR spectrum
   Ute Becker             : Parallelization
   Giovanni Bistoni       : ED, misc. LED, open-shell LED, HFLD
   Martin Brehm           : Molecular dynamics
   Dmytro Bykov           : SCF Hessian
   Vijay G. Chilkuri      : MRCI spin determinant printing, contributions to CSF-ICE
   Dipayan Datta          : RHF DLPNO-CCSD density
   Achintya Kumar Dutta   : EOM-CC, STEOM-CC
   Dmitry Ganyushin       : Spin-Orbit,Spin-Spin,Magnetic field MRCI
   Miquel Garcia          : C-PCM and meta-GGA Hessian, CC/C-PCM, Gaussian charge scheme
   Yang Guo               : DLPNO-NEVPT2, F12-NEVPT2, CIM, IAO-localization
   Andreas Hansen         : Spin unrestricted coupled pair/coupled cluster methods
   Benjamin Helmich-Paris : MC-RPA, TRAH-SCF, COSX integrals
   Lee Huntington         : MR-EOM, pCC
   Robert Izsak           : Overlap fitted RIJCOSX, COSX-SCS-MP3, EOM
   Marcus Kettner         : VPT2
   Christian Kollmar      : KDIIS, OOCD, Brueckner-CCSD(T), CCSD density, CASPT2, CASPT2-K
   Simone Kossmann        : Meta GGA functionals, TD-DFT gradient, OOMP2, MP2 Hessian
   Martin Krupicka        : Initial AUTO-CI
   Lucas Lang             : DCDCAS
   Marvin Lechner         : AUTO-CI (C++ implementation), FIC-MRCC
   Dagmar Lenk            : GEPOL surface, SMD
   Dimitrios Liakos       : Extrapolation schemes; Compound Job, initial MDCI parallelization
   Dimitrios Manganas     : Further ROCIS development; embedding schemes
   Dimitrios Pantazis     : SARC Basis sets
   Anastasios Papadopoulos: AUTO-CI, single reference methods and gradients
   Taras Petrenko         : DFT Hessian,TD-DFT gradient, ASA, ECA, R-Raman, ABS, FL, XAS/XES, NRVS
   Peter Pinski           : DLPNO-MP2, DLPNO-MP2 Gradient
   Christoph Reimann      : Effective Core Potentials
   Marius Retegan         : Local ZFS, SOC
   Christoph Riplinger    : Optimizer, TS searches, QM/MM, DLPNO-CCSD(T), (RO)-DLPNO pert. Triples
   Tobias Risthaus        : Range-separated hybrids, TD-DFT gradient, RPA, STAB
   Michael Roemelt        : Original ROCIS implementation
   Masaaki Saitow         : Open-shell DLPNO-CCSD energy and density
   Barbara Sandhoefer     : DKH picture change effects
   Avijit Sen             : IP-ROCIS
   Kantharuban Sivalingam : CASSCF convergence, NEVPT2, FIC-MRCI
   Bernardo de Souza      : ESD, SOC TD-DFT
   Georgi Stoychev        : AutoAux, RI-MP2 NMR, DLPNO-MP2 response
   Willem Van den Heuvel  : Paramagnetic NMR
   Boris Wezisla          : Elementary symmetry handling
   Frank Wennmohs         : Technical directorship


 We gratefully acknowledge several colleagues who have allowed us to
 interface, adapt or use parts of their codes:
   Stefan Grimme, W. Hujo, H. Kruse, P. Pracht,  : VdW corrections, initial TS optimization,
                  C. Bannwarth, S. Ehlert          DFT functionals, gCP, sTDA/sTD-DF
   Ed Valeev, F. Pavosevic, A. Kumar             : LibInt (2-el integral package), F12 methods
   Garnet Chan, S. Sharma, J. Yang, R. Olivares  : DMRG
   Ulf Ekstrom                                   : XCFun DFT Library
   Mihaly Kallay                                 : mrcc  (arbitrary order and MRCC methods)
   Jiri Pittner, Ondrej Demel                    : Mk-CCSD
   Frank Weinhold                                : gennbo (NPA and NBO analysis)
   Christopher J. Cramer and Donald G. Truhlar   : smd solvation model
   Lars Goerigk                                  : TD-DFT with DH, B97 family of functionals
   V. Asgeirsson, H. Jonsson                     : NEB implementation
   FAccTs GmbH                                   : IRC, NEB, NEB-TS, DLPNO-Multilevel, CI-OPT
                                                   MM, QMMM, 2- and 3-layer-ONIOM, Crystal-QMMM,
                                                   LR-CPCM, SF, NACMEs, symmetry and pop. for TD-DFT,
                                                   nearIR, NL-DFT gradient (VV10), updates on ESD,
                                                   ML-optimized integration grids
   S Lehtola, MJT Oliveira, MAL Marques          : LibXC Library
   Liviu Ungur et al                             : ANISO software


 Your calculation uses the libint2 library for the computation of 2-el integrals
 For citations please refer to: http://libint.valeyev.net

 Your ORCA version has been built with support for libXC version: 5.1.0
 For citations please refer to: https://tddft.org/programs/libxc/

 This ORCA versions uses:
   CBLAS   interface :  Fast vector & matrix operations
   LAPACKE interface :  Fast linear algebra routines
   SCALAPACK package :  Parallel linear algebra routines
   Shared memory     :  Shared parallel matrices
   BLAS/LAPACK       :  OpenBLAS 0.3.15  USE64BITINT DYNAMIC_ARCH NO_AFFINITY SkylakeX SINGLE_THREADED
        Core in use  :  SkylakeX
   Copyright (c) 2011-2014, The OpenBLAS Project




***************************************
The coordinates will be read from file: model.xyz
***************************************


================================================================================

----- Orbital basis set information -----
Your calculation utilizes the basis: EPR-II
   V. Barone, in Recent Advances in Density Functional Methods, Part 1 (ed. D. P. Chong), World Scientific, Singapore, 1995, p. 287.

----- AuxJ basis set information -----
Your calculation utilizes the auxiliary basis: def2/J
   F. Weigend, Phys. Chem. Chem. Phys. 8, 1057 (2006).

================================================================================
                                        WARNINGS
                       Please study these warnings very carefully!
================================================================================


WARNING: your system is open-shell and RHF/RKS was chosen
  ===> : WILL SWITCH to UHF/UKS


WARNING: Geometry Optimization
  ===> : Switching off AutoStart
         For restart on a previous wavefunction, please use MOREAD

INFO   : the flag for use of the SHARK integral package has been found!

================================================================================
                                       INPUT FILE
================================================================================
NAME = opt_EPRII.inp
|  1> ! B3LYP EPR-II OPT
|  2> %pal nprocs 16 end
|  3> *XYZFile 0 2 model.xyz
|  4> 
|  5>                          ****END OF INPUT****
================================================================================

                       *****************************
                       * Geometry Optimization Run *
                       *****************************

Geometry optimization settings:
Update method            Update   .... BFGS
Choice of coordinates    CoordSys .... Z-matrix Internals
Initial Hessian          InHess   .... Almoef's Model

Convergence Tolerances:
Energy Change            TolE     ....  5.0000e-06 Eh
Max. Gradient            TolMAXG  ....  3.0000e-04 Eh/bohr
RMS Gradient             TolRMSG  ....  1.0000e-04 Eh/bohr
Max. Displacement        TolMAXD  ....  4.0000e-03 bohr
RMS Displacement         TolRMSD  ....  2.0000e-03 bohr
Strict Convergence                ....  False
------------------------------------------------------------------------------
                        ORCA OPTIMIZATION COORDINATE SETUP
------------------------------------------------------------------------------

The optimization will be done in new redundant internal coordinates
Making redundant internal coordinates   ...  (new redundants) done
Evaluating the initial hessian          ...  (Almloef) done
Evaluating the coordinates              ...  done
Calculating the B-matrix                .... done
Calculating the G-matrix                .... done
Diagonalizing the G-matrix              .... done
Small eigenvalue found = 7.063e-04
Small eigenvalue found = 2.007e-03
Small eigenvalue found = 7.547e-03
Small eigenvalue found = 1.017e-02
Small eigenvalue found = 1.948e-02
Small eigenvalue found = 2.312e-02
Small eigenvalue found = 2.392e-02
Small eigenvalue found = 2.915e-02
Small eigenvalue found = 2.952e-02
The first mode is                       ....  113
The number of degrees of freedom        ....  135

    -----------------------------------------------------------------
                    Redundant Internal Coordinates


    -----------------------------------------------------------------
         Definition                    Initial Value    Approx d2E/dq
    -----------------------------------------------------------------
      1. B(C   2,C   1)                  1.3867         0.632404   
      2. B(C   3,C   2)                  1.4043         0.592891   
      3. B(C   4,C   0)                  1.4297         0.539913   
      4. B(C   4,C   3)                  1.4138         0.572516   
      5. B(C   5,C   4)                  1.4212         0.557044   
      6. B(C   6,C   1)                  1.3771         0.655208   
      7. B(C   6,C   5)                  1.4090         0.582619   
      8. B(H   7,C   3)                  1.0915         0.358164   
      9. B(H   8,C   6)                  1.0914         0.358227   
     10. B(C   9,C   2)                  1.5194         0.388416   
     11. B(H  10,C   9)                  1.1054         0.340265   
     12. B(H  11,C   9)                  1.1054         0.340233   
     13. B(C  12,C   9)                  1.5308         0.372412   
     14. B(H  13,C  12)                  1.1057         0.339918   
     15. B(H  14,C  12)                  1.1057         0.339916   
     16. B(C  15,C  12)                  1.5332         0.369170   
     17. B(H  16,C  15)                  1.1059         0.339618   
     18. B(H  17,C  15)                  1.1059         0.339618   
     19. B(C  18,C  15)                  1.5307         0.372633   
     20. B(H  19,C  18)                  1.1038         0.342346   
     21. B(H  20,C  18)                  1.1038         0.342344   
     22. B(C  21,C   5)                  1.5165         0.392610   
     23. B(H  22,C  21)                  1.1058         0.339789   
     24. B(H  23,C  21)                  1.1058         0.339774   
     25. B(C  24,C  21)                  1.5309         0.372372   
     26. B(H  25,C  24)                  1.1058         0.339821   
     27. B(H  26,C  24)                  1.1058         0.339823   
     28. B(C  27,C  24)                  1.5335         0.368848   
     29. B(H  28,C  27)                  1.1059         0.339671   
     30. B(H  29,C  27)                  1.1059         0.339674   
     31. B(C  30,C  27)                  1.5306         0.372721   
     32. B(H  31,C  30)                  1.1038         0.342338   
     33. B(H  32,C  30)                  1.1038         0.342339   
     34. B(C  33,C   0)                  1.2220         1.158149   
     35. B(H  34,C  18)                  1.1021         0.344424   
     36. B(H  35,C  30)                  1.1021         0.344414   
     37. B(C  36,C  33)                  1.4286         0.542255   
     38. B(C  37,C  36)                  1.4121         0.576162   
     39. B(C  38,C  37)                  1.3946         0.614324   
     40. B(C  39,C  38)                  1.3995         0.603445   
     41. B(C  40,C  39)                  1.3996         0.603237   
     42. B(C  41,C  40)                  1.3945         0.614453   
     43. B(C  41,C  36)                  1.4121         0.576074   
     44. B(H  42,C  39)                  1.0925         0.356784   
     45. B(H  43,C  40)                  1.0927         0.356489   
     46. B(H  44,C  37)                  1.0916         0.357925   
     47. B(H  45,C  41)                  1.0917         0.357887   
     48. B(H  46,C  38)                  1.0928         0.356469   
     49. L(C   4,C   0,C  33,C   3, 1) 179.5326         0.474237   
     50. L(C   4,C   0,C  33,C   3, 2) 179.8018         0.474237   
     51. A(C   2,C   1,C   6)          127.3878         0.439977   
     52. A(C   1,C   2,C   3)          113.8092         0.432127   
     53. A(C   3,C   2,C   9)          124.3323         0.396284   
     54. A(C   1,C   2,C   9)          121.8585         0.400804   
     55. A(C   2,C   3,C   4)          122.1225         0.424487   
     56. A(C   4,C   3,H   7)          117.8174         0.347876   
     57. A(C   2,C   3,H   7)          120.0601         0.349933   
     58. A(C   0,C   4,C   5)          120.3894         0.415423   
     59. A(C   0,C   4,C   3)          118.6491         0.417454   
     60. A(C   3,C   4,C   5)          120.9615         0.419784   
     61. A(C   4,C   5,C   6)          117.3529         0.421096   
     62. A(C   4,C   5,C  21)          120.0331         0.392714   
     63. A(C   6,C   5,C  21)          122.6140         0.395815   
     64. A(C   5,C   6,H   8)          120.5737         0.348914   
     65. A(C   1,C   6,H   8)          121.0603         0.355914   
     66. A(C   1,C   6,C   5)          118.3660         0.433523   
     67. A(H  10,C   9,C  12)          109.2610         0.321157   
     68. A(H  11,C   9,C  12)          109.2517         0.321152   
     69. A(C   2,C   9,C  12)          116.4160         0.365586   
     70. A(C   2,C   9,H  10)          108.0966         0.323378   
     71. A(C   2,C   9,H  11)          108.0944         0.323373   
     72. A(H  10,C   9,H  11)          105.1273         0.285724   
     73. A(H  14,C  12,C  15)          109.0946         0.320644   
     74. A(H  13,C  12,C  15)          109.1024         0.320644   
     75. A(C   9,C  12,C  15)          112.7526         0.362423   
     76. A(H  13,C  12,H  14)          106.1948         0.285638   
     77. A(C   9,C  12,H  14)          109.7401         0.321103   
     78. A(C   9,C  12,H  13)          109.7406         0.321103   
     79. A(C  12,C  15,C  18)          113.1667         0.362460   
     80. A(H  16,C  15,H  17)          105.8715         0.285559   
     81. A(C  12,C  15,H  17)          109.2212         0.320598   
     82. A(C  12,C  15,H  16)          109.2224         0.320598   
     83. A(H  16,C  15,C  18)          109.5497         0.321088   
     84. A(H  17,C  15,C  18)          109.5489         0.321088   
     85. A(H  19,C  18,H  34)          107.5928         0.286543   
     86. A(C  15,C  18,H  34)          111.4987         0.321827   
     87. A(H  20,C  18,H  34)          107.5913         0.286543   
     88. A(H  19,C  18,H  20)          107.3685         0.286272   
     89. A(C  15,C  18,H  20)          111.2908         0.321508   
     90. A(C  15,C  18,H  19)          111.2916         0.321508   
     91. A(H  23,C  21,C  24)          109.2309         0.321075   
     92. A(H  22,C  21,C  24)          109.2328         0.321077   
     93. A(C   5,C  21,C  24)          116.8206         0.366253   
     94. A(H  22,C  21,H  23)          104.5942         0.285602   
     95. A(C   5,C  21,H  23)          108.1331         0.323872   
     96. A(C   5,C  21,H  22)          108.1335         0.323874   
     97. A(H  26,C  24,C  27)          109.0178         0.320584   
     98. A(H  25,C  24,C  27)          109.0130         0.320583   
     99. A(C  21,C  24,C  27)          112.6478         0.362362   
    100. A(H  25,C  24,H  26)          106.2476         0.285613   
    101. A(C  21,C  24,H  26)          109.8532         0.321083   
    102. A(C  21,C  24,H  25)          109.8530         0.321082   
    103. A(H  29,C  27,C  30)          109.5641         0.321109   
    104. A(H  28,C  27,C  30)          109.5631         0.321108   
    105. A(C  24,C  27,C  30)          113.1939         0.362420   
    106. A(H  28,C  27,H  29)          105.8701         0.285574   
    107. A(C  24,C  27,H  29)          109.1935         0.320561   
    108. A(C  24,C  27,H  28)          109.1936         0.320560   
    109. A(H  31,C  30,H  32)          107.3653         0.286270   
    110. A(C  27,C  30,H  32)          111.2953         0.321520   
    111. A(C  27,C  30,H  31)          111.2947         0.321520   
    112. A(H  32,C  30,H  35)          107.5827         0.286541   
    113. A(H  31,C  30,H  35)          107.5819         0.286540   
    114. A(C  27,C  30,H  35)          111.5125         0.321838   
    115. L(C   0,C  33,C  36,C  37, 2) 180.1701         0.474615   
    116. L(C   0,C  33,C  36,C  37, 1) 179.8557         0.474615   
    117. A(C  37,C  36,C  41)          118.7106         0.422788   
    118. A(C  33,C  36,C  41)          120.6657         0.418237   
    119. A(C  33,C  36,C  37)          120.6237         0.418249   
    120. A(C  38,C  37,H  44)          120.4684         0.351999   
    121. A(C  36,C  37,H  44)          119.1006         0.348209   
    122. A(C  36,C  37,C  38)          120.4309         0.427680   
    123. A(C  39,C  38,H  46)          120.0235         0.350696   
    124. A(C  37,C  38,H  46)          119.5983         0.351757   
    125. A(C  37,C  38,C  39)          120.3782         0.431245   
    126. A(C  40,C  39,H  42)          120.1794         0.350728   
    127. A(C  38,C  39,H  42)          120.1487         0.350748   
    128. A(C  38,C  39,C  40)          119.6718         0.429838   
    129. A(C  41,C  40,H  43)          119.5947         0.351773   
    130. A(C  39,C  40,H  43)          120.0550         0.350679   
    131. A(C  39,C  40,C  41)          120.3503         0.431235   
    132. A(C  40,C  41,H  45)          120.4480         0.352005   
    133. A(C  36,C  41,H  45)          119.0939         0.348194   
    134. A(C  36,C  41,C  40)          120.4582         0.427685   
    135. D(C   9,C   2,C   1,C   6)    179.9832         0.025153   
    136. D(C   3,C   2,C   1,C   6)     -0.0066         0.025153   
    137. D(C   4,C   3,C   2,C   9)   -179.9930         0.024203   
    138. D(H   7,C   3,C   2,C   9)      0.0166         0.024203   
    139. D(C   4,C   3,C   2,C   1)     -0.0036         0.024203   
    140. D(H   7,C   3,C   2,C   1)   -179.9939         0.024203   
    141. D(C   5,C   4,C   3,C   2)      0.0132         0.022493   
    142. D(C   0,C   4,C   3,H   7)      0.0121         0.022493   
    143. D(C   5,C   4,C   3,H   7)   -179.9962         0.022493   
    144. D(C   0,C   4,C   3,C   2)   -179.9784         0.022493   
    145. D(C  21,C   5,C   4,C   3)    179.9926         0.021247   
    146. D(C   6,C   5,C   4,C   0)    179.9788         0.021247   
    147. D(C   6,C   5,C   4,C   3)     -0.0127         0.021247   
    148. D(C  21,C   5,C   4,C   0)     -0.0159         0.021247   
    149. D(C   5,C   6,C   1,C   2)      0.0068         0.027119   
    150. D(H   8,C   6,C   1,C   2)   -179.9947         0.027119   
    151. D(H   8,C   6,C   5,C  21)     -0.0007         0.023331   
    152. D(C   1,C   6,C   5,C  21)    179.9978         0.023331   
    153. D(C   1,C   6,C   5,C   4)      0.0033         0.023331   
    154. D(H   8,C   6,C   5,C   4)   -179.9953         0.023331   
    155. D(C  12,C   9,C   2,C   3)     -0.1467         0.011229   
    156. D(H  11,C   9,C   2,C   3)    123.1945         0.011229   
    157. D(C  12,C   9,C   2,C   1)    179.8647         0.011229   
    158. D(H  11,C   9,C   2,C   1)    -56.7941         0.011229   
    159. D(H  10,C   9,C   2,C   3)   -123.5019         0.011229   
    160. D(H  10,C   9,C   2,C   1)     56.5094         0.011229   
    161. D(H  14,C  12,C   9,C   2)     58.2303         0.011078   
    162. D(H  13,C  12,C   9,H  11)    179.1573         0.011078   
    163. D(H  13,C  12,C   9,C   2)    -58.1029         0.011078   
    164. D(H  14,C  12,C   9,H  10)   -179.0194         0.011078   
    165. D(H  13,C  12,C   9,H  10)     64.6474         0.011078   
    166. D(C  15,C  12,C   9,H  10)    -57.1911         0.011078   
    167. D(C  15,C  12,C   9,H  11)     57.3188         0.011078   
    168. D(H  14,C  12,C   9,H  11)    -64.5095         0.011078   
    169. D(C  15,C  12,C   9,C   2)   -179.9414         0.011078   
    170. D(C  18,C  15,C  12,H  14)    -57.7649         0.010898   
    171. D(C  18,C  15,C  12,C   9)   -179.9572         0.010898   
    172. D(H  17,C  15,C  12,H  14)    179.9157         0.010898   
    173. D(H  17,C  15,C  12,H  13)    -64.4750         0.010898   
    174. D(H  17,C  15,C  12,C   9)     57.7234         0.010898   
    175. D(H  16,C  15,C  12,H  13)   -179.8342         0.010898   
    176. D(H  16,C  15,C  12,H  14)     64.5565         0.010898   
    177. D(H  16,C  15,C  12,C   9)    -57.6358         0.010898   
    178. D(C  18,C  15,C  12,H  13)     57.8444         0.010898   
    179. D(H  34,C  18,C  15,H  17)    -57.8444         0.011091   
    180. D(H  34,C  18,C  15,H  16)     57.8804         0.011091   
    181. D(H  34,C  18,C  15,C  12)   -179.9809         0.011091   
    182. D(H  20,C  18,C  15,H  17)     62.2957         0.011091   
    183. D(H  20,C  18,C  15,H  16)    178.0205         0.011091   
    184. D(H  20,C  18,C  15,C  12)    -59.8409         0.011091   
    185. D(H  19,C  18,C  15,H  17)   -177.9868         0.011091   
    186. D(H  19,C  18,C  15,H  16)    -62.2620         0.011091   
    187. D(H  19,C  18,C  15,C  12)     59.8766         0.011091   
    188. D(C  24,C  21,C   5,C   4)   -179.9449         0.011460   
    189. D(H  23,C  21,C   5,C   6)   -123.5773         0.011460   
    190. D(H  23,C  21,C   5,C   4)     56.4171         0.011460   
    191. D(H  22,C  21,C   5,C   6)    123.7015         0.011460   
    192. D(C  24,C  21,C   5,C   6)      0.0607         0.011460   
    193. D(H  22,C  21,C   5,C   4)    -56.3041         0.011460   
    194. D(H  26,C  24,C  21,C   5)     58.2306         0.011076   
    195. D(H  25,C  24,C  21,H  23)     64.7766         0.011076   
    196. D(H  25,C  24,C  21,H  22)    178.6265         0.011076   
    197. D(H  25,C  24,C  21,C   5)    -58.2974         0.011076   
    198. D(C  27,C  24,C  21,H  23)    -56.9562         0.011076   
    199. D(C  27,C  24,C  21,H  22)     56.8936         0.011076   
    200. D(C  27,C  24,C  21,C   5)    179.9697         0.011076   
    201. D(H  26,C  24,C  21,H  23)   -178.6954         0.011076   
    202. D(H  26,C  24,C  21,H  22)    -64.8455         0.011076   
    203. D(C  30,C  27,C  24,H  26)    -57.8054         0.010880   
    204. D(C  30,C  27,C  24,H  25)     57.7756         0.010880   
    205. D(C  30,C  27,C  24,C  21)    179.9832         0.010880   
    206. D(H  29,C  27,C  24,H  26)    179.8572         0.010880   
    207. D(H  29,C  27,C  24,H  25)    -64.5618         0.010880   
    208. D(H  29,C  27,C  24,C  21)     57.6458         0.010880   
    209. D(H  28,C  27,C  24,H  26)     64.5307         0.010880   
    210. D(H  28,C  27,C  24,H  25)   -179.8883         0.010880   
    211. D(H  28,C  27,C  24,C  21)    -57.6807         0.010880   
    212. D(H  35,C  30,C  27,H  29)    -57.8838         0.011096   
    213. D(H  35,C  30,C  27,H  28)     57.8556         0.011096   
    214. D(H  35,C  30,C  27,C  24)    179.9856         0.011096   
    215. D(H  32,C  30,C  27,H  29)     62.2576         0.011096   
    216. D(H  32,C  30,C  27,H  28)    177.9970         0.011096   
    217. D(H  32,C  30,C  27,C  24)    -59.8730         0.011096   
    218. D(H  31,C  30,C  27,H  29)   -178.0239         0.011096   
    219. D(H  31,C  30,C  27,H  28)    -62.2845         0.011096   
    220. D(H  31,C  30,C  27,C  24)     59.8455         0.011096   
    221. D(C  41,C  36,C   4,C   5)      0.1268         0.001500   
    222. D(C  41,C  36,C   4,C   3)   -179.9233         0.001500   
    223. D(C  37,C  36,C   4,C   5)   -179.8951         0.001500   
    224. D(C  37,C  36,C   4,C   3)      0.0548         0.001500   
    225. D(H  44,C  37,C  36,C  41)   -179.9967         0.022793   
    226. D(H  44,C  37,C  36,C  33)      0.0025         0.022793   
    227. D(C  38,C  37,C  36,C  41)      0.0043         0.022793   
    228. D(C  38,C  37,C  36,C  33)   -179.9965         0.022793   
    229. D(H  46,C  38,C  37,H  44)      0.0005         0.026086   
    230. D(H  46,C  38,C  37,C  36)    179.9995         0.026086   
    231. D(C  39,C  38,C  37,H  44)    179.9984         0.026086   
    232. D(C  39,C  38,C  37,C  36)     -0.0026         0.026086   
    233. D(H  42,C  39,C  38,H  46)     -0.0024         0.025119   
    234. D(H  42,C  39,C  38,C  37)    179.9998         0.025119   
    235. D(C  40,C  39,C  38,H  46)    179.9977         0.025119   
    236. D(C  40,C  39,C  38,C  37)     -0.0001         0.025119   
    237. D(H  43,C  40,C  39,H  42)     -0.0007         0.025101   
    238. D(H  43,C  40,C  39,C  38)    179.9992         0.025101   
    239. D(C  41,C  40,C  39,H  42)   -179.9988         0.025101   
    240. D(C  41,C  40,C  39,C  38)      0.0011         0.025101   
    241. D(H  45,C  41,C  40,H  43)     -0.0002         0.026097   
    242. D(H  45,C  41,C  40,C  39)    179.9980         0.026097   
    243. D(C  36,C  41,C  40,H  43)   -179.9975         0.026097   
    244. D(C  36,C  41,C  40,C  39)      0.0006         0.026097   
    245. D(H  45,C  41,C  36,C  37)    179.9993         0.022786   
    246. D(H  45,C  41,C  36,C  33)      0.0001         0.022786   
    247. D(C  40,C  41,C  36,C  37)     -0.0033         0.022786   
    248. D(C  40,C  41,C  36,C  33)    179.9975         0.022786   
    -----------------------------------------------------------------

Number of atoms                         .... 47
Number of degrees of freedom            .... 248

         *************************************************************
         *                GEOMETRY OPTIMIZATION CYCLE   1            *
         *************************************************************
---------------------------------
CARTESIAN COORDINATES (ANGSTROEM)
---------------------------------
  C      2.831806   -0.006236   -0.008272
  C     -1.314139   -0.014773   -0.012929
  C     -0.703841   -1.259958   -0.014279
  C      0.699293   -1.203568   -0.012429
  C      1.402358    0.023007   -0.009542
  C      0.708612    1.263431   -0.008102
  C     -0.699666    1.217589   -0.009942
  H      1.283513   -2.125515   -0.013363
  H     -1.285093    2.138713   -0.009038
  C     -1.509688   -2.548043   -0.017242
  H     -2.182378   -2.530206   -0.894243
  H     -2.180594   -2.535322    0.861245
  C     -0.708611   -3.852555   -0.021718
  H     -0.045377   -3.880501   -0.905977
  H     -0.045441   -3.886600    0.862377
  C     -1.603186   -5.097748   -0.025923
  H     -2.269586   -5.070311    0.856270
  H     -2.268554   -5.065066   -0.908715
  C     -0.811642   -6.407882   -0.029365
  H     -0.163127   -6.486668    0.860305
  H     -0.161649   -6.481086   -0.918435
  C      1.483960    2.566701   -0.004836
  H      2.159953    2.562804    0.870276
  H      2.160515    2.566853   -0.879537
  C      0.662999    3.858831   -0.002137
  H      0.000591    3.884733   -0.887173
  H     -0.000881    3.880108    0.881917
  C      1.540854    5.116159    0.001806
  H      2.206133    5.092323    0.884894
  H      2.207958    5.096581   -0.880007
  C      0.732381    6.415841    0.004122
  H      0.081081    6.481192    0.892854
  H      0.083265    6.485731   -0.885860
  C      4.053310   -0.041189   -0.009378
  H     -1.480462   -7.283854   -0.032687
  H      1.389551    7.300598    0.007195
  C      5.481187   -0.085650   -0.008586
  C      6.162322   -1.322563   -0.012255
  C      7.556386   -1.361278   -0.011394
  C      8.297343   -0.174069   -0.006934
  C      7.632552    1.057518   -0.003328
  C      6.238850    1.105969   -0.004137
  H      9.389310   -0.208771   -0.006270
  H      8.204901    1.988374    0.000175
  H      5.582883   -2.247731   -0.015759
  H      5.718665    2.065740   -0.001296
  H      8.069533   -2.326054   -0.014261

----------------------------
CARTESIAN COORDINATES (A.U.)
----------------------------
  NO LB      ZA    FRAG     MASS         X           Y           Z
   0 C     6.0000    0    12.011    5.351338   -0.011785   -0.015631
   1 C     6.0000    0    12.011   -2.483364   -0.027917   -0.024431
   2 C     6.0000    0    12.011   -1.330066   -2.380976   -0.026983
   3 C     6.0000    0    12.011    1.321473   -2.274413   -0.023487
   4 C     6.0000    0    12.011    2.650073    0.043478   -0.018032
   5 C     6.0000    0    12.011    1.339083    2.387539   -0.015311
   6 C     6.0000    0    12.011   -1.322177    2.300909   -0.018788
   7 H     1.0000    0     1.008    2.425488   -4.016642   -0.025253
   8 H     1.0000    0     1.008   -2.428474    4.041583   -0.017079
   9 C     6.0000    0    12.011   -2.852898   -4.815103   -0.032583
  10 H     1.0000    0     1.008   -4.124097   -4.781396   -1.689874
  11 H     1.0000    0     1.008   -4.120726   -4.791064    1.627518
  12 C     6.0000    0    12.011   -1.339080   -7.280273   -0.041042
  13 H     1.0000    0     1.008   -0.085750   -7.333084   -1.712048
  14 H     1.0000    0     1.008   -0.085871   -7.344609    1.629656
  15 C     6.0000    0    12.011   -3.029583   -9.633348   -0.048987
  16 H     1.0000    0     1.008   -4.288897   -9.581498    1.618115
  17 H     1.0000    0     1.008   -4.286946   -9.571588   -1.717223
  18 C     6.0000    0    12.011   -1.533781  -12.109141   -0.055493
  19 H     1.0000    0     1.008   -0.308266  -12.258027    1.625740
  20 H     1.0000    0     1.008   -0.305472  -12.247478   -1.735591
  21 C     6.0000    0    12.011    2.804278    4.850361   -0.009138
  22 H     1.0000    0     1.008    4.081720    4.842998    1.644584
  23 H     1.0000    0     1.008    4.082782    4.850648   -1.662084
  24 C     6.0000    0    12.011    1.252887    7.292135   -0.004038
  25 H     1.0000    0     1.008    0.001116    7.341081   -1.676515
  26 H     1.0000    0     1.008   -0.001665    7.332341    1.666581
  27 C     6.0000    0    12.011    2.911791    9.668140    0.003413
  28 H     1.0000    0     1.008    4.168988    9.623096    1.672208
  29 H     1.0000    0     1.008    4.172435    9.631142   -1.662972
  30 C     6.0000    0    12.011    1.384000   12.124183    0.007789
  31 H     1.0000    0     1.008    0.153221   12.247679    1.687249
  32 H     1.0000    0     1.008    0.157348   12.256256   -1.674034
  33 C     6.0000    0    12.011    7.659646   -0.077837   -0.017722
  34 H     1.0000    0     1.008   -2.797668  -13.764489   -0.061769
  35 H     1.0000    0     1.008    2.625870   13.796131    0.013597
  36 C     6.0000    0    12.011   10.357943   -0.161856   -0.016225
  37 C     6.0000    0    12.011   11.645101   -2.499282   -0.023159
  38 C     6.0000    0    12.011   14.279499   -2.572442   -0.021531
  39 C     6.0000    0    12.011   15.679706   -0.328942   -0.013103
  40 C     6.0000    0    12.011   14.423433    1.998419   -0.006290
  41 C     6.0000    0    12.011   11.789718    2.089978   -0.007818
  42 H     1.0000    0     1.008   17.743224   -0.394519   -0.011848
  43 H     1.0000    0     1.008   15.505016    3.757482    0.000330
  44 H     1.0000    0     1.008   10.550119   -4.247595   -0.029780
  45 H     1.0000    0     1.008   10.806712    3.903684   -0.002449
  46 H     1.0000    0     1.008   15.249208   -4.395604   -0.026950

--------------------------------
INTERNAL COORDINATES (ANGSTROEM)
--------------------------------
 C      0   0   0     0.000000000000     0.00000000     0.00000000
 C      1   0   0     4.145956972330     0.00000000     0.00000000
 C      2   1   0     1.386705572751    64.00736294     0.00000000
 C      3   2   1     1.404267951800   113.80917769     0.00000000
 C      4   3   2     1.413787197441   122.12254984     0.00000000
 C      5   4   3     1.421244947863   120.96152510     0.00000000
 C      2   1   3     1.377062606787    63.38045054   179.98672725
 H      4   3   2     1.091467392313   120.06006875   180.00610204
 H      7   2   1     1.091419179036   121.06025554   179.99031170
 C      3   2   1     1.519395131551   121.85854189   179.99808656
 H     10   3   2     1.105422690072   108.09656554    56.50943260
 H     10   3   2     1.105448549626   108.09435705   303.20586723
 C     10   3   2     1.530848508559   116.41604721   179.86468520
 H     13  10   3     1.105700237225   109.74058441   301.89712942
 H     13  10   3     1.105702136890   109.74013782    58.23028527
 C     13  10   3     1.533228643071   112.75261366   180.05856701
 H     16  13  10     1.105940861893   109.22236151   302.36419181
 H     16  13  10     1.105940819044   109.22117694    57.72338683
 C     16  13  10     1.530687250755   113.16674899   180.04284764
 H     19  16  13     1.103762615619   111.29155407    59.87662583
 H     19  16  13     1.103764246698   111.29080235   300.15912779
 C      6   5   4     1.516471559442   120.03309389   179.99259452
 H     22   6   5     1.105804072622   108.13345201   303.69586697
 H     22   6   5     1.105816078214   108.13311618    56.41713002
 C     22   6   5     1.530877596450   116.82062797   180.05506339
 H     25  22   6     1.105778211995   109.85295917   301.70259723
 H     25  22   6     1.105776140534   109.85320595    58.23059783
 C     25  22   6     1.533465937956   112.64776606   179.96973985
 H     28  25  22     1.105898182379   109.19355319   302.31931063
 H     28  25  22     1.105895613498   109.19346700    57.64583295
 C     28  25  22     1.530622738703   113.19389718   179.98322094
 H     31  28  25     1.103769590186   111.29474515    59.84551868
 H     31  28  25     1.103768522177   111.29528239   300.12698471
 C      1   2   3     1.222004700144   178.23912351     3.69132463
 H     19  16  13     1.102115396255   111.49874449   180.01907338
 H     31  28  25     1.102123287121   111.51248324   179.98555342
 C     34   1   5     1.428569279574   179.83309015   317.50147920
 C     37  34   1     1.412059114205   120.62367126    30.27733087
 C     38  37  34     1.394601310200   120.43094264   180.00345416
 C     39  38  37     1.399465157304   120.37816545     0.00000000
 C     40  39  38     1.399559028655   119.67181994     0.00000000
 C     41  40  39     1.394544231546   120.35030040     0.00000000
 H     40  39  38     1.092518596414   120.14873255   179.99977903
 H     41  40  39     1.092743427941   120.05497762   179.99924884
 H     38  37  34     1.091649007667   119.10064703     0.00000000
 H     42  41  40     1.091678109648   120.44798239   179.99797555
 H     39  38  37     1.092758465741   119.59829225   179.99953192

---------------------------
INTERNAL COORDINATES (A.U.)
---------------------------
 C      0   0   0     0.000000000000     0.00000000     0.00000000
 C      1   0   0     7.834723240724     0.00000000     0.00000000
 C      2   1   0     2.620493760881    64.00736294     0.00000000
 C      3   2   1     2.653681847544   113.80917769     0.00000000
 C      4   3   2     2.671670614808   122.12254984     0.00000000
 C      5   4   3     2.685763720680   120.96152510     0.00000000
 C      2   1   3     2.602271196091    63.38045054   179.98672725
 H      4   3   2     2.062574455578   120.06006875   180.00610204
 H      7   2   1     2.062483345686   121.06025554   179.99031170
 C      3   2   1     2.871240687844   121.85854189   179.99808656
 H     10   3   2     2.088946146458   108.09656554    56.50943260
 H     10   3   2     2.088995013933   108.09435705   303.20586723
 C     10   3   2     2.892884433698   116.41604721   179.86468520
 H     13  10   3     2.089470634567   109.74058441   301.89712942
 H     13  10   3     2.089474224414   109.74013782    58.23028527
 C     13  10   3     2.897382236087   112.75261366   180.05856701
 H     16  13  10     2.089925349290   109.22236151   302.36419181
 H     16  13  10     2.089925268318   109.22117694    57.72338683
 C     16  13  10     2.892579700612   113.16674899   180.04284764
 H     19  16  13     2.085809060381   111.29155407    59.87662583
 H     19  16  13     2.085812142674   111.29080235   300.15912779
 C      6   5   4     2.865715937226   120.03309389   179.99259452
 H     22   6   5     2.089666855030   108.13345201   303.69586697
 H     22   6   5     2.089689542312   108.13311618    56.41713002
 C     22   6   5     2.892939401846   116.82062797   180.05506339
 H     25  22   6     2.089617985527   109.85295917   301.70259723
 H     25  22   6     2.089614071033   109.85320595    58.23059783
 C     25  22   6     2.897830658434   112.64776606   179.96973985
 H     28  25  22     2.089844696697   109.19355319   302.31931063
 H     28  25  22     2.089839842217   109.19346700    57.64583295
 C     28  25  22     2.892457790501   113.19389718   179.98322094
 H     31  28  25     2.085822240402   111.29474515    59.84551868
 H     31  28  25     2.085820222158   111.29528239   300.12698471
 C      1   2   3     2.309254217638   178.23912351     3.69132463
 H     19  16  13     2.082696266900   111.49874449   180.01907338
 H     31  28  25     2.082711178476   111.51248324   179.98555342
 C     34   1   5     2.699604701728   179.83309015   317.50147920
 C     37  34   1     2.668405010756   120.62367126    30.27733087
 C     38  37  34     2.635414542286   120.43094264   180.00345416
 C     39  38  37     2.644605881270   120.37816545     0.00000000
 C     40  39  38     2.644783272414   119.67181994     0.00000000
 C     41  40  39     2.635306679262   120.35030040     0.00000000
 H     40  39  38     2.064560943438   120.14873255   179.99977903
 H     41  40  39     2.064985813450   120.05497762   179.99924884
 H     38  37  34     2.062917658858   119.10064703     0.00000000
 H     42  41  40     2.062972653632   120.44798239   179.99797555
 H     39  38  37     2.065014230774   119.59829225   179.99953192

---------------------
BASIS SET INFORMATION
---------------------
There are 2 groups of distinct atoms

 Group   1 Type C   : 10s5p1d contracted to 6s2p1d pattern {511111/41/1}
 Group   2 Type H   : 6s1p contracted to 4s1p pattern {3111/1}

Atom   0C    basis set group =>   1
Atom   1C    basis set group =>   1
Atom   2C    basis set group =>   1
Atom   3C    basis set group =>   1
Atom   4C    basis set group =>   1
Atom   5C    basis set group =>   1
Atom   6C    basis set group =>   1
Atom   7H    basis set group =>   2
Atom   8H    basis set group =>   2
Atom   9C    basis set group =>   1
Atom  10H    basis set group =>   2
Atom  11H    basis set group =>   2
Atom  12C    basis set group =>   1
Atom  13H    basis set group =>   2
Atom  14H    basis set group =>   2
Atom  15C    basis set group =>   1
Atom  16H    basis set group =>   2
Atom  17H    basis set group =>   2
Atom  18C    basis set group =>   1
Atom  19H    basis set group =>   2
Atom  20H    basis set group =>   2
Atom  21C    basis set group =>   1
Atom  22H    basis set group =>   2
Atom  23H    basis set group =>   2
Atom  24C    basis set group =>   1
Atom  25H    basis set group =>   2
Atom  26H    basis set group =>   2
Atom  27C    basis set group =>   1
Atom  28H    basis set group =>   2
Atom  29H    basis set group =>   2
Atom  30C    basis set group =>   1
Atom  31H    basis set group =>   2
Atom  32H    basis set group =>   2
Atom  33C    basis set group =>   1
Atom  34H    basis set group =>   2
Atom  35H    basis set group =>   2
Atom  36C    basis set group =>   1
Atom  37C    basis set group =>   1
Atom  38C    basis set group =>   1
Atom  39C    basis set group =>   1
Atom  40C    basis set group =>   1
Atom  41C    basis set group =>   1
Atom  42H    basis set group =>   2
Atom  43H    basis set group =>   2
Atom  44H    basis set group =>   2
Atom  45H    basis set group =>   2
Atom  46H    basis set group =>   2
---------------------------------
AUXILIARY/J BASIS SET INFORMATION
---------------------------------
There are 2 groups of distinct atoms

 Group   1 Type C   : 12s5p4d2f1g contracted to 6s4p3d1f1g pattern {711111/2111/211/2/1}
 Group   2 Type H   : 5s2p1d contracted to 3s1p1d pattern {311/2/1}

Atom   0C    basis set group =>   1
Atom   1C    basis set group =>   1
Atom   2C    basis set group =>   1
Atom   3C    basis set group =>   1
Atom   4C    basis set group =>   1
Atom   5C    basis set group =>   1
Atom   6C    basis set group =>   1
Atom   7H    basis set group =>   2
Atom   8H    basis set group =>   2
Atom   9C    basis set group =>   1
Atom  10H    basis set group =>   2
Atom  11H    basis set group =>   2
Atom  12C    basis set group =>   1
Atom  13H    basis set group =>   2
Atom  14H    basis set group =>   2
Atom  15C    basis set group =>   1
Atom  16H    basis set group =>   2
Atom  17H    basis set group =>   2
Atom  18C    basis set group =>   1
Atom  19H    basis set group =>   2
Atom  20H    basis set group =>   2
Atom  21C    basis set group =>   1
Atom  22H    basis set group =>   2
Atom  23H    basis set group =>   2
Atom  24C    basis set group =>   1
Atom  25H    basis set group =>   2
Atom  26H    basis set group =>   2
Atom  27C    basis set group =>   1
Atom  28H    basis set group =>   2
Atom  29H    basis set group =>   2
Atom  30C    basis set group =>   1
Atom  31H    basis set group =>   2
Atom  32H    basis set group =>   2
Atom  33C    basis set group =>   1
Atom  34H    basis set group =>   2
Atom  35H    basis set group =>   2
Atom  36C    basis set group =>   1
Atom  37C    basis set group =>   1
Atom  38C    basis set group =>   1
Atom  39C    basis set group =>   1
Atom  40C    basis set group =>   1
Atom  41C    basis set group =>   1
Atom  42H    basis set group =>   2
Atom  43H    basis set group =>   2
Atom  44H    basis set group =>   2
Atom  45H    basis set group =>   2
Atom  46H    basis set group =>   2


           ************************************************************
           *        Program running with 16 parallel MPI-processes    *
           *              working on a common directory               *
           ************************************************************
------------------------------------------------------------------------------
                           ORCA GTO INTEGRAL CALCULATION
                           -- RI-GTO INTEGRALS CHOSEN --
------------------------------------------------------------------------------
------------------------------------------------------------------------------
                   ___                                                        
                  /   \      - P O W E R E D   B Y -                         
                 /     \                                                     
                 |  |  |   _    _      __       _____    __    __             
                 |  |  |  | |  | |    /  \     |  _  \  |  |  /  |          
                  \  \/   | |  | |   /    \    | | | |  |  | /  /          
                 / \  \   | |__| |  /  /\  \   | |_| |  |  |/  /          
                |  |  |   |  __  | /  /__\  \  |    /   |      \           
                |  |  |   | |  | | |   __   |  |    \   |  |\   \          
                \     /   | |  | | |  |  |  |  | |\  \  |  | \   \       
                 \___/    |_|  |_| |__|  |__|  |_| \__\ |__|  \__/        
                                                                              
                      - O R C A' S   B I G   F R I E N D -                    
                                      &                                       
                       - I N T E G R A L  F E E D E R -                       
                                                                              
 v1 FN, 2020, v2 2021                                                         
------------------------------------------------------------------------------


Reading SHARK input file opt_EPRII.SHARKINP.tmp ... ok
----------------------
SHARK INTEGRAL PACKAGE
----------------------

Number of atoms                             ...     47
Number of basis functions                   ...    549
Number of shells                            ...    323
Maximum angular momentum                    ...      2
Integral batch strategy                     ... SHARK/LIBINT Hybrid
RI-J (if used) integral strategy            ... SPLIT-RIJ (Revised 2003 algorithm where possible)
Printlevel                                  ...      1
Contraction scheme used                     ... SEGMENTED contraction
Coulomb Range Separation                    ... NOT USED
Exchange Range Separation                   ... NOT USED
Finite Nucleus Model                        ... NOT USED
Auxiliary Coulomb fitting basis             ... AVAILABLE
   # of basis functions in Aux-J            ...   1353
   # of shells in Aux-J                     ...    455
   Maximum angular momentum in Aux-J        ...      4
Auxiliary J/K fitting basis                 ... NOT available
Auxiliary Correlation fitting basis         ... NOT available
Auxiliary 'external' fitting basis          ... NOT available
Integral threshold                          ...     2.500000e-11
Primitive cut-off                           ...     2.500000e-12
Primitive pair pre-selection threshold      ...     2.500000e-12

Calculating pre-screening integrals         ... done (  0.0 sec) Dimension = 323
Organizing shell pair data                  ... done (  0.2 sec)
Shell pair information
Total number of shell pairs                 ...     52326
Shell pairs after pre-screening             ...     27123
Total number of primitive shell pairs       ...    139555
Primitive shell pairs kept                  ...     51138
          la=0 lb=0:  12511 shell pairs
          la=1 lb=0:   9320 shell pairs
          la=1 lb=1:   1655 shell pairs
          la=2 lb=0:   2545 shell pairs
          la=2 lb=1:    952 shell pairs
          la=2 lb=2:    140 shell pairs

Calculating one electron integrals          ... done (  0.0 sec)
Calculating RI/J V-Matrix + Cholesky decomp.... done (  0.2 sec)
Calculating Nuclear repulsion               ... done (  0.0 sec) ENN=   1524.480174178007 Eh

SHARK setup successfully completed in   1.0 seconds

Maximum memory used throughout the entire GTOINT-calculation: 37.7 MB


           ************************************************************
           *        Program running with 16 parallel MPI-processes    *
           *              working on a common directory               *
           ************************************************************
-------------------------------------------------------------------------------
                                 ORCA SCF
-------------------------------------------------------------------------------

------------
SCF SETTINGS
------------
Hamiltonian:
 Density Functional     Method          .... DFT(GTOs)
 Exchange Functional    Exchange        .... B88
   X-Alpha parameter    XAlpha          ....  0.666667
   Becke's b parameter  XBeta           ....  0.004200
 Correlation Functional Correlation     .... LYP
 LDA part of GGA corr.  LDAOpt          .... VWN-5
 Gradients option       PostSCFGGA      .... off
 Hybrid DFT is turned on
   Fraction HF Exchange ScalHFX         ....  0.200000
   Scaling of DF-GGA-X  ScalDFX         ....  0.720000
   Scaling of DF-GGA-C  ScalDFC         ....  0.810000
   Scaling of DF-LDA-C  ScalLDAC        ....  1.000000
   Perturbative correction              ....  0.000000
   Density functional embedding theory  .... OFF
   NL short-range parameter             ....  4.800000
 RI-approximation to the Coulomb term is turned on
   Number of AuxJ basis functions       .... 1353
   RIJ-COSX (HFX calculated with COS-X)).... on


General Settings:
 Integral files         IntName         .... opt_EPRII
 Hartree-Fock type      HFTyp           .... UHF
 Total Charge           Charge          ....    0
 Multiplicity           Mult            ....    2
 Number of Electrons    NEL             ....  157
 Basis Dimension        Dim             ....  549
 Nuclear Repulsion      ENuc            ....   1524.4801741780 Eh

Convergence Acceleration:
 DIIS                   CNVDIIS         .... on
   Start iteration      DIISMaxIt       ....    12
   Startup error        DIISStart       ....  0.200000
   # of expansion vecs  DIISMaxEq       ....     5
   Bias factor          DIISBfac        ....   1.050
   Max. coefficient     DIISMaxC        ....  10.000
 Trust-Rad. Augm. Hess. CNVTRAH         .... auto
   Auto Start mean grad. ratio tolernc. ....  1.125000
   Auto Start start iteration           ....    20
   Auto Start num. interpolation iter.  ....    10
   Max. Number of Micro iterations      ....    16
   Max. Number of Macro iterations      .... Maxiter - #DIIS iter
   Number of Davidson start vectors     ....     2
   Converg. threshold I  (grad. norm)   ....   1.000e-05
   Converg. threshold II (energy diff.) ....   1.000e-08
   Grad. Scal. Fac. for Micro threshold ....   0.100
   Minimum threshold for Micro iter.    ....   0.010
   NR start threshold (gradient norm)   ....   0.001
   Initial trust radius                 ....   0.400
   Minimum AH scaling param. (alpha)    ....   1.000
   Maximum AH scaling param. (alpha)    .... 1000.000
   Orbital update algorithm             .... Taylor
   White noise on init. David. guess    .... on
   Maximum white noise                  ....   0.010
   Quad. conv. algorithm                .... NR
 SOSCF                  CNVSOSCF        .... off
 Level Shifting         CNVShift        .... on
   Level shift para.    LevelShift      ....    0.2500
   Turn off err/grad.   ShiftErr        ....    0.0010
 Zerner damping         CNVZerner       .... off
 Static damping         CNVDamp         .... on
   Fraction old density DampFac         ....    0.7000
   Max. Damping (<1)    DampMax         ....    0.9800
   Min. Damping (>=0)   DampMin         ....    0.0000
   Turn off err/grad.   DampErr         ....    0.1000
 Fernandez-Rico         CNVRico         .... off

SCF Procedure:
 Maximum # iterations   MaxIter         ....   125
 SCF integral mode      SCFMode         .... Direct
   Integral package                     .... SHARK and LIBINT hybrid scheme
 Reset frequency        DirectResetFreq ....    20
 Integral Threshold     Thresh          ....  2.500e-11 Eh
 Primitive CutOff       TCut            ....  2.500e-12 Eh

Convergence Tolerance:
 Convergence Check Mode ConvCheckMode   .... Total+1el-Energy
 Convergence forced     ConvForced      .... 0
 Energy Change          TolE            ....  1.000e-08 Eh
 1-El. energy change                    ....  1.000e-05 Eh
 DIIS Error             TolErr          ....  5.000e-07


Diagonalization of the overlap matrix:
Smallest eigenvalue                        ... 7.944e-05
Time for diagonalization                   ...    0.055 sec
Threshold for overlap eigenvalues          ... 1.000e-08
Number of eigenvalues below threshold      ... 0
Time for construction of square roots      ...    0.052 sec
Total time needed                          ...    0.108 sec

Time for model grid setup =    0.300 sec

------------------------------
INITIAL GUESS: MODEL POTENTIAL
------------------------------
Loading Hartree-Fock densities                     ... done
Calculating cut-offs                               ... done
Initializing the effective Hamiltonian             ... done
Setting up the integral package (SHARK)            ... done
Starting the Coulomb interaction                   ... done (   0.3 sec)
Reading the grid                                   ... done
Mapping shells                                     ... done
Starting the XC term evaluation                    ... done (   0.1 sec)
  promolecular density results
     # of electrons  =    156.996548462
     EX              =   -120.430025324
     EC              =     -5.156812120
     EX+EC           =   -125.586837445
Transforming the Hamiltonian                       ... done (   0.0 sec)
Diagonalizing the Hamiltonian                      ... done (   0.0 sec)
Back transforming the eigenvectors                 ... done (   0.0 sec)
Now organizing SCF variables                       ... done
                      ------------------
                      INITIAL GUESS DONE (   1.1 sec)
                      ------------------
-------------------
DFT GRID GENERATION
-------------------

General Integration Accuracy     IntAcc      ... 4.388
Radial Grid Type                 RadialGrid  ... OptM3 with GC (2021)
Angular Grid (max. ang.)         AngularGrid ... 4 (Lebedev-302)
Angular grid pruning method      GridPruning ... 4 (adaptive)
Weight generation scheme         WeightScheme... Becke
Basis function cutoff            BFCut       ... 1.0000e-11
Integration weight cutoff        WCut        ... 1.0000e-14
Angular grids for H and He will be reduced by one unit
Partially contracted basis set               ... off
Rotationally invariant grid construction     ... off

Total number of grid points                  ...   211214
Total number of batches                      ...     3326
Average number of points per batch           ...       63
Average number of grid points per atom       ...     4494
Time for grid setup =    1.246 sec

--------------------
COSX GRID GENERATION
--------------------

GRIDX 1
-------
General Integration Accuracy     IntAcc      ... 3.816
Radial Grid Type                 RadialGrid  ... OptM3 with GC (2021)
Angular Grid (max. ang.)         AngularGrid ... 1 (Lebedev-50)
Angular grid pruning method      GridPruning ... 4 (adaptive)
Weight generation scheme         WeightScheme... Becke
Basis function cutoff            BFCut       ... 1.0000e-11
Integration weight cutoff        WCut        ... 1.0000e-14
Angular grids for H and He will be reduced by one unit
Partially contracted basis set               ... on
Rotationally invariant grid construction     ... off

Total number of grid points                  ...    26939
Total number of batches                      ...      446
Average number of points per batch           ...       60
Average number of grid points per atom       ...      573
UseSFitting                                  ... on

GRIDX 2
-------
General Integration Accuracy     IntAcc      ... 4.020
Radial Grid Type                 RadialGrid  ... OptM3 with GC (2021)
Angular Grid (max. ang.)         AngularGrid ... 2 (Lebedev-110)
Angular grid pruning method      GridPruning ... 4 (adaptive)
Weight generation scheme         WeightScheme... Becke
Basis function cutoff            BFCut       ... 1.0000e-11
Integration weight cutoff        WCut        ... 1.0000e-14
Angular grids for H and He will be reduced by one unit
Partially contracted basis set               ... on
Rotationally invariant grid construction     ... off

Total number of grid points                  ...    57171
Total number of batches                      ...      916
Average number of points per batch           ...       62
Average number of grid points per atom       ...     1216
UseSFitting                                  ... on

GRIDX 3
-------
General Integration Accuracy     IntAcc      ... 4.338
Radial Grid Type                 RadialGrid  ... OptM3 with GC (2021)
Angular Grid (max. ang.)         AngularGrid ... 3 (Lebedev-194)
Angular grid pruning method      GridPruning ... 4 (adaptive)
Weight generation scheme         WeightScheme... Becke
Basis function cutoff            BFCut       ... 1.0000e-11
Integration weight cutoff        WCut        ... 1.0000e-14
Angular grids for H and He will be reduced by one unit
Partially contracted basis set               ... on
Rotationally invariant grid construction     ... off

Total number of grid points                  ...   125073
Total number of batches                      ...     1980
Average number of points per batch           ...       63
Average number of grid points per atom       ...     2661
UseSFitting                                  ... on

Time for X-Grid setup             =    2.373 sec

--------------
SCF ITERATIONS
--------------
ITER       Energy         Delta-E        Max-DP      RMS-DP      [F,P]     Damp
               ***  Starting incremental Fock matrix formation  ***
  0   -852.3182986156   0.000000000000 0.06360454  0.00073348  0.0796299 0.7000
  1   -852.5433172137  -0.225018598023 0.03080494  0.00050722  0.0426301 0.7000
                               ***Turning on DIIS***
  2   -852.6432104359  -0.099893222192 0.06007906  0.00098700  0.0165423 0.0000
  3   -852.7833028540  -0.140092418167 0.03322908  0.00032390  0.0233675 0.0000
  4   -852.8218829862  -0.038580132161 0.03315765  0.00016673  0.0046263 0.0000
  5   -852.8235359011  -0.001652914917 0.01647658  0.00007453  0.0019665 0.0000
  6   -852.8237079073  -0.000172006237 0.01271477  0.00005793  0.0009623 0.0000
               *** Restarting incremental Fock matrix formation ***
                                   *** Resetting DIIS ***
  7   -852.8240372228  -0.000329315452 0.00225065  0.00001841  0.0006833 0.0000
  8   -852.8240368360   0.000000386796 0.00057943  0.00000465  0.0013610 0.0000
  9   -852.8240531255  -0.000016289512 0.00103825  0.00000537  0.0004174 0.0000
 10   -852.8240586438  -0.000005518323 0.00112451  0.00000584  0.0002367 0.0000
 11   -852.8240622917  -0.000003647889 0.00053803  0.00000303  0.0002421 0.0000
 12   -852.8240634606  -0.000001168861 0.00036056  0.00000212  0.0001053 0.0000
 13   -852.8240638124  -0.000000351858 0.00011643  0.00000064  0.0000348 0.0000
 14   -852.8240638719  -0.000000059472 0.00006292  0.00000043  0.0000235 0.0000
 15   -852.8240638917  -0.000000019750 0.00003358  0.00000024  0.0000124 0.0000
 16   -852.8240639076  -0.000000015934 0.00006318  0.00000026  0.0000063 0.0000
 17   -852.8240638959   0.000000011689 0.00005052  0.00000019  0.0000051 0.0000
 18   -852.8240638895   0.000000006411 0.00002151  0.00000012  0.0000046 0.0000
 19   -852.8240638896  -0.000000000111 0.00004703  0.00000018  0.0000024 0.0000
 20   -852.8240638924  -0.000000002813 0.00000945  0.00000011  0.0000015 0.0000
                            ***DIIS convergence achieved***

               *****************************************************
               *                     SUCCESS                       *
               *           SCF CONVERGED AFTER  21 CYCLES          *
               *****************************************************

Old exchange energy                            =    -24.545285911 Eh
New exchange energy                            =    -24.545278367 Eh
Exchange energy change after final integration =      0.000007544 Eh
Total energy after final integration           =   -852.824056333 Eh
Final COS-X integration done in                =     8.708 sec

----------------
TOTAL SCF ENERGY
----------------

Total Energy       :         -852.82405633 Eh          -23206.52237 eV

Components:
Nuclear Repulsion  :         1524.48017418 Eh           41483.21451 eV
Electronic Energy  :        -2377.30423051 Eh          -64689.73687 eV
One Electron Energy:        -4176.83746011 Eh         -113657.52553 eV
Two Electron Energy:         1799.53322959 Eh           48967.78865 eV
Max COSX asymmetry :            0.00000379 Eh               0.00010 eV

Virial components:
Potential Energy   :        -1698.86193415 Eh          -46228.38343 eV
Kinetic Energy     :          846.03787782 Eh           23021.86106 eV
Virial Ratio       :            2.00802113


DFT components:
N(Alpha)           :       79.000177490984 electrons
N(Beta)            :       78.000178411304 electrons
N(Total)           :      157.000355902288 electrons
E(X)               :      -97.348909104003 Eh       
E(C)               :       -6.090128541958 Eh       
E(XC)              :     -103.439037645961 Eh       
DFET-embed. en.    :        0.000000000000 Eh       

---------------
SCF CONVERGENCE
---------------

  Last Energy change         ...    1.5208e-08  Tolerance :   1.0000e-08
  Last MAX-Density change    ...    0.0000e+00  Tolerance :   1.0000e-07
  Last RMS-Density change    ...    0.0000e+00  Tolerance :   5.0000e-09
  Last DIIS Error            ...    8.6965e-07  Tolerance :   5.0000e-07

             **** THE GBW FILE WAS UPDATED (opt_EPRII.gbw) ****
             **** DENSITY opt_EPRII.scfp WAS UPDATED ****
             **** ENERGY FILE WAS UPDATED (opt_EPRII.en.tmp) ****
----------------------
UHF SPIN CONTAMINATION
----------------------

Warning: in a DFT calculation there is little theoretical justification to 
         calculate <S**2> as in Hartree-Fock theory. We will do it anyways
         but you should keep in mind that the values have only limited relevance

Expectation value of <S**2>     :     0.759340
Ideal value S*(S+1) for S=0.5   :     0.750000
Deviation                       :     0.009340

             **** THE GBW FILE WAS UPDATED (opt_EPRII.gbw) ****
             **** DENSITY opt_EPRII.scfp WAS UPDATED ****
----------------
ORBITAL ENERGIES
----------------
                 SPIN UP ORBITALS
  NO   OCC          E(Eh)            E(eV) 
   0   1.0000     -10.225128      -278.2399 
   1   1.0000     -10.216628      -278.0086 
   2   1.0000     -10.213521      -277.9240 
   3   1.0000     -10.212730      -277.9025 
   4   1.0000     -10.209356      -277.8107 
   5   1.0000     -10.202919      -277.6355 
   6   1.0000     -10.202772      -277.6315 
   7   1.0000     -10.202562      -277.6258 
   8   1.0000     -10.202072      -277.6125 
   9   1.0000     -10.201837      -277.6061 
  10   1.0000     -10.201067      -277.5851 
  11   1.0000     -10.198836      -277.5244 
  12   1.0000     -10.198512      -277.5156 
  13   1.0000     -10.196203      -277.4528 
  14   1.0000     -10.190925      -277.3092 
  15   1.0000     -10.187895      -277.2267 
  16   1.0000     -10.183353      -277.1031 
  17   1.0000     -10.183108      -277.0965 
  18   1.0000     -10.183075      -277.0956 
  19   1.0000     -10.182858      -277.0896 
  20   1.0000     -10.173742      -276.8416 
  21   1.0000     -10.173676      -276.8398 
  22   1.0000      -0.870134       -23.6775 
  23   1.0000      -0.860940       -23.4274 
  24   1.0000      -0.812176       -22.1004 
  25   1.0000      -0.793868       -21.6022 
  26   1.0000      -0.786859       -21.4115 
  27   1.0000      -0.768775       -20.9194 
  28   1.0000      -0.759907       -20.6781 
  29   1.0000      -0.749103       -20.3841 
  30   1.0000      -0.730471       -19.8771 
  31   1.0000      -0.712855       -19.3978 
  32   1.0000      -0.697012       -18.9667 
  33   1.0000      -0.651464       -17.7272 
  34   1.0000      -0.630707       -17.1624 
  35   1.0000      -0.616870       -16.7859 
  36   1.0000      -0.607558       -16.5325 
  37   1.0000      -0.605568       -16.4783 
  38   1.0000      -0.581500       -15.8234 
  39   1.0000      -0.576269       -15.6811 
  40   1.0000      -0.562819       -15.3151 
  41   1.0000      -0.535892       -14.5824 
  42   1.0000      -0.506471       -13.7818 
  43   1.0000      -0.479135       -13.0379 
  44   1.0000      -0.470974       -12.8159 
  45   1.0000      -0.470862       -12.8128 
  46   1.0000      -0.469945       -12.7879 
  47   1.0000      -0.454845       -12.3770 
  48   1.0000      -0.441371       -12.0103 
  49   1.0000      -0.435959       -11.8630 
  50   1.0000      -0.426767       -11.6129 
  51   1.0000      -0.423329       -11.5194 
  52   1.0000      -0.422681       -11.5017 
  53   1.0000      -0.422271       -11.4906 
  54   1.0000      -0.416932       -11.3453 
  55   1.0000      -0.412988       -11.2380 
  56   1.0000      -0.411276       -11.1914 
  57   1.0000      -0.381005       -10.3677 
  58   1.0000      -0.377517       -10.2728 
  59   1.0000      -0.372400       -10.1335 
  60   1.0000      -0.365111        -9.9352 
  61   1.0000      -0.363727        -9.8975 
  62   1.0000      -0.359304        -9.7772 
  63   1.0000      -0.356823        -9.7096 
  64   1.0000      -0.349675        -9.5152 
  65   1.0000      -0.341136        -9.2828 
  66   1.0000      -0.332729        -9.0540 
  67   1.0000      -0.330960        -9.0059 
  68   1.0000      -0.326087        -8.8733 
  69   1.0000      -0.324095        -8.8191 
  70   1.0000      -0.322195        -8.7674 
  71   1.0000      -0.321601        -8.7512 
  72   1.0000      -0.312531        -8.5044 
  73   1.0000      -0.268575        -7.3083 
  74   1.0000      -0.266570        -7.2537 
  75   1.0000      -0.257082        -6.9955 
  76   1.0000      -0.242240        -6.5917 
  77   1.0000      -0.237140        -6.4529 
  78   1.0000      -0.209996        -5.7143 
  79   0.0000      -0.051455        -1.4002 
  80   0.0000      -0.012373        -0.3367 
  81   0.0000      -0.005359        -0.1458 
  82   0.0000       0.003483         0.0948 
  83   0.0000       0.016105         0.4382 
  84   0.0000       0.022364         0.6085 
  85   0.0000       0.023216         0.6317 
  86   0.0000       0.032413         0.8820 
  87   0.0000       0.034585         0.9411 
  88   0.0000       0.037179         1.0117 
  89   0.0000       0.046162         1.2561 
  90   0.0000       0.048534         1.3207 
  91   0.0000       0.056624         1.5408 
  92   0.0000       0.061343         1.6692 
  93   0.0000       0.067325         1.8320 
  94   0.0000       0.071149         1.9361 
  95   0.0000       0.077990         2.1222 
  96   0.0000       0.085660         2.3309 
  97   0.0000       0.091799         2.4980 
  98   0.0000       0.094753         2.5783 
  99   0.0000       0.100645         2.7387 
 100   0.0000       0.106753         2.9049 
 101   0.0000       0.118161         3.2153 
 102   0.0000       0.128766         3.5039 
 103   0.0000       0.138623         3.7721 
 104   0.0000       0.139962         3.8086 
 105   0.0000       0.152275         4.1436 
 106   0.0000       0.161938         4.4066 
 107   0.0000       0.168679         4.5900 
 108   0.0000       0.172675         4.6987 
 109   0.0000       0.177140         4.8202 
 110   0.0000       0.180614         4.9148 
 111   0.0000       0.191223         5.2034 
 112   0.0000       0.192383         5.2350 
 113   0.0000       0.192939         5.2501 
 114   0.0000       0.197698         5.3796 
 115   0.0000       0.199948         5.4409 
 116   0.0000       0.200844         5.4652 
 117   0.0000       0.207592         5.6489 
 118   0.0000       0.209551         5.7022 
 119   0.0000       0.215508         5.8643 
 120   0.0000       0.221632         6.0309 
 121   0.0000       0.221745         6.0340 
 122   0.0000       0.225238         6.1290 
 123   0.0000       0.230734         6.2786 
 124   0.0000       0.235367         6.4047 
 125   0.0000       0.240381         6.5411 
 126   0.0000       0.245266         6.6740 
 127   0.0000       0.251693         6.8489 
 128   0.0000       0.254120         6.9150 
 129   0.0000       0.255577         6.9546 
 130   0.0000       0.257214         6.9992 
 131   0.0000       0.259762         7.0685 
 132   0.0000       0.268167         7.2972 
 133   0.0000       0.274075         7.4580 
 134   0.0000       0.275538         7.4978 
 135   0.0000       0.277846         7.5606 
 136   0.0000       0.281341         7.6557 
 137   0.0000       0.283709         7.7201 
 138   0.0000       0.285155         7.7595 
 139   0.0000       0.291256         7.9255 
 140   0.0000       0.294536         8.0147 
 141   0.0000       0.295578         8.0431 
 142   0.0000       0.302620         8.2347 
 143   0.0000       0.303535         8.2596 
 144   0.0000       0.309243         8.4149 
 145   0.0000       0.310452         8.4478 
 146   0.0000       0.313143         8.5211 
 147   0.0000       0.314908         8.5691 
 148   0.0000       0.318587         8.6692 
 149   0.0000       0.321748         8.7552 
 150   0.0000       0.321964         8.7611 
 151   0.0000       0.328733         8.9453 
 152   0.0000       0.331919         9.0320 
 153   0.0000       0.334721         9.1082 
 154   0.0000       0.345411         9.3991 
 155   0.0000       0.346085         9.4175 
 156   0.0000       0.348571         9.4851 
 157   0.0000       0.350721         9.5436 
 158   0.0000       0.355114         9.6631 
 159   0.0000       0.368063        10.0155 
 160   0.0000       0.368492        10.0272 
 161   0.0000       0.373701        10.1689 
 162   0.0000       0.377833        10.2814 
 163   0.0000       0.379603        10.3295 
 164   0.0000       0.387019        10.5313 
 165   0.0000       0.393416        10.7054 
 166   0.0000       0.402712        10.9583 
 167   0.0000       0.405727        11.0404 
 168   0.0000       0.413165        11.2428 
 169   0.0000       0.417236        11.3536 
 170   0.0000       0.418514        11.3884 
 171   0.0000       0.423865        11.5340 
 172   0.0000       0.429650        11.6914 
 173   0.0000       0.433609        11.7991 
 174   0.0000       0.434369        11.8198 
 175   0.0000       0.439633        11.9630 
 176   0.0000       0.448810        12.2128 
 177   0.0000       0.452403        12.3105 
 178   0.0000       0.456843        12.4313 
 179   0.0000       0.457350        12.4451 
 180   0.0000       0.461530        12.5589 
 181   0.0000       0.468437        12.7468 
 182   0.0000       0.472660        12.8617 
 183   0.0000       0.475957        12.9515 
 184   0.0000       0.483119        13.1463 
 185   0.0000       0.483887        13.1672 
 186   0.0000       0.493129        13.4187 
 187   0.0000       0.499422        13.5900 
 188   0.0000       0.505646        13.7593 
 189   0.0000       0.516367        14.0511 
 190   0.0000       0.520612        14.1666 
 191   0.0000       0.521233        14.1835 
 192   0.0000       0.523771        14.2525 
 193   0.0000       0.535233        14.5644 
 194   0.0000       0.540538        14.7088 
 195   0.0000       0.545403        14.8412 
 196   0.0000       0.559873        15.2349 
 197   0.0000       0.561324        15.2744 
 198   0.0000       0.561749        15.2860 
 199   0.0000       0.566087        15.4040 
 200   0.0000       0.582081        15.8392 
 201   0.0000       0.592025        16.1098 
 202   0.0000       0.601098        16.3567 
 203   0.0000       0.601937        16.3795 
 204   0.0000       0.612232        16.6597 
 205   0.0000       0.628019        17.0893 
 206   0.0000       0.639529        17.4025 
 207   0.0000       0.643090        17.4994 
 208   0.0000       0.658054        17.9066 
 209   0.0000       0.660149        17.9636 
 210   0.0000       0.672207        18.2917 
 211   0.0000       0.674244        18.3471 
 212   0.0000       0.686548        18.6819 
 213   0.0000       0.695032        18.9128 
 214   0.0000       0.695348        18.9214 
 215   0.0000       0.715044        19.4573 
 216   0.0000       0.729679        19.8556 
 217   0.0000       0.756131        20.5754 
 218   0.0000       0.760351        20.6902 
 219   0.0000       0.765976        20.8433 
 220   0.0000       0.777242        21.1498 
 221   0.0000       0.783390        21.3171 
 222   0.0000       0.814849        22.1732 
 223   0.0000       0.833257        22.6741 
 224   0.0000       0.834674        22.7126 
 225   0.0000       0.843556        22.9543 
 226   0.0000       0.844688        22.9851 
 227   0.0000       0.848135        23.0789 
 228   0.0000       0.852733        23.2040 
 229   0.0000       0.865772        23.5589 
 230   0.0000       0.867157        23.5965 
 231   0.0000       0.867368        23.6023 
 232   0.0000       0.879703        23.9379 
 233   0.0000       0.893100        24.3025 
 234   0.0000       0.895075        24.3562 
 235   0.0000       0.897411        24.4198 
 236   0.0000       0.902243        24.5513 
 237   0.0000       0.904579        24.6149 
 238   0.0000       0.917128        24.9563 
 239   0.0000       0.920099        25.0372 
 240   0.0000       0.924220        25.1493 
 241   0.0000       0.924605        25.1598 
 242   0.0000       0.927588        25.2410 
 243   0.0000       0.932306        25.3693 
 244   0.0000       0.934729        25.4353 
 245   0.0000       0.936954        25.4958 
 246   0.0000       0.948498        25.8099 
 247   0.0000       0.950274        25.8583 
 248   0.0000       0.956117        26.0173 
 249   0.0000       0.968616        26.3574 
 250   0.0000       0.973510        26.4906 
 251   0.0000       0.978884        26.6368 
 252   0.0000       0.984099        26.7787 
 253   0.0000       0.984600        26.7923 
 254   0.0000       0.994109        27.0511 
 255   0.0000       0.996215        27.1084 
 256   0.0000       1.000323        27.2202 
 257   0.0000       1.004592        27.3363 
 258   0.0000       1.016344        27.6561 
 259   0.0000       1.016782        27.6680 
 260   0.0000       1.023193        27.8425 
 261   0.0000       1.026254        27.9258 
 262   0.0000       1.034952        28.1625 
 263   0.0000       1.043194        28.3867 
 264   0.0000       1.047658        28.5082 
 265   0.0000       1.055210        28.7137 
 266   0.0000       1.061041        28.8724 
 267   0.0000       1.067087        29.0369 
 268   0.0000       1.072356        29.1803 
 269   0.0000       1.091535        29.7022 
 270   0.0000       1.098778        29.8993 
 271   0.0000       1.100492        29.9459 
 272   0.0000       1.102414        29.9982 
 273   0.0000       1.115083        30.3430 
 274   0.0000       1.117777        30.4163 
 275   0.0000       1.124139        30.5894 
 276   0.0000       1.134128        30.8612 
 277   0.0000       1.146280        31.1919 
 278   0.0000       1.161544        31.6072 
 279   0.0000       1.170081        31.8395 
 280   0.0000       1.174927        31.9714 
 281   0.0000       1.177213        32.0336 
 282   0.0000       1.181669        32.1548 
 283   0.0000       1.199715        32.6459 
 284   0.0000       1.204256        32.7695 
 285   0.0000       1.204746        32.7828 
 286   0.0000       1.205338        32.7989 
 287   0.0000       1.232221        33.5304 
 288   0.0000       1.237686        33.6792 
 289   0.0000       1.251693        34.0603 
 290   0.0000       1.259942        34.2848 
 291   0.0000       1.274592        34.6834 
 292   0.0000       1.288158        35.0526 
 293   0.0000       1.296334        35.2750 
 294   0.0000       1.307360        35.5751 
 295   0.0000       1.314999        35.7829 
 296   0.0000       1.322386        35.9840 
 297   0.0000       1.327298        36.1176 
 298   0.0000       1.336708        36.3737 
 299   0.0000       1.357259        36.9329 
 300   0.0000       1.364244        37.1230 
 301   0.0000       1.382574        37.6217 
 302   0.0000       1.385147        37.6918 
 303   0.0000       1.390424        37.8354 
 304   0.0000       1.400490        38.1093 
 305   0.0000       1.410652        38.3858 
 306   0.0000       1.421032        38.6682 
 307   0.0000       1.426168        38.8080 
 308   0.0000       1.427089        38.8331 
 309   0.0000       1.442756        39.2594 
 310   0.0000       1.444775        39.3143 
 311   0.0000       1.451189        39.4889 
 312   0.0000       1.454198        39.5707 
 313   0.0000       1.455115        39.5957 
 314   0.0000       1.475565        40.1522 
 315   0.0000       1.482438        40.3392 
 316   0.0000       1.500540        40.8318 
 317   0.0000       1.505476        40.9661 
 318   0.0000       1.513785        41.1922 
 319   0.0000       1.516620        41.2693 
 320   0.0000       1.518543        41.3217 
 321   0.0000       1.524218        41.4761 
 322   0.0000       1.534197        41.7476 
 323   0.0000       1.550528        42.1920 
 324   0.0000       1.556600        42.3572 
 325   0.0000       1.560835        42.4725 
 326   0.0000       1.562844        42.5271 
 327   0.0000       1.569160        42.6990 
 328   0.0000       1.573963        42.8297 
 329   0.0000       1.582256        43.0554 
 330   0.0000       1.583038        43.0767 
 331   0.0000       1.590496        43.2796 
 332   0.0000       1.597063        43.4583 
 333   0.0000       1.601143        43.5693 
 334   0.0000       1.609444        43.7952 
 335   0.0000       1.619778        44.0764 
 336   0.0000       1.621915        44.1345 
 337   0.0000       1.624909        44.2160 
 338   0.0000       1.632704        44.4281 
 339   0.0000       1.637948        44.5708 
 340   0.0000       1.638822        44.5946 
 341   0.0000       1.643693        44.7272 
 342   0.0000       1.648550        44.8593 
 343   0.0000       1.659976        45.1702 
 344   0.0000       1.668148        45.3926 
 345   0.0000       1.679187        45.6930 
[...]
      py      :     0.041714

SPIN
  0 C s       :     0.000761  s :     0.000761
      pz      :     0.007089  p :     0.009531
      px      :     0.000547
      py      :     0.001895
      dz2     :    -0.000018  d :    -0.002999
      dxz     :    -0.002651
      dyz     :     0.000001
      dx2y2   :    -0.000126
      dxy     :    -0.000205
  1 C s       :     0.109024  s :     0.109024
      pz      :     0.066597  p :     0.725744
      px      :     0.648774
      py      :     0.010373
      dz2     :     0.001502  d :     0.005557
      dxz     :    -0.001600
      dyz     :    -0.000789
      dx2y2   :     0.008368
      dxy     :    -0.001923
  2 C s       :     0.004759  s :     0.004759
      pz      :    -0.029998  p :    -0.007343
      px      :     0.016496
      py      :     0.006160
      dz2     :     0.000668  d :     0.034525
      dxz     :     0.001266
      dyz     :     0.001587
      dx2y2   :     0.021327
      dxy     :     0.009677
  3 C s       :     0.006185  s :     0.006185
      pz      :     0.018302  p :     0.038100
      px      :     0.019425
      py      :     0.000373
      dz2     :     0.000334  d :     0.000137
      dxz     :    -0.001747
      dyz     :    -0.000599
      dx2y2   :    -0.000313
      dxy     :     0.002463
  4 C s       :    -0.001087  s :    -0.001087
      pz      :    -0.025478  p :    -0.027945
      px      :    -0.000919
      py      :    -0.001549
      dz2     :     0.000139  d :     0.002732
      dxz     :     0.000641
      dyz     :     0.000815
      dx2y2   :     0.000930
      dxy     :     0.000207
  5 C s       :     0.006160  s :     0.006160
      pz      :     0.018977  p :     0.042770
      px      :     0.022661
      py      :     0.001131
      dz2     :     0.000324  d :    -0.001333
      dxz     :    -0.001629
      dyz     :    -0.000582
      dx2y2   :    -0.000347
      dxy     :     0.000901
  6 C s       :     0.002369  s :     0.002369
      pz      :    -0.033131  p :    -0.015420
      px      :     0.011203
      py      :     0.006508
      dz2     :     0.000673  d :     0.037927
      dxz     :     0.001406
      dyz     :     0.001559
      dx2y2   :     0.023605
      dxy     :     0.010683
  7 H s       :     0.006557  s :     0.006557
      pz      :     0.000535  p :     0.001387
      px      :     0.000888
      py      :    -0.000035
  8 H s       :     0.016984  s :     0.016984
      pz      :    -0.000952  p :    -0.001300
      px      :     0.000197
      py      :    -0.000545
  9 C s       :     0.006612  s :     0.006612
      pz      :     0.000815  p :     0.012617
      px      :     0.002323
      py      :     0.009480
      dz2     :    -0.000060  d :    -0.001146
      dxz     :    -0.000691
      dyz     :    -0.000474
      dx2y2   :     0.000165
      dxy     :    -0.000086
 10 H s       :    -0.001576  s :    -0.001576
      pz      :     0.000080  p :     0.000486
      px      :     0.000313
      py      :     0.000093
 11 H s       :    -0.001578  s :    -0.001578
      pz      :     0.000078  p :     0.000485
      px      :     0.000312
      py      :     0.000095
 12 C s       :    -0.000018  s :    -0.000018
      pz      :     0.000028  p :     0.000350
      px      :    -0.000106
      py      :     0.000429
      dz2     :     0.000007  d :     0.000069
      dxz     :    -0.000009
      dyz     :     0.000017
      dx2y2   :     0.000057
      dxy     :    -0.000003
 13 H s       :     0.000022  s :     0.000022
      pz      :    -0.000001  p :     0.000024
      px      :     0.000004
      py      :     0.000021
 14 H s       :     0.000022  s :     0.000022
      pz      :    -0.000001  p :     0.000024
      px      :     0.000004
      py      :     0.000021
 15 C s       :     0.000055  s :     0.000055
      pz      :    -0.000020  p :     0.000167
      px      :    -0.000008
      py      :     0.000195
      dz2     :     0.000004  d :     0.000026
      dxz     :     0.000001
      dyz     :    -0.000001
      dx2y2   :     0.000001
      dxy     :     0.000020
 16 H s       :    -0.000004  s :    -0.000004
      pz      :     0.000001  p :    -0.000000
      px      :     0.000001
      py      :    -0.000002
 17 H s       :    -0.000004  s :    -0.000004
      pz      :     0.000001  p :    -0.000000
      px      :     0.000001
      py      :    -0.000002
 18 C s       :     0.000027  s :     0.000027
      pz      :     0.000004  p :     0.000131
      px      :     0.000016
      py      :     0.000110
      dz2     :     0.000000  d :     0.000003
      dxz     :    -0.000002
      dyz     :    -0.000001
      dx2y2   :     0.000003
      dxy     :     0.000003
 19 H s       :    -0.000007  s :    -0.000007
      pz      :     0.000000  p :     0.000004
      px      :     0.000001
      py      :     0.000003
 20 H s       :    -0.000007  s :    -0.000007
      pz      :     0.000000  p :     0.000004
      px      :     0.000001
      py      :     0.000003
 21 C s       :     0.000948  s :     0.000948
      pz      :    -0.000156  p :     0.003470
      px      :     0.001620
      py      :     0.002006
      dz2     :     0.000048  d :     0.001810
      dxz     :     0.000413
      dyz     :     0.000303
      dx2y2   :     0.000767
      dxy     :     0.000280
 22 H s       :     0.001296  s :     0.001296
      pz      :    -0.000013  p :     0.000170
      px      :     0.000064
      py      :     0.000119
 23 H s       :     0.001295  s :     0.001295
      pz      :    -0.000013  p :     0.000170
      px      :     0.000064
      py      :     0.000118
 24 C s       :    -0.000037  s :    -0.000037
      pz      :    -0.000073  p :     0.000392
      px      :     0.000492
      py      :    -0.000026
      dz2     :     0.000014  d :     0.000114
      dxz     :     0.000013
      dyz     :    -0.000008
      dx2y2   :     0.000053
      dxy     :     0.000041
 25 H s       :     0.000086  s :     0.000086
      pz      :     0.000003  p :     0.000001
      px      :    -0.000010
      py      :     0.000008
 26 H s       :     0.000086  s :     0.000086
      pz      :     0.000003  p :     0.000001
      px      :    -0.000010
      py      :     0.000008
 27 C s       :     0.000207  s :     0.000207
      pz      :     0.000023  p :     0.000194
      px      :     0.000023
      py      :     0.000148
      dz2     :    -0.000001  d :    -0.000004
      dxz     :    -0.000005
      dyz     :    -0.000000
      dx2y2   :     0.000005
      dxy     :    -0.000003
 28 H s       :    -0.000005  s :    -0.000005
      pz      :     0.000003  p :     0.000010
      px      :     0.000007
      py      :     0.000000
 29 H s       :    -0.000005  s :    -0.000005
      pz      :     0.000003  p :     0.000010
      px      :     0.000007
      py      :     0.000000
 30 C s       :    -0.000008  s :    -0.000008
      pz      :    -0.000000  p :     0.000008
      px      :     0.000002
      py      :     0.000006
      dz2     :    -0.000000  d :     0.000000
      dxz     :     0.000001
      dyz     :     0.000000
      dx2y2   :    -0.000000
      dxy     :    -0.000000
 31 H s       :     0.000001  s :     0.000001
      pz      :     0.000000  p :     0.000001
      px      :    -0.000000
      py      :     0.000001
 32 H s       :     0.000001  s :     0.000001
      pz      :     0.000000  p :     0.000001
      px      :    -0.000000
      py      :     0.000001
 33 C s       :    -0.000489  s :    -0.000489
      pz      :    -0.012712  p :    -0.014739
      px      :    -0.000263
      py      :    -0.001764
      dz2     :     0.000058  d :     0.000816
      dxz     :     0.000583
      dyz     :     0.000000
      dx2y2   :     0.000068
      dxy     :     0.000107
 34 H s       :     0.000021  s :     0.000021
      pz      :     0.000000  p :     0.000005
      px      :     0.000002
      py      :     0.000002
 35 H s       :    -0.000006  s :    -0.000006
      pz      :    -0.000000  p :    -0.000000
      px      :     0.000001
      py      :    -0.000001
 36 C s       :     0.000181  s :     0.000181
      pz      :     0.002523  p :     0.002981
      px      :     0.000326
      py      :     0.000132
      dz2     :    -0.000019  d :    -0.000999
      dxz     :    -0.000744
      dyz     :    -0.000079
      dx2y2   :    -0.000052
      dxy     :    -0.000105
 37 C s       :    -0.000140  s :    -0.000140
      pz      :    -0.003615  p :    -0.003845
      px      :    -0.000121
      py      :    -0.000109
      dz2     :     0.000015  d :     0.000205
      dxz     :     0.000090
      dyz     :     0.000059
      dx2y2   :     0.000022
      dxy     :     0.000020
 38 C s       :     0.000081  s :     0.000081
      pz      :     0.001658  p :     0.001832
      px      :     0.000101
      py      :     0.000073
      dz2     :    -0.000008  d :    -0.000368
      dxz     :    -0.000255
      dyz     :    -0.000074
      dx2y2   :    -0.000015
      dxy     :    -0.000015
 39 C s       :    -0.000129  s :    -0.000129
      pz      :    -0.003880  p :    -0.004071
      px      :    -0.000085
      py      :    -0.000106
      dz2     :     0.000016  d :     0.000143
      dxz     :     0.000017
      dyz     :     0.000084
      dx2y2   :     0.000012
      dxy     :     0.000014
 40 C s       :     0.000081  s :     0.000081
      pz      :     0.001657  p :     0.001830
      px      :     0.000098
      py      :     0.000076
      dz2     :    -0.000008  d :    -0.000368
      dxz     :    -0.000238
      dyz     :    -0.000091
      dx2y2   :    -0.000016
      dxy     :    -0.000015
 41 C s       :    -0.000136  s :    -0.000136
      pz      :    -0.003611  p :    -0.003841
      px      :    -0.000123
      py      :    -0.000107
      dz2     :     0.000015  d :     0.000205
      dxz     :     0.000098
      dyz     :     0.000051
      dx2y2   :     0.000023
      dxy     :     0.000018
 42 H s       :     0.000117  s :     0.000117
      pz      :    -0.000124  p :    -0.000145
      px      :    -0.000019
      py      :    -0.000002
 43 H s       :    -0.000050  s :    -0.000050
      pz      :     0.000049  p :     0.000061
      px      :     0.000005
      py      :     0.000007
 44 H s       :     0.000110  s :     0.000110
      pz      :    -0.000101  p :    -0.000123
      px      :    -0.000006
      py      :    -0.000015
 45 H s       :     0.000109  s :     0.000109
      pz      :    -0.000101  p :    -0.000122
      px      :    -0.000005
      py      :    -0.000016
 46 H s       :    -0.000050  s :    -0.000050
      pz      :     0.000049  p :     0.000061
      px      :     0.000004
      py      :     0.000007


                      *****************************
                      * MAYER POPULATION ANALYSIS *
                      *****************************

  NA   - Mulliken gross atomic population
  ZA   - Total nuclear charge
  QA   - Mulliken gross atomic charge
  VA   - Mayer's total valence
  BVA  - Mayer's bonded valence
  FA   - Mayer's free valence

  ATOM       NA         ZA         QA         VA         BVA        FA
  0 C      6.3636     6.0000    -0.3636     3.7912     3.7911     0.0001
  1 C      6.3338     6.0000    -0.3338     3.8920     3.0865     0.8055
  2 C      5.5128     6.0000     0.4872     3.6487     3.6437     0.0050
  3 C      6.4168     6.0000    -0.4168     4.3326     4.3311     0.0015
  4 C      5.4786     6.0000     0.5214     3.8923     3.8913     0.0009
  5 C      5.7821     6.0000     0.2179     3.9925     3.9908     0.0018
  6 C      6.2184     6.0000    -0.2184     4.0522     4.0474     0.0047
  7 H      0.8642     1.0000     0.1358     0.9654     0.9652     0.0001
  8 H      0.8718     1.0000     0.1282     0.9634     0.9629     0.0005
  9 C      6.3725     6.0000    -0.3725     3.9932     3.9926     0.0006
 10 H      0.8478     1.0000     0.1522     0.9645     0.9645     0.0000
 11 H      0.8477     1.0000     0.1523     0.9644     0.9644     0.0000
 12 C      6.2647     6.0000    -0.2647     4.0081     4.0081     0.0000
 13 H      0.8563     1.0000     0.1437     0.9659     0.9659     0.0000
 14 H      0.8563     1.0000     0.1437     0.9659     0.9659     0.0000
 15 C      6.2653     6.0000    -0.2653     3.8911     3.8911    -0.0000
 16 H      0.8557     1.0000     0.1443     0.9669     0.9669     0.0000
 17 H      0.8556     1.0000     0.1444     0.9669     0.9669     0.0000
 18 C      6.5093     6.0000    -0.5093     3.8993     3.8993     0.0000
 19 H      0.8402     1.0000     0.1598     0.9652     0.9652     0.0000
 20 H      0.8402     1.0000     0.1598     0.9652     0.9652     0.0000
 21 C      6.3411     6.0000    -0.3411     4.0066     4.0065     0.0001
 22 H      0.8451     1.0000     0.1549     0.9622     0.9622     0.0000
 23 H      0.8452     1.0000     0.1548     0.9622     0.9622     0.0000
 24 C      6.2732     6.0000    -0.2732     4.0206     4.0206     0.0000
 25 H      0.8582     1.0000     0.1418     0.9663     0.9663     0.0000
 26 H      0.8582     1.0000     0.1418     0.9663     0.9663     0.0000
 27 C      6.2658     6.0000    -0.2658     3.8974     3.8974     0.0000
 28 H      0.8553     1.0000     0.1447     0.9671     0.9671     0.0000
 29 H      0.8554     1.0000     0.1446     0.9671     0.9671     0.0000
 30 C      6.5105     6.0000    -0.5105     3.9001     3.9001     0.0000
 31 H      0.8403     1.0000     0.1597     0.9652     0.9652     0.0000
 32 H      0.8403     1.0000     0.1597     0.9652     0.9652     0.0000
 33 C      6.3119     6.0000    -0.3119     3.9517     3.9515     0.0002
 34 H      0.8550     1.0000     0.1450     0.9666     0.9666     0.0000
 35 H      0.8554     1.0000     0.1446     0.9667     0.9667     0.0000
 36 C      5.4091     6.0000     0.5909     3.9330     3.9330     0.0000
 37 C      6.2810     6.0000    -0.2810     4.1966     4.1965     0.0000
 38 C      6.0980     6.0000    -0.0980     4.0947     4.0947     0.0000
 39 C      6.1248     6.0000    -0.1248     4.0771     4.0771     0.0000
 40 C      6.1011     6.0000    -0.1011     4.0984     4.0984     0.0000
 41 C      6.2749     6.0000    -0.2749     4.1838     4.1838     0.0000
 42 H      0.8938     1.0000     0.1062     0.9582     0.9582     0.0000
 43 H      0.8950     1.0000     0.1050     0.9614     0.9614     0.0000
 44 H      0.8810     1.0000     0.1190     0.9604     0.9604     0.0000
 45 H      0.8817     1.0000     0.1183     0.9604     0.9604     0.0000
 46 H      0.8948     1.0000     0.1052     0.9616     0.9616     0.0000

  Mayer bond orders larger than 0.100000
B(  0-C ,  4-C ) :   0.8067 B(  0-C ,  5-C ) :   0.1076 B(  0-C , 33-C ) :   2.5132 
B(  1-C ,  2-C ) :   1.2407 B(  1-C ,  3-C ) :   0.1163 B(  1-C ,  5-C ) :   0.1151 
B(  1-C ,  6-C ) :   1.3975 B(  2-C ,  3-C ) :   1.4263 B(  2-C ,  9-C ) :   0.9088 
B(  3-C ,  4-C ) :   1.4549 B(  3-C ,  7-H ) :   0.9830 B(  4-C ,  5-C ) :   1.4069 
B(  5-C ,  6-C ) :   1.3847 B(  5-C , 21-C ) :   0.9759 B(  6-C ,  8-H ) :   0.9717 
B(  9-C , 10-H ) :   0.9677 B(  9-C , 11-H ) :   0.9677 B(  9-C , 12-C ) :   1.0175 
B( 12-C , 13-H ) :   0.9631 B( 12-C , 14-H ) :   0.9631 B( 12-C , 15-C ) :   0.9838 
B( 15-C , 16-H ) :   0.9726 B( 15-C , 17-H ) :   0.9726 B( 15-C , 18-C ) :   0.9558 
B( 18-C , 19-H ) :   0.9722 B( 18-C , 20-H ) :   0.9722 B( 18-C , 34-H ) :   0.9682 
B( 21-C , 22-H ) :   0.9539 B( 21-C , 23-H ) :   0.9540 B( 21-C , 24-C ) :   1.0151 
B( 24-C , 25-H ) :   0.9626 B( 24-C , 26-H ) :   0.9627 B( 24-C , 27-C ) :   0.9889 
B( 27-C , 28-H ) :   0.9720 B( 27-C , 29-H ) :   0.9720 B( 27-C , 30-C ) :   0.9547 
B( 30-C , 31-H ) :   0.9730 B( 30-C , 32-H ) :   0.9730 B( 30-C , 35-H ) :   0.9675 
B( 33-C , 36-C ) :   1.0043 B( 36-C , 37-C ) :   1.3896 B( 36-C , 41-C ) :   1.3854 
B( 37-C , 38-C ) :   1.4762 B( 37-C , 44-H ) :   0.9821 B( 38-C , 39-C ) :   1.4524 
B( 38-C , 46-H ) :   0.9763 B( 39-C , 40-C ) :   1.4552 B( 39-C , 42-H ) :   0.9662 
B( 40-C , 41-C ) :   1.4760 B( 40-C , 43-H ) :   0.9774 B( 41-C , 45-H ) :   0.9801 


-------
TIMINGS
-------

Total SCF time: 0 days 0 hours 1 min 9 sec 

Total time                  ....      69.688 sec
Sum of individual times     ....      65.877 sec  ( 94.5%)

Fock matrix formation       ....      58.914 sec  ( 84.5%)
  Split-RI-J                ....       4.505 sec  (  7.6% of F)
  Chain of spheres X        ....      38.607 sec  ( 65.5% of F)
  XC integration            ....      12.240 sec  ( 20.8% of F)
    Basis function eval.    ....       0.948 sec  (  7.7% of XC)
    Density eval.           ....       1.456 sec  ( 11.9% of XC)
    XC-Functional eval.     ....       0.240 sec  (  2.0% of XC)
    XC-Potential eval.      ....       0.770 sec  (  6.3% of XC)
Diagonalization             ....       1.530 sec  (  2.2%)
Density matrix formation    ....       0.168 sec  (  0.2%)
Population analysis         ....       0.420 sec  (  0.6%)
Initial guess               ....       0.306 sec  (  0.4%)
Orbital Transformation      ....       0.000 sec  (  0.0%)
Orbital Orthonormalization  ....       0.248 sec  (  0.4%)
DIIS solution               ....       0.928 sec  (  1.3%)
Grid generation             ....       3.612 sec  (  5.2%)

Maximum memory used throughout the entire SCF-calculation: 125.8 MB

-------------------------   --------------------
FINAL SINGLE POINT ENERGY      -852.825204950724
-------------------------   --------------------

                                *** OPTIMIZATION RUN DONE ***

                            ***************************************
                            *     ORCA property calculations      *
                            ***************************************

                                    ---------------------
                                    Active property flags
                                    ---------------------
   (+) Dipole Moment


------------------------------------------------------------------------------
                       ORCA ELECTRIC PROPERTIES CALCULATION
------------------------------------------------------------------------------

Dipole Moment Calculation                       ... on
Quadrupole Moment Calculation                   ... off
Polarizability Calculation                      ... off
GBWName                                         ... opt_EPRII.gbw
Electron density                                ... opt_EPRII.scfp
The origin for moment calculation is the CENTER OF MASS  = ( 4.015922, -0.063412 -0.019709)

-------------
DIPOLE MOMENT
-------------
                                X             Y             Z
Electronic contribution:     15.89531      -0.25162       0.01212
Nuclear contribution   :    -15.66210       0.24861      -0.01201
                        -----------------------------------------
Total Dipole Moment    :      0.23321      -0.00301       0.00012
                        -----------------------------------------
Magnitude (a.u.)       :      0.23323
Magnitude (Debye)      :      0.59281



--------------------
Rotational spectrum 
--------------------
 
Rotational constants in cm-1:     0.007003     0.004905     0.002897 
Rotational constants in MHz :   209.949858   147.058750    86.853095 

 Dipole components along the rotational axes: 
x,y,z [a.u.] :     0.182373     0.145377    -0.000013 
x,y,z [Debye]:     0.463556     0.369518    -0.000033 

 

Timings for individual modules:

Sum of individual times         ...      573.453 sec (=   9.558 min)
GTO integral calculation        ...       15.346 sec (=   0.256 min)   2.7 %
SCF iterations                  ...      457.606 sec (=   7.627 min)  79.8 %
SCF Gradient evaluation         ...       98.803 sec (=   1.647 min)  17.2 %
Geometry relaxation             ...        1.698 sec (=   0.028 min)   0.3 %
                             ****ORCA TERMINATED NORMALLY****
TOTAL RUN TIME: 0 days 0 hours 9 minutes 48 seconds 861 msec
