
                                 *****************
                                 * O   R   C   A *
                                 *****************

                                            #,                                       
                                            ###                                      
                                            ####                                     
                                            #####                                    
                                            ######                                   
                                           ########,                                 
                                     ,,################,,,,,                         
                               ,,#################################,,                 
                          ,,##########################################,,             
                       ,#########################################, ''#####,          
                    ,#############################################,,   '####,        
                  ,##################################################,,,,####,       
                ,###########''''           ''''###############################       
              ,#####''   ,,,,##########,,,,          '''####'''          '####       
            ,##' ,,,,###########################,,,                        '##       
           ' ,,###''''                  '''############,,,                           
         ,,##''                                '''############,,,,        ,,,,,,###''
      ,#''                                            '''#######################'''  
     '                                                          ''''####''''         
             ,#######,   #######,   ,#######,      ##                                
            ,#'     '#,  ##    ##  ,#'     '#,    #''#        ######   ,####,        
            ##       ##  ##   ,#'  ##            #'  '#       #        #'  '#        
            ##       ##  #######   ##           ,######,      #####,   #    #        
            '#,     ,#'  ##    ##  '#,     ,#' ,#      #,         ##   #,  ,#        
             '#######'   ##     ##  '#######'  #'      '#     #####' # '####'        



                  #######################################################
                  #                        -***-                        #
                  #          Department of theory and spectroscopy      #
                  #    Directorship and core code : Frank Neese         #
                  #        Max Planck Institute fuer Kohlenforschung    #
                  #                Kaiser Wilhelm Platz 1               #
                  #                 D-45470 Muelheim/Ruhr               #
                  #                      Germany                        #
                  #                                                     #
                  #                  All rights reserved                #
                  #                        -***-                        #
                  #######################################################


                         Program Version 5.0.4 -  RELEASE  -


 With contributions from (in alphabetic order):
   Daniel Aravena         : Magnetic Suceptibility
   Michael Atanasov       : Ab Initio Ligand Field Theory (pilot matlab implementation)
   Alexander A. Auer      : GIAO ZORA, VPT2 properties, NMR spectrum
   Ute Becker             : Parallelization
   Giovanni Bistoni       : ED, misc. LED, open-shell LED, HFLD
   Martin Brehm           : Molecular dynamics
   Dmytro Bykov           : SCF Hessian
   Vijay G. Chilkuri      : MRCI spin determinant printing, contributions to CSF-ICE
   Dipayan Datta          : RHF DLPNO-CCSD density
   Achintya Kumar Dutta   : EOM-CC, STEOM-CC
   Dmitry Ganyushin       : Spin-Orbit,Spin-Spin,Magnetic field MRCI
   Miquel Garcia          : C-PCM and meta-GGA Hessian, CC/C-PCM, Gaussian charge scheme
   Yang Guo               : DLPNO-NEVPT2, F12-NEVPT2, CIM, IAO-localization
   Andreas Hansen         : Spin unrestricted coupled pair/coupled cluster methods
   Benjamin Helmich-Paris : MC-RPA, TRAH-SCF, COSX integrals
   Lee Huntington         : MR-EOM, pCC
   Robert Izsak           : Overlap fitted RIJCOSX, COSX-SCS-MP3, EOM
   Marcus Kettner         : VPT2
   Christian Kollmar      : KDIIS, OOCD, Brueckner-CCSD(T), CCSD density, CASPT2, CASPT2-K
   Simone Kossmann        : Meta GGA functionals, TD-DFT gradient, OOMP2, MP2 Hessian
   Martin Krupicka        : Initial AUTO-CI
   Lucas Lang             : DCDCAS
   Marvin Lechner         : AUTO-CI (C++ implementation), FIC-MRCC
   Dagmar Lenk            : GEPOL surface, SMD
   Dimitrios Liakos       : Extrapolation schemes; Compound Job, initial MDCI parallelization
   Dimitrios Manganas     : Further ROCIS development; embedding schemes
   Dimitrios Pantazis     : SARC Basis sets
   Anastasios Papadopoulos: AUTO-CI, single reference methods and gradients
   Taras Petrenko         : DFT Hessian,TD-DFT gradient, ASA, ECA, R-Raman, ABS, FL, XAS/XES, NRVS
   Peter Pinski           : DLPNO-MP2, DLPNO-MP2 Gradient
   Christoph Reimann      : Effective Core Potentials
   Marius Retegan         : Local ZFS, SOC
   Christoph Riplinger    : Optimizer, TS searches, QM/MM, DLPNO-CCSD(T), (RO)-DLPNO pert. Triples
   Tobias Risthaus        : Range-separated hybrids, TD-DFT gradient, RPA, STAB
   Michael Roemelt        : Original ROCIS implementation
   Masaaki Saitow         : Open-shell DLPNO-CCSD energy and density
   Barbara Sandhoefer     : DKH picture change effects
   Avijit Sen             : IP-ROCIS
   Kantharuban Sivalingam : CASSCF convergence, NEVPT2, FIC-MRCI
   Bernardo de Souza      : ESD, SOC TD-DFT
   Georgi Stoychev        : AutoAux, RI-MP2 NMR, DLPNO-MP2 response
   Willem Van den Heuvel  : Paramagnetic NMR
   Boris Wezisla          : Elementary symmetry handling
   Frank Wennmohs         : Technical directorship


 We gratefully acknowledge several colleagues who have allowed us to
 interface, adapt or use parts of their codes:
   Stefan Grimme, W. Hujo, H. Kruse, P. Pracht,  : VdW corrections, initial TS optimization,
                  C. Bannwarth, S. Ehlert          DFT functionals, gCP, sTDA/sTD-DF
   Ed Valeev, F. Pavosevic, A. Kumar             : LibInt (2-el integral package), F12 methods
   Garnet Chan, S. Sharma, J. Yang, R. Olivares  : DMRG
   Ulf Ekstrom                                   : XCFun DFT Library
   Mihaly Kallay                                 : mrcc  (arbitrary order and MRCC methods)
   Jiri Pittner, Ondrej Demel                    : Mk-CCSD
   Frank Weinhold                                : gennbo (NPA and NBO analysis)
   Christopher J. Cramer and Donald G. Truhlar   : smd solvation model
   Lars Goerigk                                  : TD-DFT with DH, B97 family of functionals
   V. Asgeirsson, H. Jonsson                     : NEB implementation
   FAccTs GmbH                                   : IRC, NEB, NEB-TS, DLPNO-Multilevel, CI-OPT
                                                   MM, QMMM, 2- and 3-layer-ONIOM, Crystal-QMMM,
                                                   LR-CPCM, SF, NACMEs, symmetry and pop. for TD-DFT,
                                                   nearIR, NL-DFT gradient (VV10), updates on ESD,
                                                   ML-optimized integration grids
   S Lehtola, MJT Oliveira, MAL Marques          : LibXC Library
   Liviu Ungur et al                             : ANISO software


 Your calculation uses the libint2 library for the computation of 2-el integrals
 For citations please refer to: http://libint.valeyev.net

 Your ORCA version has been built with support for libXC version: 5.1.0
 For citations please refer to: https://tddft.org/programs/libxc/

 This ORCA versions uses:
   CBLAS   interface :  Fast vector & matrix operations
   LAPACKE interface :  Fast linear algebra routines
   SCALAPACK package :  Parallel linear algebra routines
   Shared memory     :  Shared parallel matrices
   BLAS/LAPACK       :  OpenBLAS 0.3.15  USE64BITINT DYNAMIC_ARCH NO_AFFINITY SkylakeX SINGLE_THREADED
        Core in use  :  SkylakeX
   Copyright (c) 2011-2014, The OpenBLAS Project




***************************************
The coordinates will be read from file: opt.xyz
***************************************


================================================================================

----- Orbital basis set information -----
Your calculation utilizes the basis: cc-pVDZ 
       H, B-Ne : Obtained from the ccRepo (grant-hill.group.shef.ac.uk/ccrepo) Feb. 2017
                 T. H. Dunning, Jr., J. Chem. Phys. 90, 1007 (1989)
            He : Obtained from the ccRepo (grant-hill.group.shef.ac.uk/ccrepo) Feb. 2017
                 D. E. Woon, T. H. Dunning, Jr., J. Chem. Phys. 100, 2975 (1994)
  Li-Be, Na-Mg : Obtained from the ccRepo (grant-hill.group.shef.ac.uk/ccrepo) Feb. 2017
                 B. P. Prascher, D. E. Woon, K. A. Peterson, T. H. Dunning, Jr., A. K. Wilson, Theor. Chem. Acc. 128, 69 (2011)
         Al-Ar : Obtained from the ccRepo (grant-hill.group.shef.ac.uk/ccrepo) Feb. 2017
                 D. E. Woon, T. H. Dunning, Jr., J. Chem. Phys. 98, 1358 (1993)
            Ca : Obtained from the Peterson Research Group Website (tyr0.chem.wsu.edu/~kipeters) Feb. 2017
                 J. Koput, K. A. Peterson, J. Phys. Chem. 106, 9595 (2002)
         Sc-Zn : Obtained from the ccRepo (grant-hill.group.shef.ac.uk/ccrepo) Feb. 2017
                 N. B. Balabanov, K. A. Peterson, J. Chem. Phys. 123, 064107 (2005)
                 N. B. Balabanov, K. A. Peterson, J. Chem. Phys. 125, 074110 (2006)
         Ga-Kr : Obtained from the ccRepo (grant-hill.group.shef.ac.uk/ccrepo) Feb. 2017
                 A. K. Wilson, D. E. Woon, K. A. Peterson, T. H. Dunning, Jr., J. Chem. Phys. 110, 7667 (1999)

----- AuxJ basis set information -----
Your calculation utilizes the AutoAux generation procedure.
  G. L. Stoychev, A. A. Auer, F. Neese, J. Chem. Theory Comput. 13, 554 (2017)

----- AuxC basis set information -----
Your calculation utilizes the AutoAux generation procedure.
  G. L. Stoychev, A. A. Auer, F. Neese, J. Chem. Theory Comput. 13, 554 (2017)

----- AuxJK basis set information -----
Your calculation utilizes the AutoAux generation procedure.
  G. L. Stoychev, A. A. Auer, F. Neese, J. Chem. Theory Comput. 13, 554 (2017)

================================================================================
                                        WARNINGS
                       Please study these warnings very carefully!
================================================================================

WARNING: Old DensityContainer found on disk!
         Will remove this file - 
         If you want to keep old densities, please start your calculation with a different basename. 


WARNING: your system is open-shell and RHF/RKS was chosen
  ===> : WILL SWITCH to UHF/UKS


INFO   : the flag for use of the SHARK integral package has been found!

================================================================================
                                       INPUT FILE
================================================================================
NAME = cc-pVDZ.inp
|  1> ! B3LYP cc-pVDZ AUTOAUX
|  2> %pal nprocs 16 end
|  3> *XYZFile 0 2 opt.xyz
|  4> %EPRNMR
|  5>         GTENSOR   TRUE
|  6>         NUCLEI    = ALL H {SHIFT, AISO, ADIP, AORB}
|  7> END
|  8> 
|  9>                          ****END OF INPUT****
================================================================================

                       ****************************
                       * Single Point Calculation *
                       ****************************

---------------------------------
CARTESIAN COORDINATES (ANGSTROEM)
---------------------------------
  C     -2.631597    0.129889    0.152946
  C      1.575864   -0.218018   -0.504992
  C      0.963822    1.083546   -0.471921
  C     -0.443340    1.138551   -0.248119
  C     -1.220279   -0.005180   -0.065902
  C     -0.611010   -1.294596   -0.103795
  C      0.773999   -1.347005   -0.323995
  H     -0.932113    2.114973   -0.219804
  H      1.262338   -2.323049   -0.360688
  C      1.682287    2.282286   -0.654363
  H      2.755459    2.297223   -0.838416
  H      1.162943    3.241730   -0.622224
  C      3.065834   -0.388546   -0.698656
  H      3.262023   -1.404533   -1.082470
  H      3.432977    0.306369   -1.474054
  C      3.887515   -0.182955    0.591465
  H      3.688811    0.825725    0.993912
  H      3.528649   -0.892624    1.358202
  C      5.390342   -0.369448    0.371431
  H      5.781137    0.351469   -0.367554
  H      5.618742   -1.381978   -0.004350
  C     -1.464202   -2.531527    0.084086
  H     -2.003034   -2.436934    1.045488
  H     -2.265137   -2.516675   -0.678829
  C     -0.750622   -3.885261    0.036886
  H     -0.229468   -4.002281   -0.931186
  H      0.033199   -3.924469    0.815700
  C     -1.711359   -5.064693    0.232430
  H     -2.238010   -4.948281    1.197733
  H     -2.495639   -5.026358   -0.546048
  C     -1.012747   -6.426102    0.189580
  H     -0.246895   -6.508811    0.980041
  H     -0.505961   -6.586065   -0.777902
  C     -3.826626    0.249482    0.342032
  H     -4.879280    0.361416    0.513224
  H      5.954180   -0.226136    1.307646
  H     -1.728336   -7.252292    0.331363

----------------------------
CARTESIAN COORDINATES (A.U.)
----------------------------
  NO LB      ZA    FRAG     MASS         X           Y           Z
   0 C     6.0000    0    12.011   -4.972997    0.245455    0.289025
   1 C     6.0000    0    12.011    2.977951   -0.411995   -0.954296
   2 C     6.0000    0    12.011    1.821360    2.047605   -0.891801
   3 C     6.0000    0    12.011   -0.837792    2.151550   -0.468878
   4 C     6.0000    0    12.011   -2.305994   -0.009789   -0.124537
   5 C     6.0000    0    12.011   -1.154641   -2.446432   -0.196145
   6 C     6.0000    0    12.011    1.462646   -2.545470   -0.612261
   7 H     1.0000    0     1.008   -1.761437    3.996720   -0.415368
   8 H     1.0000    0     1.008    2.385473   -4.389926   -0.681601
   9 C     6.0000    0    12.011    3.179061    4.312895   -1.236567
  10 H     1.0000    0     1.008    5.207062    4.341122   -1.584377
  11 H     1.0000    0     1.008    2.197643    6.125981   -1.175832
  12 C     6.0000    0    12.011    5.793587   -0.734246   -1.320269
  13 H     1.0000    0     1.008    6.164330   -2.654183   -2.045573
  14 H     1.0000    0     1.008    6.487387    0.578953   -2.785559
  15 C     6.0000    0    12.011    7.346338   -0.345736    1.117707
  16 H     1.0000    0     1.008    6.970843    1.560395    1.878222
  17 H     1.0000    0     1.008    6.668180   -1.686814    2.566630
  18 C     6.0000    0    12.011   10.186270   -0.698156    0.701903
  19 H     1.0000    0     1.008   10.924767    0.664181   -0.694576
  20 H     1.0000    0     1.008   10.617884   -2.611559   -0.008220
  21 C     6.0000    0    12.011   -2.766941   -4.783893    0.158899
  22 H     1.0000    0     1.008   -3.785186   -4.605138    1.975686
  23 H     1.0000    0     1.008   -4.280488   -4.755826   -1.282801
  24 C     6.0000    0    12.011   -1.418470   -7.342079    0.069704
  25 H     1.0000    0     1.008   -0.433631   -7.563214   -1.759686
  26 H     1.0000    0     1.008    0.062738   -7.416172    1.541450
  27 C     6.0000    0    12.011   -3.234000   -9.570882    0.439229
  28 H     1.0000    0     1.008   -4.229225   -9.350895    2.263388
  29 H     1.0000    0     1.008   -4.716075   -9.498440   -1.031882
  30 C     6.0000    0    12.011   -1.913814  -12.143574    0.358254
  31 H     1.0000    0     1.008   -0.466565  -12.299870    1.852010
  32 H     1.0000    0     1.008   -0.956128  -12.445860   -1.470022
  33 C     6.0000    0    12.011   -7.231274    0.471453    0.646348
  34 H     1.0000    0     1.008   -9.220504    0.682977    0.969853
  35 H     1.0000    0     1.008   11.251769   -0.427335    2.471093
  36 H     1.0000    0     1.008   -3.266081  -13.704845    0.626186

--------------------------------
INTERNAL COORDINATES (ANGSTROEM)
--------------------------------
 C      0   0   0     0.000000000000     0.00000000     0.00000000
 C      1   0   0     4.272779435977     0.00000000     0.00000000
 C      2   1   0     1.438665364702    60.25611533     0.00000000
 C      3   2   1     1.425909955027   117.27985933     0.03056544
 C      4   3   2     1.394617996884   122.59142877     0.00000000
 C      5   4   3     1.426618075074   119.98942380   359.80738789
 C      2   1   3     1.396552108681    58.69928977   180.20089569
 H      4   3   2     1.092290782554   118.69476616   180.07450551
 H      7   2   1     1.092009065491   117.48005890   179.77496584
 C      3   2   1     1.409415733623   123.34163715   180.34056982
 H     10   3   2     1.088942817265   122.40656763     0.31108613
 H     10   3   2     1.091459767040   120.08473860   179.78721641
 C      2   1   3     1.512150120827   177.66932669   143.65206630
 H     13   2   7     1.103644831562   108.87542942    23.48041639
 H     13   2   7     1.104057719813   110.28123973   139.41768004
 C     13   2   7     1.543320706672   113.73569286   262.26377449
 H     16  13   2     1.104030754152   109.30558255   302.18129664
 H     16  13   2     1.104671644864   108.76417815    57.47544640
 C     16  13   2     1.530256370807   112.73280384   179.63630008
 H     19  16  13     1.103875839750   111.36717896    60.34862434
 H     19  16  13     1.103899331665   111.34143478   300.59408759
 C      6   5   4     1.514343105447   119.62648733   180.48504428
 H     22   6   5     1.106156347871   108.20573503   304.09262205
 H     22   6   5     1.106235176143   108.14286371    56.41421033
 C     22   6   5     1.531019144681   117.11695442   180.17068255
 H     25  22   6     1.105648136158   109.89308124   301.94491832
 H     25  22   6     1.105651246714   109.88026936    58.44334784
 C     25  22   6     1.533725208941   112.58561711   180.24750891
 H     28  25  22     1.105767807906   109.18900891   302.47583204
 H     28  25  22     1.105709478380   109.14051315    57.74857142
 C     28  25  22     1.530794590614   113.23248136   180.07138713
 H     31  28  25     1.103719938677   111.30088794    59.92707409
 H     31  28  25     1.103830607285   111.28105466   300.22757938
 C      1   2   3     1.215792146495   179.01985546   351.11928114
 H     34   1   5     1.072342109159   179.57594182     0.77152932
 H     19  16  13     1.102247628085   111.37006533   180.48184891
 H     31  28  25     1.102161137344   111.51578224   180.08412230

---------------------------
INTERNAL COORDINATES (A.U.)
---------------------------
 C      0   0   0     0.000000000000     0.00000000     0.00000000
 C      1   0   0     8.074382964647     0.00000000     0.00000000
 C      2   1   0     2.718683537644    60.25611533     0.00000000
 C      3   2   1     2.694579306633   117.27985933     0.03056544
 C      4   3   2     2.635446075549   122.59142877     0.00000000
 C      5   4   3     2.695917459592   119.98942380   359.80738789
 C      2   1   3     2.639101017158    58.69928977   180.20089569
 H      4   3   2     2.064130437634   118.69476616   180.07450551
 H      7   2   1     2.063598069537   117.48005890   179.77496584
 C      3   2   1     2.663409745388   123.34163715   180.34056982
 H     10   3   2     2.057803700132   122.40656763     0.31108613
 H     10   3   2     2.062560045900   120.08473860   179.78721641
 C      2   1   3     2.857549601739   177.66932669   143.65206630
 H     13   2   7     2.085586480770   108.87542942    23.48041639
 H     13   2   7     2.086366726488   110.28123973   139.41768004
 C     13   2   7     2.916453472420   113.73569286   262.26377449
 H     16  13   2     2.086315768774   109.30558255   302.18129664
 H     16  13   2     2.087526876701   108.76417815    57.47544640
 C     16  13   2     2.891765455514   112.73280384   179.63630008
 H     19  16  13     2.086023022980   111.36717896    60.34862434
 H     19  16  13     2.086067416266   111.34143478   300.59408759
 C      6   5   4     2.861693742086   119.62648733   180.48504428
 H     22   6   5     2.090332558774   108.20573503   304.09262205
 H     22   6   5     2.090481522620   108.14286371    56.41421033
 C     22   6   5     2.893206889237   117.11695442   180.17068255
 H     25  22   6     2.089372177819   109.89308124   301.94491832
 H     25  22   6     2.089378055919   109.88026936    58.44334784
 C     25  22   6     2.898320609589   112.58561711   180.24750891
 H     28  25  22     2.089598324648   109.18900891   302.47583204
 H     28  25  22     2.089488097819   109.14051315    57.74857142
 C     28  25  22     2.892782543549   113.23248136   180.07138713
 H     31  28  25     2.085728412647   111.30088794    59.92707409
 H     31  28  25     2.085937546008   111.28105466   300.22757938
 C      1   2   3     2.297514192648   179.01985546   351.11928114
 H     34   1   5     2.026432908181   179.57594182     0.77152932
 H     19  16  13     2.082946148845   111.37006533   180.48184891
 H     31  28  25     2.082782705032   111.51578224   180.08412230

---------------------
BASIS SET INFORMATION
---------------------
There are 2 groups of distinct atoms

 Group   1 Type C   : 17s4p1d contracted to 3s2p1d pattern {881/31/1}
 Group   2 Type H   : 4s1p contracted to 2s1p pattern {31/1}

Atom   0C    basis set group =>   1
Atom   1C    basis set group =>   1
Atom   2C    basis set group =>   1
Atom   3C    basis set group =>   1
Atom   4C    basis set group =>   1
Atom   5C    basis set group =>   1
Atom   6C    basis set group =>   1
Atom   7H    basis set group =>   2
Atom   8H    basis set group =>   2
Atom   9C    basis set group =>   1
Atom  10H    basis set group =>   2
Atom  11H    basis set group =>   2
Atom  12C    basis set group =>   1
Atom  13H    basis set group =>   2
Atom  14H    basis set group =>   2
Atom  15C    basis set group =>   1
Atom  16H    basis set group =>   2
Atom  17H    basis set group =>   2
Atom  18C    basis set group =>   1
Atom  19H    basis set group =>   2
Atom  20H    basis set group =>   2
Atom  21C    basis set group =>   1
Atom  22H    basis set group =>   2
Atom  23H    basis set group =>   2
Atom  24C    basis set group =>   1
Atom  25H    basis set group =>   2
Atom  26H    basis set group =>   2
Atom  27C    basis set group =>   1
Atom  28H    basis set group =>   2
Atom  29H    basis set group =>   2
Atom  30C    basis set group =>   1
Atom  31H    basis set group =>   2
Atom  32H    basis set group =>   2
Atom  33C    basis set group =>   1
Atom  34H    basis set group =>   2
Atom  35H    basis set group =>   2
Atom  36H    basis set group =>   2
---------------------------------
AUXILIARY/J BASIS SET INFORMATION
---------------------------------
There are 2 groups of distinct atoms

 Group   1 Type C   : 14s11p10d2f contracted to 14s11p10d2f pattern {11111111111111/11111111111/1111111111/11}
 Group   2 Type H   : 9s2p1d contracted to 9s2p1d pattern {111111111/11/1}

Atom   0C    basis set group =>   1
Atom   1C    basis set group =>   1
Atom   2C    basis set group =>   1
Atom   3C    basis set group =>   1
Atom   4C    basis set group =>   1
Atom   5C    basis set group =>   1
Atom   6C    basis set group =>   1
Atom   7H    basis set group =>   2
Atom   8H    basis set group =>   2
Atom   9C    basis set group =>   1
Atom  10H    basis set group =>   2
Atom  11H    basis set group =>   2
Atom  12C    basis set group =>   1
Atom  13H    basis set group =>   2
Atom  14H    basis set group =>   2
Atom  15C    basis set group =>   1
Atom  16H    basis set group =>   2
Atom  17H    basis set group =>   2
Atom  18C    basis set group =>   1
Atom  19H    basis set group =>   2
Atom  20H    basis set group =>   2
Atom  21C    basis set group =>   1
Atom  22H    basis set group =>   2
Atom  23H    basis set group =>   2
Atom  24C    basis set group =>   1
Atom  25H    basis set group =>   2
Atom  26H    basis set group =>   2
Atom  27C    basis set group =>   1
Atom  28H    basis set group =>   2
Atom  29H    basis set group =>   2
Atom  30C    basis set group =>   1
Atom  31H    basis set group =>   2
Atom  32H    basis set group =>   2
Atom  33C    basis set group =>   1
Atom  34H    basis set group =>   2
Atom  35H    basis set group =>   2
Atom  36H    basis set group =>   2
---------------------------------
AUXILIARY/C BASIS SET INFORMATION
---------------------------------
There are 2 groups of distinct atoms

 Group   1 Type C   : 14s11p10d2f contracted to 14s11p10d2f pattern {11111111111111/11111111111/1111111111/11}
 Group   2 Type H   : 9s2p1d contracted to 9s2p1d pattern {111111111/11/1}

Atom   0C    basis set group =>   1
Atom   1C    basis set group =>   1
Atom   2C    basis set group =>   1
Atom   3C    basis set group =>   1
Atom   4C    basis set group =>   1
Atom   5C    basis set group =>   1
Atom   6C    basis set group =>   1
Atom   7H    basis set group =>   2
Atom   8H    basis set group =>   2
Atom   9C    basis set group =>   1
Atom  10H    basis set group =>   2
Atom  11H    basis set group =>   2
Atom  12C    basis set group =>   1
Atom  13H    basis set group =>   2
Atom  14H    basis set group =>   2
Atom  15C    basis set group =>   1
Atom  16H    basis set group =>   2
Atom  17H    basis set group =>   2
Atom  18C    basis set group =>   1
Atom  19H    basis set group =>   2
Atom  20H    basis set group =>   2
Atom  21C    basis set group =>   1
Atom  22H    basis set group =>   2
Atom  23H    basis set group =>   2
Atom  24C    basis set group =>   1
Atom  25H    basis set group =>   2
Atom  26H    basis set group =>   2
Atom  27C    basis set group =>   1
Atom  28H    basis set group =>   2
Atom  29H    basis set group =>   2
Atom  30C    basis set group =>   1
Atom  31H    basis set group =>   2
Atom  32H    basis set group =>   2
Atom  33C    basis set group =>   1
Atom  34H    basis set group =>   2
Atom  35H    basis set group =>   2
Atom  36H    basis set group =>   2
----------------------------------
AUXILIARY/JK BASIS SET INFORMATION
----------------------------------
There are 2 groups of distinct atoms

 Group   1 Type C   : 14s11p10d2f contracted to 14s11p10d2f pattern {11111111111111/11111111111/1111111111/11}
 Group   2 Type H   : 9s2p1d contracted to 9s2p1d pattern {111111111/11/1}

Atom   0C    basis set group =>   1
Atom   1C    basis set group =>   1
Atom   2C    basis set group =>   1
Atom   3C    basis set group =>   1
Atom   4C    basis set group =>   1
Atom   5C    basis set group =>   1
Atom   6C    basis set group =>   1
Atom   7H    basis set group =>   2
Atom   8H    basis set group =>   2
Atom   9C    basis set group =>   1
Atom  10H    basis set group =>   2
Atom  11H    basis set group =>   2
Atom  12C    basis set group =>   1
Atom  13H    basis set group =>   2
Atom  14H    basis set group =>   2
Atom  15C    basis set group =>   1
Atom  16H    basis set group =>   2
Atom  17H    basis set group =>   2
Atom  18C    basis set group =>   1
Atom  19H    basis set group =>   2
Atom  20H    basis set group =>   2
Atom  21C    basis set group =>   1
Atom  22H    basis set group =>   2
Atom  23H    basis set group =>   2
Atom  24C    basis set group =>   1
Atom  25H    basis set group =>   2
Atom  26H    basis set group =>   2
Atom  27C    basis set group =>   1
Atom  28H    basis set group =>   2
Atom  29H    basis set group =>   2
Atom  30C    basis set group =>   1
Atom  31H    basis set group =>   2
Atom  32H    basis set group =>   2
Atom  33C    basis set group =>   1
Atom  34H    basis set group =>   2
Atom  35H    basis set group =>   2
Atom  36H    basis set group =>   2

Checking for AutoStart:
The File: cc-pVDZ.gbw exists
Trying to determine its content:
     ... Fine, the file contains calculation information
     ... Fine, the calculation information was read
     ... Fine, the file contains a basis set
     ... Fine, the basis set was read
     ... Fine, the file contains a geometry
     ... Fine, the geometry was read
     ... Fine, the file contains a set of orbitals
     ... Fine, the orbitals can be read
     => possible old guess file was deleted
     => GBW file was renamed to GES file
     => GES file is set as startup file
     => Guess is set to MORead
     ... now leaving AutoStart



           ************************************************************
           *        Program running with 16 parallel MPI-processes    *
           *              working on a common directory               *
           ************************************************************
------------------------------------------------------------------------------
                           ORCA GTO INTEGRAL CALCULATION
                           -- RI-GTO INTEGRALS CHOSEN --
------------------------------------------------------------------------------
------------------------------------------------------------------------------
                   ___                                                        
                  /   \      - P O W E R E D   B Y -                         
                 /     \                                                     
                 |  |  |   _    _      __       _____    __    __             
                 |  |  |  | |  | |    /  \     |  _  \  |  |  /  |          
                  \  \/   | |  | |   /    \    | | | |  |  | /  /          
                 / \  \   | |__| |  /  /\  \   | |_| |  |  |/  /          
                |  |  |   |  __  | /  /__\  \  |    /   |      \           
                |  |  |   | |  | | |   __   |  |    \   |  |\   \          
                \     /   | |  | | |  |  |  |  | |\  \  |  | \   \       
                 \___/    |_|  |_| |__|  |__|  |_| \__\ |__|  \__/        
                                                                              
                      - O R C A' S   B I G   F R I E N D -                    
                                      &                                       
                       - I N T E G R A L  F E E D E R -                       
                                                                              
 v1 FN, 2020, v2 2021                                                         
------------------------------------------------------------------------------


Reading SHARK input file cc-pVDZ.SHARKINP.tmp ... ok
----------------------
SHARK INTEGRAL PACKAGE
----------------------

Number of atoms                             ...     37
Number of basis functions                   ...    425
Number of shells                            ...    255
Maximum angular momentum                    ...      2
Integral batch strategy                     ... SHARK/LIBINT Hybrid
RI-J (if used) integral strategy            ... SPLIT-RIJ (Revised 2003 algorithm where possible)
Printlevel                                  ...      1
Contraction scheme used                     ... PARTIAL GENERAL contraction
Coulomb Range Separation                    ... NOT USED
Exchange Range Separation                   ... NOT USED
Finite Nucleus Model                        ... NOT USED
Auxiliary Coulomb fitting basis             ... AVAILABLE
   # of basis functions in Aux-J            ...   2196
   # of shells in Aux-J                     ...    844
   Maximum angular momentum in Aux-J        ...      3
Auxiliary J/K fitting basis                 ... AVAILABLE
   # of basis functions in Aux-JK           ...   2196
   # of shells in Aux-JK                    ...    844
   Maximum angular momentum in Aux-JK       ...      3
Auxiliary Correlation fitting basis         ... AVAILABLE
   # of basis functions in Aux-C            ...   2196
   # of shells in Aux-C                     ...    844
   Maximum angular momentum in Aux-C        ...      3
Auxiliary 'external' fitting basis          ... NOT available
Integral threshold                          ...     1.000000e-10
Primitive cut-off                           ...     1.000000e-11
Primitive pair pre-selection threshold      ...     1.000000e-11

Calculating pre-screening integrals         ... done (  0.0 sec) Dimension = 255
Calculating pre-screening integrals (ORCA)  ... done (  0.1 sec) Dimension = 159
Organizing shell pair data                  ... done (  0.1 sec)
Shell pair information
Total number of shell pairs                 ...     32640
Shell pairs after pre-screening             ...     17485
Total number of primitive shell pairs       ...     54396
Primitive shell pairs kept                  ...     24322
          la=0 lb=0:   7830 shell pairs
          la=1 lb=0:   6081 shell pairs
          la=1 lb=1:   1063 shell pairs
          la=2 lb=0:   1790 shell pairs
          la=2 lb=1:    619 shell pairs
          la=2 lb=2:    102 shell pairs

Calculating one electron integrals          ... done (  0.0 sec)
Calculating RI/J V-Matrix + Cholesky decomp.... done (  0.4 sec)
Calculating RI/JK V-Matrix + Cholesky decomp... done (  0.3 sec)
Calculating RI/C V-Matrix + Cholesky decomp.... done (  0.3 sec)
Calculating Nuclear repulsion               ... done (  0.0 sec) ENN=   1004.377141573651 Eh

SHARK setup successfully completed in   1.8 seconds

Maximum memory used throughout the entire GTOINT-calculation: 26.9 MB


           ************************************************************
           *        Program running with 16 parallel MPI-processes    *
           *              working on a common directory               *
           ************************************************************
-------------------------------------------------------------------------------
                                 ORCA SCF
-------------------------------------------------------------------------------

------------
SCF SETTINGS
------------
Hamiltonian:
 Density Functional     Method          .... DFT(GTOs)
 Exchange Functional    Exchange        .... B88
   X-Alpha parameter    XAlpha          ....  0.666667
   Becke's b parameter  XBeta           ....  0.004200
 Correlation Functional Correlation     .... LYP
 LDA part of GGA corr.  LDAOpt          .... VWN-5
 Gradients option       PostSCFGGA      .... off
 Hybrid DFT is turned on
   Fraction HF Exchange ScalHFX         ....  0.200000
   Scaling of DF-GGA-X  ScalDFX         ....  0.720000
   Scaling of DF-GGA-C  ScalDFC         ....  0.810000
   Scaling of DF-LDA-C  ScalLDAC        ....  1.000000
   Perturbative correction              ....  0.000000
   Density functional embedding theory  .... OFF
   NL short-range parameter             ....  4.800000
 RI-approximation to the Coulomb term is turned on
   Number of AuxJ basis functions       .... 2196
   RIJ-COSX (HFX calculated with COS-X)).... on


General Settings:
 Integral files         IntName         .... cc-pVDZ
 Hartree-Fock type      HFTyp           .... UHF
 Total Charge           Charge          ....    0
 Multiplicity           Mult            ....    2
 Number of Electrons    NEL             ....  117
 Basis Dimension        Dim             ....  329
 Nuclear Repulsion      ENuc            ....   1004.3771415737 Eh

Convergence Acceleration:
 DIIS                   CNVDIIS         .... on
   Start iteration      DIISMaxIt       ....    12
   Startup error        DIISStart       ....  0.200000
   # of expansion vecs  DIISMaxEq       ....     5
   Bias factor          DIISBfac        ....   1.050
   Max. coefficient     DIISMaxC        ....  10.000
 Trust-Rad. Augm. Hess. CNVTRAH         .... auto
   Auto Start mean grad. ratio tolernc. ....  1.125000
   Auto Start start iteration           ....     1
   Auto Start num. interpolation iter.  ....    10
   Max. Number of Micro iterations      ....    16
   Max. Number of Macro iterations      .... Maxiter - #DIIS iter
   Number of Davidson start vectors     ....     2
   Converg. threshold I  (grad. norm)   ....   5.000e-05
   Converg. threshold II (energy diff.) ....   1.000e-06
   Grad. Scal. Fac. for Micro threshold ....   0.100
   Minimum threshold for Micro iter.    ....   0.010
   NR start threshold (gradient norm)   ....   0.001
   Initial trust radius                 ....   0.400
   Minimum AH scaling param. (alpha)    ....   1.000
   Maximum AH scaling param. (alpha)    .... 1000.000
   Orbital update algorithm             .... Taylor
   White noise on init. David. guess    .... on
   Maximum white noise                  ....   0.010
   Quad. conv. algorithm                .... NR
 SOSCF                  CNVSOSCF        .... off
 Level Shifting         CNVShift        .... on
   Level shift para.    LevelShift      ....    0.2500
   Turn off err/grad.   ShiftErr        ....    0.0010
 Zerner damping         CNVZerner       .... off
 Static damping         CNVDamp         .... on
   Fraction old density DampFac         ....    0.7000
   Max. Damping (<1)    DampMax         ....    0.9800
   Min. Damping (>=0)   DampMin         ....    0.0000
   Turn off err/grad.   DampErr         ....    0.1000
 Fernandez-Rico         CNVRico         .... off

SCF Procedure:
 Maximum # iterations   MaxIter         ....   125
 SCF integral mode      SCFMode         .... Direct
   Integral package                     .... SHARK and LIBINT hybrid scheme
 Reset frequency        DirectResetFreq ....    20
 Integral Threshold     Thresh          ....  1.000e-10 Eh
 Primitive CutOff       TCut            ....  1.000e-11 Eh

Convergence Tolerance:
 Convergence Check Mode ConvCheckMode   .... Total+1el-Energy
 Convergence forced     ConvForced      .... 0
 Energy Change          TolE            ....  1.000e-06 Eh
 1-El. energy change                    ....  1.000e-03 Eh
 DIIS Error             TolErr          ....  1.000e-06


Diagonalization of the overlap matrix:
Smallest eigenvalue                        ... 1.518e-04
Time for diagonalization                   ...    0.070 sec
Threshold for overlap eigenvalues          ... 1.000e-08
Number of eigenvalues below threshold      ... 0
Time for construction of square roots      ...    0.029 sec
Total time needed                          ...    0.100 sec

---------------------
INITIAL GUESS: MOREAD
---------------------
Guess MOs are being read from file: cc-pVDZ.ges
Input Geometry matches current geometry (good)
Input basis set matches current basis set (good)
MOs were renormalized
MOs were reorthogonalized (Cholesky)
                      ------------------
                      INITIAL GUESS DONE (   0.1 sec)
                      ------------------
-------------------
DFT GRID GENERATION
-------------------

General Integration Accuracy     IntAcc      ... 4.388
Radial Grid Type                 RadialGrid  ... OptM3 with GC (2021)
Angular Grid (max. ang.)         AngularGrid ... 4 (Lebedev-302)
Angular grid pruning method      GridPruning ... 4 (adaptive)
Weight generation scheme         WeightScheme... Becke
Basis function cutoff            BFCut       ... 1.0000e-10
Integration weight cutoff        WCut        ... 1.0000e-14
Angular grids for H and He will be reduced by one unit
Partially contracted basis set               ... off
Rotationally invariant grid construction     ... off

Total number of grid points                  ...   162627
Total number of batches                      ...     2559
Average number of points per batch           ...       63
Average number of grid points per atom       ...     4395
Time for grid setup =    0.913 sec

--------------------
COSX GRID GENERATION
--------------------

GRIDX 1
-------
General Integration Accuracy     IntAcc      ... 3.816
Radial Grid Type                 RadialGrid  ... OptM3 with GC (2021)
Angular Grid (max. ang.)         AngularGrid ... 1 (Lebedev-50)
Angular grid pruning method      GridPruning ... 4 (adaptive)
Weight generation scheme         WeightScheme... Becke
Basis function cutoff            BFCut       ... 1.0000e-10
Integration weight cutoff        WCut        ... 1.0000e-14
Angular grids for H and He will be reduced by one unit
Partially contracted basis set               ... on
Rotationally invariant grid construction     ... off

Total number of grid points                  ...    20774
Total number of batches                      ...      346
Average number of points per batch           ...       60
Average number of grid points per atom       ...      561
UseSFitting                                  ... on

GRIDX 2
-------
General Integration Accuracy     IntAcc      ... 4.020
Radial Grid Type                 RadialGrid  ... OptM3 with GC (2021)
Angular Grid (max. ang.)         AngularGrid ... 2 (Lebedev-110)
Angular grid pruning method      GridPruning ... 4 (adaptive)
Weight generation scheme         WeightScheme... Becke
Basis function cutoff            BFCut       ... 1.0000e-10
Integration weight cutoff        WCut        ... 1.0000e-14
Angular grids for H and He will be reduced by one unit
Partially contracted basis set               ... on
Rotationally invariant grid construction     ... off

Total number of grid points                  ...    43752
Total number of batches                      ...      701
Average number of points per batch           ...       62
Average number of grid points per atom       ...     1182
UseSFitting                                  ... on

GRIDX 3
-------
General Integration Accuracy     IntAcc      ... 4.338
Radial Grid Type                 RadialGrid  ... OptM3 with GC (2021)
Angular Grid (max. ang.)         AngularGrid ... 3 (Lebedev-194)
Angular grid pruning method      GridPruning ... 4 (adaptive)
Weight generation scheme         WeightScheme... Becke
Basis function cutoff            BFCut       ... 1.0000e-10
Integration weight cutoff        WCut        ... 1.0000e-14
Angular grids for H and He will be reduced by one unit
Partially contracted basis set               ... on
Rotationally invariant grid construction     ... off

Total number of grid points                  ...    95333
Total number of batches                      ...     1508
Average number of points per batch           ...       63
Average number of grid points per atom       ...     2577
UseSFitting                                  ... on

Time for X-Grid setup             =    1.614 sec

 re-compute Schwartz prescreening matrix in partically contracted basis (1) ...done (   0.314 sec)
--------------
SCF ITERATIONS
--------------
ITER       Energy         Delta-E        Max-DP      RMS-DP      [F,P]     Damp
               ***  Starting incremental Fock matrix formation  ***
  0   -621.8575542916   0.000000000000 0.00001597  0.00000013  0.0000131 0.7000
                 **** Energy Check signals convergence ****

               *****************************************************
               *                     SUCCESS                       *
               *           SCF CONVERGED AFTER   1 CYCLES          *
               *****************************************************

Old exchange energy                            =    -18.068803060 Eh
New exchange energy                            =    -18.068789230 Eh
Exchange energy change after final integration =      0.000013830 Eh
Total energy after final integration           =   -621.857540556 Eh
Final COS-X integration done in                =     4.162 sec

----------------
TOTAL SCF ENERGY
----------------

Total Energy       :         -621.85754056 Eh          -16921.60396 eV

Components:
Nuclear Repulsion  :         1004.37714157 Eh           27330.49148 eV
Electronic Energy  :        -1626.23468213 Eh          -44252.09543 eV
One Electron Energy:        -2830.86938528 Eh          -77031.87220 eV
Two Electron Energy:         1204.63470315 Eh           32779.77676 eV
Max COSX asymmetry :            0.00000054 Eh               0.00001 eV

Virial components:
Potential Energy   :        -1239.23264529 Eh          -33721.23463 eV
Kinetic Energy     :          617.37510474 Eh           16799.63068 eV
Virial Ratio       :            2.00726047


DFT components:
N(Alpha)           :       59.000019402963 electrons
N(Beta)            :       58.000014010731 electrons
N(Total)           :      117.000033413694 electrons
E(X)               :      -71.620548326470 Eh       
E(C)               :       -4.508335884700 Eh       
E(XC)              :      -76.128884211169 Eh       
DFET-embed. en.    :        0.000000000000 Eh       

---------------
SCF CONVERGENCE
---------------

  Last Energy change         ...   -9.4321e-08  Tolerance :   1.0000e-06
  Last MAX-Density change    ...    4.1119e-06  Tolerance :   1.0000e-05
  Last RMS-Density change    ...    3.7263e-08  Tolerance :   1.0000e-06
  Last DIIS Error            ...    1.1653e-05  Tolerance :   1.0000e-06

             **** THE GBW FILE WAS UPDATED (cc-pVDZ.gbw) ****
             **** DENSITY cc-pVDZ.scfp WAS UPDATED ****
             **** ENERGY FILE WAS UPDATED (cc-pVDZ.en.tmp) ****
----------------------
UHF SPIN CONTAMINATION
----------------------

Warning: in a DFT calculation there is little theoretical justification to 
         calculate <S**2> as in Hartree-Fock theory. We will do it anyways
         but you should keep in mind that the values have only limited relevance

Expectation value of <S**2>     :     0.785718
Ideal value S*(S+1) for S=0.5   :     0.750000
Deviation                       :     0.035718

             **** THE GBW FILE WAS UPDATED (cc-pVDZ.gbw) ****
             **** DENSITY cc-pVDZ.scfp WAS UPDATED ****
----------------
ORBITAL ENERGIES
----------------
                 SPIN UP ORBITALS
  NO   OCC          E(Eh)            E(eV) 
   0   1.0000     -10.206402      -277.7303 
   1   1.0000     -10.201086      -277.5857 
   2   1.0000     -10.197180      -277.4794 
   3   1.0000     -10.195327      -277.4290 
   4   1.0000     -10.192883      -277.3625 
   5   1.0000     -10.189980      -277.2834 
   6   1.0000     -10.188497      -277.2431 
   7   1.0000     -10.186247      -277.1819 
   8   1.0000     -10.185460      -277.1605 
   9   1.0000     -10.184187      -277.1258 
  10   1.0000     -10.182730      -277.0862 
  11   1.0000     -10.182406      -277.0773 
  12   1.0000     -10.181702      -277.0582 
  13   1.0000     -10.181518      -277.0532 
  14   1.0000     -10.177821      -276.9526 
  15   1.0000     -10.175943      -276.9015 
  16   1.0000      -0.869094       -23.6493 
  17   1.0000      -0.814418       -22.1614 
  18   1.0000      -0.797031       -21.6883 
  19   1.0000      -0.776515       -21.1300 
  20   1.0000      -0.764102       -20.7923 
  21   1.0000      -0.731955       -19.9175 
  22   1.0000      -0.723694       -19.6927 
  23   1.0000      -0.684531       -18.6270 
  24   1.0000      -0.669484       -18.2176 
  25   1.0000      -0.624255       -16.9869 
  26   1.0000      -0.611203       -16.6317 
  27   1.0000      -0.591184       -16.0869 
  28   1.0000      -0.576239       -15.6803 
  29   1.0000      -0.564738       -15.3673 
  30   1.0000      -0.524705       -14.2780 
  31   1.0000      -0.492856       -13.4113 
  32   1.0000      -0.489565       -13.3217 
  33   1.0000      -0.470228       -12.7956 
  34   1.0000      -0.457459       -12.4481 
  35   1.0000      -0.447702       -12.1826 
  36   1.0000      -0.427974       -11.6458 
  37   1.0000      -0.421697       -11.4749 
  38   1.0000      -0.421056       -11.4575 
  39   1.0000      -0.418223       -11.3804 
  40   1.0000      -0.411333       -11.1929 
  41   1.0000      -0.399748       -10.8777 
  42   1.0000      -0.387018       -10.5313 
  43   1.0000      -0.379782       -10.3344 
  44   1.0000      -0.374484       -10.1902 
  45   1.0000      -0.367096        -9.9892 
  46   1.0000      -0.351873        -9.5749 
  47   1.0000      -0.350824        -9.5464 
  48   1.0000      -0.339299        -9.2328 
  49   1.0000      -0.335087        -9.1182 
  50   1.0000      -0.328365        -8.9353 
  51   1.0000      -0.323369        -8.7993 
  52   1.0000      -0.322502        -8.7757 
  53   1.0000      -0.321107        -8.7378 
  54   1.0000      -0.305895        -8.3238 
  55   1.0000      -0.275859        -7.5065 
  56   1.0000      -0.272004        -7.4016 
  57   1.0000      -0.233062        -6.3419 
  58   1.0000      -0.177585        -4.8323 
  59   0.0000      -0.030417        -0.8277 
  60   0.0000       0.011715         0.3188 
  61   0.0000       0.047299         1.2871 
  62   0.0000       0.058682         1.5968 
  63   0.0000       0.063092         1.7168 
  64   0.0000       0.078524         2.1367 
  65   0.0000       0.085810         2.3350 
  66   0.0000       0.087906         2.3921 
  67   0.0000       0.088922         2.4197 
  68   0.0000       0.094365         2.5678 
  69   0.0000       0.099279         2.7015 
  70   0.0000       0.102217         2.7815 
  71   0.0000       0.108330         2.9478 
  72   0.0000       0.117000         3.1837 
  73   0.0000       0.133055         3.6206 
  74   0.0000       0.141260         3.8439 
  75   0.0000       0.144654         3.9362 
  76   0.0000       0.147953         4.0260 
  77   0.0000       0.150017         4.0822 
  78   0.0000       0.152737         4.1562 
  79   0.0000       0.161239         4.3875 
  80   0.0000       0.164351         4.4722 
  81   0.0000       0.166112         4.5201 
  82   0.0000       0.175304         4.7703 
  83   0.0000       0.185954         5.0601 
  84   0.0000       0.190328         5.1791 
  85   0.0000       0.211394         5.7523 
  86   0.0000       0.214793         5.8448 
  87   0.0000       0.230211         6.2644 
  88   0.0000       0.238566         6.4917 
  89   0.0000       0.247574         6.7368 
  90   0.0000       0.250404         6.8138 
  91   0.0000       0.260915         7.0999 
  92   0.0000       0.268458         7.3051 
  93   0.0000       0.297657         8.0996 
  94   0.0000       0.330798         9.0015 
  95   0.0000       0.331741         9.0271 
  96   0.0000       0.348654         9.4874 
  97   0.0000       0.358511         9.7556 
  98   0.0000       0.368787        10.0352 
  99   0.0000       0.406315        11.0564 
 100   0.0000       0.409381        11.1398 
 101   0.0000       0.412338        11.2203 
 102   0.0000       0.415923        11.3178 
 103   0.0000       0.419508        11.4154 
 104   0.0000       0.427626        11.6363 
 105   0.0000       0.437784        11.9127 
 106   0.0000       0.452730        12.3194 
 107   0.0000       0.458799        12.4845 
 108   0.0000       0.465633        12.6705 
 109   0.0000       0.473405        12.8820 
 110   0.0000       0.476790        12.9741 
 111   0.0000       0.484525        13.1846 
 112   0.0000       0.491213        13.3666 
 113   0.0000       0.501626        13.6499 
 114   0.0000       0.505562        13.7570 
 115   0.0000       0.514066        13.9885 
 116   0.0000       0.517320        14.0770 
 117   0.0000       0.534126        14.5343 
 118   0.0000       0.536687        14.6040 
 119   0.0000       0.545050        14.8316 
 120   0.0000       0.552609        15.0373 
 121   0.0000       0.564992        15.3742 
 122   0.0000       0.569601        15.4996 
 123   0.0000       0.580423        15.7941 
 124   0.0000       0.599529        16.3140 
 125   0.0000       0.607208        16.5230 
 126   0.0000       0.612561        16.6686 
 127   0.0000       0.615798        16.7567 
 128   0.0000       0.616896        16.7866 
 129   0.0000       0.627154        17.0657 
 130   0.0000       0.635005        17.2794 
 131   0.0000       0.637925        17.3588 
 132   0.0000       0.641796        17.4642 
 133   0.0000       0.643797        17.5186 
 134   0.0000       0.645303        17.5596 
 135   0.0000       0.651017        17.7151 
 136   0.0000       0.657382        17.8883 
 137   0.0000       0.658124        17.9085 
 138   0.0000       0.661957        18.0128 
 139   0.0000       0.664062        18.0700 
 140   0.0000       0.671932        18.2842 
 141   0.0000       0.679906        18.5012 
 142   0.0000       0.682108        18.5611 
 143   0.0000       0.686261        18.6741 
 144   0.0000       0.695087        18.9143 
 145   0.0000       0.699627        19.0378 
 146   0.0000       0.703658        19.1475 
 147   0.0000       0.708481        19.2788 
 148   0.0000       0.711914        19.3722 
 149   0.0000       0.714914        19.4538 
 150   0.0000       0.729420        19.8485 
 151   0.0000       0.733314        19.9545 
 152   0.0000       0.743209        20.2237 
 153   0.0000       0.748500        20.3677 
 154   0.0000       0.760662        20.6987 
 155   0.0000       0.772937        21.0327 
 156   0.0000       0.796673        21.6786 
 157   0.0000       0.799510        21.7558 
 158   0.0000       0.818128        22.2624 
 159   0.0000       0.833250        22.6739 
 160   0.0000       0.836425        22.7603 
 161   0.0000       0.837971        22.8023 
 162   0.0000       0.844901        22.9909 
 163   0.0000       0.872734        23.7483 
 164   0.0000       0.891927        24.2706 
 165   0.0000       0.903214        24.5777 
 166   0.0000       0.913290        24.8519 
 167   0.0000       0.935432        25.4544 
 168   0.0000       0.956605        26.0305 
 169   0.0000       0.963326        26.2134 
 170   0.0000       0.979997        26.6671 
 171   0.0000       0.987439        26.8696 
 172   0.0000       1.002396        27.2766 
 173   0.0000       1.012913        27.5628 
 174   0.0000       1.022555        27.8251 
 175   0.0000       1.034495        28.1501 
 176   0.0000       1.045510        28.4498 
 177   0.0000       1.064152        28.9571 
 178   0.0000       1.069922        29.1141 
 179   0.0000       1.081050        29.4169 
 180   0.0000       1.083500        29.4835 
 181   0.0000       1.106333        30.1048 
 182   0.0000       1.124143        30.5895 
 183   0.0000       1.147539        31.2261 
 184   0.0000       1.160776        31.5863 
 185   0.0000       1.180701        32.1285 
 186   0.0000       1.188727        32.3469 
 187   0.0000       1.193481        32.4763 
 188   0.0000       1.204770        32.7834 
 189   0.0000       1.215525        33.0761 
 190   0.0000       1.220160        33.2023 
 191   0.0000       1.223672        33.2978 
 192   0.0000       1.247034        33.9335 
 193   0.0000       1.252187        34.0737 
 194   0.0000       1.291883        35.1539 
 195   0.0000       1.301851        35.4252 
 196   0.0000       1.323105        36.0035 
 197   0.0000       1.332266        36.2528 
 198   0.0000       1.338745        36.4291 
 199   0.0000       1.344505        36.5858 
 200   0.0000       1.371311        37.3153 
 201   0.0000       1.392283        37.8859 
 202   0.0000       1.396450        37.9993 
 203   0.0000       1.412224        38.4286 
 204   0.0000       1.416288        38.5392 
 205   0.0000       1.425189        38.7814 
 206   0.0000       1.426161        38.8078 
 207   0.0000       1.431894        38.9638 
 208   0.0000       1.438304        39.1383 
 209   0.0000       1.448041        39.4032 
 210   0.0000       1.460069        39.7305 
 211   0.0000       1.463084        39.8125 
 212   0.0000       1.470852        40.0239 
 213   0.0000       1.488050        40.4919 
 214   0.0000       1.498217        40.7686 
 215   0.0000       1.521652        41.4062 
 216   0.0000       1.534595        41.7584 
 217   0.0000       1.542503        41.9736 
 218   0.0000       1.552069        42.2339 
 219   0.0000       1.563270        42.5387 
 220   0.0000       1.578474        42.9525 
 221   0.0000       1.600722        43.5579 
 222   0.0000       1.601368        43.5755 
 223   0.0000       1.606426        43.7131 
 224   0.0000       1.610915        43.8352 
 225   0.0000       1.622488        44.1501 
 226   0.0000       1.624945        44.2170 
 227   0.0000       1.630222        44.3606 
 228   0.0000       1.631661        44.3998 
 229   0.0000       1.635829        44.5132 
 230   0.0000       1.636751        44.5383 
 231   0.0000       1.645474        44.7756 
 232   0.0000       1.653897        45.0048 
 233   0.0000       1.657791        45.1108 
 234   0.0000       1.667058        45.3630 
 235   0.0000       1.674036        45.5528 
 236   0.0000       1.682340        45.7788 
 237   0.0000       1.687643        45.9231 
 238   0.0000       1.691136        46.0181 
 239   0.0000       1.696217        46.1564 
 240   0.0000       1.703336        46.3501 
 241   0.0000       1.705134        46.3991 
 242   0.0000       1.709051        46.5056 
 243   0.0000       1.717064        46.7237 
 244   0.0000       1.722100        46.8607 
 245   0.0000       1.731574        47.1185 
 246   0.0000       1.741874        47.3988 
 247   0.0000       1.745163        47.4883 
 248   0.0000       1.754780        47.7500 
 249   0.0000       1.765837        48.0509 
 250   0.0000       1.774739        48.2931 
 251   0.0000       1.782622        48.5076 
 252   0.0000       1.795625        48.8614 
 253   0.0000       1.808391        49.2088 
 254   0.0000       1.818365        49.4802 
 255   0.0000       1.833543        49.8932 
 256   0.0000       1.841159        50.1005 
 257   0.0000       1.845082        50.2072 
 258   0.0000       1.861553        50.6554 
 259   0.0000       1.875317        51.0300 
 260   0.0000       1.882516        51.2259 
 261   0.0000       1.904695        51.8294 
 262   0.0000       1.908767        51.9402 
 263   0.0000       1.915252        52.1167 
 264   0.0000       1.923212        52.3333 
 265   0.0000       1.932421        52.5839 
 266   0.0000       1.945633        52.9434 
 267   0.0000       1.961867        53.3851 
 268   0.0000       1.973570        53.7036 
 269   0.0000       1.991674        54.1962 
 270   0.0000       2.013492        54.7899 
 271   0.0000       2.019730        54.9597 
 272   0.0000       2.031827        55.2888 
 273   0.0000       2.043459        55.6053 
 274   0.0000       2.062344        56.1192 
 275   0.0000       2.070690        56.3463 
 276   0.0000       2.085531        56.7502 
 277   0.0000       2.095738        57.0279 
 278   0.0000       2.108532        57.3761 
 279   0.0000       2.113593        57.5138 
 280   0.0000       2.133466        58.0546 
 281   0.0000       2.155981        58.6672 
 282   0.0000       2.182968        59.4016 
 283   0.0000       2.189626        59.5828 
 284   0.0000       2.195552        59.7440 
 285   0.0000       2.203310        59.9551 
 286   0.0000       2.212992        60.2186 
 287   0.0000       2.219969        60.4084 
 288   0.0000       2.242821        61.0303 
 289   0.0000       2.253293        61.3152 
 290   0.0000       2.261547        61.5398 
 291   0.0000       2.275177        61.9107 
 292   0.0000       2.285648        62.1956 
 293   0.0000       2.291719        62.3608 
 294   0.0000       2.299178        62.5638 
 295   0.0000       2.306406        62.7605 
 296   0.0000       2.314728        62.9870 
 297   0.0000       2.321498        63.1712 
 298   0.0000       2.341793        63.7234 
 299   0.0000       2.362312        64.2818 
 300   0.0000       2.403482        65.4021 
 301   0.0000       2.411144        65.6106 
 302   0.0000       2.411564        65.6220 
 303   0.0000       2.417133        65.7735 
 304   0.0000       2.425131        65.9912 
 305   0.0000       2.463041        67.0228 
 306   0.0000       2.469863        67.2084 
 307   0.0000       2.480424        67.4958 
 308   0.0000       2.487297        67.6828 
 309   0.0000       2.508839        68.2690 
 310   0.0000       2.534780        68.9749 
 311   0.0000       2.543581        69.2144 
 312   0.0000       2.555832        69.5477 
 313   0.0000       2.584859        70.3376 
 314   0.0000       2.604151        70.8626 
 315   0.0000       2.611544        71.0637 
 316   0.0000       2.616675        71.2033 
 317   0.0000       2.673445        72.7481 
 318   0.0000       2.687189        73.1221 
 319   0.0000       2.715331        73.8879 
 320   0.0000       2.722581        74.0852 
 321   0.0000       2.777275        75.5735 
 322   0.0000       2.784396        75.7673 
 323   0.0000       2.810954        76.4899 
 324   0.0000       2.865782        77.9819 
 325   0.0000       2.918806        79.4248 
 326   0.0000       3.008262        81.8590 
 327   0.0000       3.193290        86.8938 
 328   0.0000       3.358933        91.4012 

                 SPIN DOWN ORBITALS
  NO   OCC          E(Eh)            E(eV) 
   0   1.0000     -10.208042      -277.7749 
   1   1.0000     -10.197851      -277.4976 
   2   1.0000     -10.197270      -277.4818 
   3   1.0000     -10.193550      -277.3806 
   4   1.0000     -10.189509      -277.2706 
   5   1.0000     -10.188096      -277.2322 
   6   1.0000     -10.186483      -277.1883 
   7   1.0000     -10.185684      -277.1666 
   8   1.0000     -10.184382      -277.1311 
   9   1.0000     -10.183913      -277.1184 
  10   1.0000     -10.183030      -277.0943 
  11   1.0000     -10.181700      -277.0581 
  12   1.0000     -10.181518      -277.0532 
  13   1.0000     -10.179891      -277.0089 
  14   1.0000     -10.177807      -276.9522 
  15   1.0000     -10.175945      -276.9015 
  16   1.0000      -0.865369       -23.5479 
  17   1.0000      -0.811269       -22.0758 
  18   1.0000      -0.796147       -21.6642 
  19   1.0000      -0.773166       -21.0389 
  20   1.0000      -0.762613       -20.7517 
  21   1.0000      -0.729734       -19.8571 
  22   1.0000      -0.720289       -19.6001 
  23   1.0000      -0.682244       -18.5648 
  24   1.0000      -0.662253       -18.0208 
  25   1.0000      -0.617848       -16.8125 
  26   1.0000      -0.608650       -16.5622 
  27   1.0000      -0.589476       -16.0405 
  28   1.0000      -0.575344       -15.6559 
  29   1.0000      -0.563222       -15.3260 
  30   1.0000      -0.522759       -14.2250 
  31   1.0000      -0.491316       -13.3694 
  32   1.0000      -0.487656       -13.2698 
  33   1.0000      -0.469321       -12.7709 
  34   1.0000      -0.455330       -12.3902 
  35   1.0000      -0.447120       -12.1668 
  36   1.0000      -0.426538       -11.6067 
  37   1.0000      -0.419897       -11.4260 
  38   1.0000      -0.418618       -11.3912 
  39   1.0000      -0.416171       -11.3246 
  40   1.0000      -0.409345       -11.1388 
  41   1.0000      -0.396457       -10.7882 
  42   1.0000      -0.384147       -10.4532 
  43   1.0000      -0.377297       -10.2668 
  44   1.0000      -0.371838       -10.1182 
  45   1.0000      -0.365856        -9.9554 
  46   1.0000      -0.350808        -9.5460 
  47   1.0000      -0.347623        -9.4593 
  48   1.0000      -0.337805        -9.1921 
  49   1.0000      -0.334408        -9.0997 
  50   1.0000      -0.327756        -8.9187 
  51   1.0000      -0.322553        -8.7771 
  52   1.0000      -0.321714        -8.7543 
  53   1.0000      -0.320188        -8.7128 
  54   1.0000      -0.301255        -8.1976 
  55   1.0000      -0.271923        -7.3994 
  56   1.0000      -0.257972        -7.0198 
  57   1.0000      -0.224917        -6.1203 
  58   0.0000      -0.081181        -2.2090 
  59   0.0000      -0.019874        -0.5408 
  60   0.0000       0.028474         0.7748 
  61   0.0000       0.047834         1.3016 
  62   0.0000       0.059615         1.6222 
  63   0.0000       0.063276         1.7218 
  64   0.0000       0.079239         2.1562 
  65   0.0000       0.086687         2.3589 
  66   0.0000       0.089474         2.4347 
  67   0.0000       0.092006         2.5036 
  68   0.0000       0.094512         2.5718 
  69   0.0000       0.100695         2.7400 
  70   0.0000       0.103015         2.8032 
  71   0.0000       0.108827         2.9613 
  72   0.0000       0.118150         3.2150 
  73   0.0000       0.134822         3.6687 
  74   0.0000       0.142160         3.8684 
  75   0.0000       0.145145         3.9496 
  76   0.0000       0.149160         4.0588 
  77   0.0000       0.151175         4.1137 
  78   0.0000       0.154079         4.1927 
  79   0.0000       0.161737         4.4011 
  80   0.0000       0.164797         4.4844 
  81   0.0000       0.167251         4.5511 
  82   0.0000       0.177527         4.8307 
  83   0.0000       0.186944         5.0870 
  84   0.0000       0.193421         5.2633 
  85   0.0000       0.212564         5.7842 
  86   0.0000       0.215339         5.8597 
  87   0.0000       0.231071         6.2878 
  88   0.0000       0.240612         6.5474 
  89   0.0000       0.248226         6.7546 
  90   0.0000       0.251995         6.8571 
  91   0.0000       0.261160         7.1065 
  92   0.0000       0.269695         7.3388 
  93   0.0000       0.299367         8.1462 
  94   0.0000       0.332507         9.0480 
  95   0.0000       0.332611         9.0508 
  96   0.0000       0.349582         9.5126 
  97   0.0000       0.360353         9.8057 
  98   0.0000       0.369494        10.0544 
  99   0.0000       0.407440        11.0870 
 100   0.0000       0.409812        11.1515 
 101   0.0000       0.412752        11.2315 
 102   0.0000       0.416337        11.3291 
 103   0.0000       0.420685        11.4474 
 104   0.0000       0.429888        11.6978 
 105   0.0000       0.441223        12.0063 
 106   0.0000       0.454408        12.3651 
 107   0.0000       0.464203        12.6316 
 108   0.0000       0.467723        12.7274 
 109   0.0000       0.474943        12.9239 
 110   0.0000       0.481935        13.1141 
 111   0.0000       0.493476        13.4282 
 112   0.0000       0.499929        13.6038 
 113   0.0000       0.506091        13.7714 
 114   0.0000       0.510333        13.8869 
 115   0.0000       0.516363        14.0510 
 116   0.0000       0.520835        14.1726 
 117   0.0000       0.541654        14.7391 
 118   0.0000       0.545479        14.8432 
 119   0.0000       0.547064        14.8864 
 120   0.0000       0.555883        15.1263 
 121   0.0000       0.566358        15.4114 
 122   0.0000       0.575219        15.6525 
 123   0.0000       0.584676        15.9098 
 124   0.0000       0.601639        16.3714 
 125   0.0000       0.608977        16.5711 
 126   0.0000       0.612705        16.6725 
 127   0.0000       0.616645        16.7798 
 128   0.0000       0.621112        16.9013 
 129   0.0000       0.629049        17.1173 
 130   0.0000       0.637618        17.3505 
 131   0.0000       0.639502        17.4017 
 132   0.0000       0.641970        17.4689 
 133   0.0000       0.644926        17.5493 
 134   0.0000       0.646344        17.5879 
 135   0.0000       0.651564        17.7300 
 136   0.0000       0.658021        17.9057 
 137   0.0000       0.658281        17.9127 
 138   0.0000       0.662285        18.0217 
 139   0.0000       0.664321        18.0771 
 140   0.0000       0.672787        18.3075 
 141   0.0000       0.679307        18.4849 
 142   0.0000       0.683358        18.5951 
 143   0.0000       0.687201        18.6997 
 144   0.0000       0.696095        18.9417 
 145   0.0000       0.700994        19.0750 
 146   0.0000       0.704015        19.1572 
 147   0.0000       0.709275        19.3004 
 148   0.0000       0.713747        19.4220 
 149   0.0000       0.716343        19.4927 
 150   0.0000       0.731667        19.9097 
 151   0.0000       0.734988        20.0000 
 152   0.0000       0.742787        20.2123 
 153   0.0000       0.749258        20.3883 
 154   0.0000       0.764962        20.8157 
 155   0.0000       0.773435        21.0462 
 156   0.0000       0.800079        21.7713 
 157   0.0000       0.803131        21.8543 
 158   0.0000       0.818977        22.2855 
 159   0.0000       0.834186        22.6994 
 160   0.0000       0.837564        22.7913 
 161   0.0000       0.839972        22.8568 
 162   0.0000       0.845608        23.0102 
 163   0.0000       0.874548        23.7977 
 164   0.0000       0.895720        24.3738 
 165   0.0000       0.907351        24.6903 
 166   0.0000       0.915089        24.9008 
 167   0.0000       0.939859        25.5749 
 168   0.0000       0.961546        26.1650 
 169   0.0000       0.970756        26.4156 
 170   0.0000       0.983745        26.7691 
 171   0.0000       0.999727        27.2039 
 172   0.0000       1.005594        27.3636 
 173   0.0000       1.020554        27.7707 
 174   0.0000       1.026077        27.9210 
 175   0.0000       1.036218        28.1969 
 176   0.0000       1.051067        28.6010 
 177   0.0000       1.065508        28.9939 
 178   0.0000       1.070966        29.1425 
 179   0.0000       1.082873        29.4665 
 180   0.0000       1.085825        29.5468 
 181   0.0000       1.110393        30.2153 
 182   0.0000       1.124781        30.6068 
 183   0.0000       1.151977        31.3469 
 184   0.0000       1.161304        31.6007 
 185   0.0000       1.181424        32.1482 
 186   0.0000       1.190886        32.4056 
 187   0.0000       1.194763        32.5112 
 188   0.0000       1.205111        32.7927 
 189   0.0000       1.215936        33.0873 
 190   0.0000       1.220905        33.2225 
 191   0.0000       1.224080        33.3089 
 192   0.0000       1.247397        33.9434 
 193   0.0000       1.253401        34.1068 
 194   0.0000       1.293875        35.2081 
 195   0.0000       1.302925        35.4544 
 196   0.0000       1.324978        36.0545 
 197   0.0000       1.332865        36.2691 
 198   0.0000       1.340680        36.4817 
 199   0.0000       1.345256        36.6063 
 200   0.0000       1.372921        37.3591 
 201   0.0000       1.393815        37.9276 
 202   0.0000       1.400008        38.0962 
 203   0.0000       1.415152        38.5082 
 204   0.0000       1.418066        38.5875 
 205   0.0000       1.426130        38.8070 
 206   0.0000       1.426183        38.8084 
 207   0.0000       1.435917        39.0733 
 208   0.0000       1.440748        39.2047 
 209   0.0000       1.452743        39.5312 
 210   0.0000       1.461308        39.7642 
 211   0.0000       1.464618        39.8543 
 212   0.0000       1.471750        40.0483 
 213   0.0000       1.488963        40.5167 
 214   0.0000       1.499933        40.8153 
 215   0.0000       1.524024        41.4708 
 216   0.0000       1.534872        41.7660 
 217   0.0000       1.545039        42.0426 
 218   0.0000       1.554277        42.2940 
 219   0.0000       1.565139        42.5896 
 220   0.0000       1.579149        42.9708 
 221   0.0000       1.602003        43.5927 
 222   0.0000       1.602713        43.6120 
 223   0.0000       1.607951        43.7546 
 224   0.0000       1.612108        43.8677 
 225   0.0000       1.624722        44.2109 
 226   0.0000       1.627074        44.2749 
 227   0.0000       1.630874        44.3783 
 228   0.0000       1.633622        44.4531 
 229   0.0000       1.636742        44.5380 
 230   0.0000       1.637458        44.5575 
 231   0.0000       1.646568        44.8054 
 232   0.0000       1.654776        45.0287 
 233   0.0000       1.658642        45.1339 
 234   0.0000       1.667948        45.3872 
 235   0.0000       1.675175        45.5838 
 236   0.0000       1.683668        45.8149 
 237   0.0000       1.688428        45.9445 
 238   0.0000       1.691949        46.0403 
 239   0.0000       1.697551        46.1927 
 240   0.0000       1.703648        46.3586 
 241   0.0000       1.706341        46.4319 
 242   0.0000       1.710805        46.5534 
 243   0.0000       1.717999        46.7491 
 244   0.0000       1.722779        46.8792 
 245   0.0000       1.732507        47.1439 
 246   0.0000       1.745835        47.5066 
 247   0.0000       1.749579        47.6085 
 248   0.0000       1.755666        47.7741 
 249   0.0000       1.766669        48.0735 
 250   0.0000       1.775755        48.3207 
 251   0.0000       1.784639        48.5625 
 252   0.0000       1.796601        48.8880 
 253   0.0000       1.809870        49.2491 
 254   0.0000       1.821879        49.5758 
 255   0.0000       1.838129        50.0180 
 256   0.0000       1.842000        50.1234 
 257   0.0000       1.846470        50.2450 
 258   0.0000       1.863569        50.7103 
 259   0.0000       1.877004        51.0759 
 260   0.0000       1.890360        51.4393 
 261   0.0000       1.905536        51.8523 
 262   0.0000       1.912383        52.0386 
 263   0.0000       1.923165        52.3320 
 264   0.0000       1.930076        52.5200 
 265   0.0000       1.937500        52.7221 
 266   0.0000       1.946825        52.9758 
 267   0.0000       1.964710        53.4625 
 268   0.0000       1.980677        53.8970 
 269   0.0000       1.994548        54.2744 
 270   0.0000       2.014185        54.8088 
 271   0.0000       2.021577        55.0099 
 272   0.0000       2.034987        55.3748 
 273   0.0000       2.044234        55.6264 
 274   0.0000       2.063201        56.1426 
 275   0.0000       2.072619        56.3988 
 276   0.0000       2.086650        56.7806 
 277   0.0000       2.097617        57.0791 
 278   0.0000       2.109601        57.4052 
 279   0.0000       2.116888        57.6035 
 280   0.0000       2.134729        58.0889 
 281   0.0000       2.157792        58.7165 
 282   0.0000       2.183288        59.4103 
 283   0.0000       2.191748        59.6405 
 284   0.0000       2.196355        59.7659 
 285   0.0000       2.205110        60.0041 
 286   0.0000       2.214411        60.2572 
 287   0.0000       2.220292        60.4172 
 288   0.0000       2.246301        61.1250 
 289   0.0000       2.254676        61.3528 
 290   0.0000       2.262883        61.5762 
 291   0.0000       2.275873        61.9297 
 292   0.0000       2.286862        62.2287 
 293   0.0000       2.292634        62.3857 
 294   0.0000       2.299809        62.5810 
 295   0.0000       2.307819        62.7990 
 296   0.0000       2.315688        63.0131 
 297   0.0000       2.321664        63.1757 
 298   0.0000       2.344051        63.7849 
 299   0.0000       2.365588        64.3709 
 300   0.0000       2.404265        65.4234 
 301   0.0000       2.411386        65.6172 
 302   0.0000       2.411632        65.6238 
 303   0.0000       2.417548        65.7848 
 304   0.0000       2.425642        66.0051 
 305   0.0000       2.463441        67.0336 
 306   0.0000       2.470768        67.2330 
 307   0.0000       2.481115        67.5146 
 308   0.0000       2.487942        67.7004 
 309   0.0000       2.509544        68.2882 
 310   0.0000       2.535439        68.9928 
 311   0.0000       2.543958        69.2246 
 312   0.0000       2.557839        69.6023 
 313   0.0000       2.585999        70.3686 
 314   0.0000       2.604398        70.8693 
 315   0.0000       2.612483        71.0893 
 316   0.0000       2.617926        71.2374 
 317   0.0000       2.674761        72.7839 
 318   0.0000       2.688009        73.1444 
 319   0.0000       2.715700        73.8980 
 320   0.0000       2.723196        74.1019 
 321   0.0000       2.778782        75.6145 
 322   0.0000       2.785703        75.8028 
 323   0.0000       2.811945        76.5169 
 324   0.0000       2.868147        78.0463 
 325   0.0000       2.919325        79.4389 
 326   0.0000       3.011452        81.9458 
 327   0.0000       3.192721        86.8783 
 328   0.0000       3.360730        91.4501 

                    ********************************
                    * MULLIKEN POPULATION ANALYSIS *
                    ********************************

--------------------------------------------
MULLIKEN ATOMIC CHARGES AND SPIN POPULATIONS
--------------------------------------------
   0 C :    0.618166    0.029341
   1 C :   -0.061942    0.245797
   2 C :   -0.046129   -0.170930
   3 C :    0.024543    0.228000
   4 C :   -0.047136   -0.112571
   5 C :   -0.073292    0.262507
   6 C :    0.030419   -0.125897
   7 H :   -0.051886   -0.009556
   8 H :   -0.062802    0.004565
   9 C :    0.042160    0.748367
  10 H :    0.011826   -0.030041
  11 H :    0.007924   -0.029517
  12 C :    0.051951   -0.018343
  13 H :   -0.000706    0.002444
  14 H :    0.008293    0.006868
  15 C :   -0.029378    0.011831
  16 H :    0.011909   -0.000704
  17 H :    0.007122   -0.000240
  18 C :   -0.006387    0.001077
  19 H :    0.016483   -0.000032
  20 H :    0.016902    0.000228
  21 C :    0.044281   -0.020736
  22 H :    0.031816    0.011177
  23 H :    0.032009    0.011398
  24 C :   -0.035995    0.000962
  25 H :    0.015311    0.000212
  26 H :    0.014394    0.000215
  27 C :   -0.024298    0.000023
  28 H :    0.006022    0.000060
  29 H :    0.006314    0.000060
  30 C :    0.003132   -0.000090
  31 H :    0.016311    0.000027
  32 H :    0.016534    0.000025
  33 C :   -0.592076   -0.048777
  34 H :   -0.030631    0.001932
  35 H :    0.015722    0.000321
  36 H :    0.013115   -0.000006
Sum of atomic charges         :   -0.0000000
Sum of atomic spin populations:    1.0000000

-----------------------------------------------------
MULLIKEN REDUCED ORBITAL CHARGES AND SPIN POPULATIONS
-----------------------------------------------------
CHARGE
  0 C s       :     3.121445  s :     3.121445
      pz      :     0.944672  p :     2.205728
      px      :     0.325782
      py      :     0.935274
      dz2     :     0.004601  d :     0.054662
      dxz     :     0.020561
      dyz     :     0.000740
      dx2y2   :     0.009530
      dxy     :     0.019230
  1 C s       :     3.158322  s :     3.158322
      pz      :     0.938284  p :     2.820742
      px      :     0.912462
      py      :     0.969997
      dz2     :     0.004860  d :     0.082878
      dxz     :     0.011988
      dyz     :     0.012902
      dx2y2   :     0.026653
      dxy     :     0.026475
  2 C s       :     3.126960  s :     3.126960
      pz      :     0.954734  p :     2.833123
      px      :     0.917429
      py      :     0.960960
      dz2     :     0.005534  d :     0.086046
      dxz     :     0.012073
      dyz     :     0.014595
      dx2y2   :     0.027946
      dxy     :     0.025898
  3 C s       :     3.211495  s :     3.211495
      pz      :     0.972957  p :     2.699697
      px      :     0.887599
      py      :     0.839141
      dz2     :     0.004123  d :     0.064264
      dxz     :     0.011154
      dyz     :     0.006570
      dx2y2   :     0.020245
      dxy     :     0.022172
  4 C s       :     3.219607  s :     3.219607
      pz      :     1.001767  p :     2.739617
      px      :     0.790161
      py      :     0.947689
      dz2     :     0.005307  d :     0.087912
      dxz     :     0.012492
      dyz     :     0.013807
      dx2y2   :     0.029183
      dxy     :     0.027123
  5 C s       :     3.175493  s :     3.175493
      pz      :     0.948113  p :     2.813758
      px      :     0.925217
      py      :     0.940428
      dz2     :     0.005474  d :     0.084040
      dxz     :     0.014247
      dyz     :     0.012445
      dx2y2   :     0.024780
      dxy     :     0.027094
  6 C s       :     3.183415  s :     3.183415
      pz      :     1.007168  p :     2.721925
      px      :     0.884619
      py      :     0.830138
      dz2     :     0.003879  d :     0.064241
      dxz     :     0.011295
      dyz     :     0.005945
      dx2y2   :     0.020670
      dxy     :     0.022453
  7 H s       :     1.023683  s :     1.023683
      pz      :     0.005939  p :     0.028203
      px      :     0.007158
      py      :     0.015107
  8 H s       :     1.034131  s :     1.034131
      pz      :     0.006179  p :     0.028672
      px      :     0.007269
      py      :     0.015223
  9 C s       :     3.038236  s :     3.038236
      pz      :     1.008227  p :     2.880035
      px      :     0.891604
      py      :     0.980204
[...]
 A(DIA)          0.0001               0.0001               0.0000    A(PC) =   0.0000
             ----------           ----------           ----------
 A(Tot)         -0.1177              -0.1339               0.4190    A(iso)=    0.0558
 Orientation: 
  X           0.9770358           -0.1961454            0.0832349
  Y          -0.0671150            0.0874547            0.9939051
  Z          -0.2022291           -0.9766671            0.0722821

Notes:  (1) The A matrix conforms to the "SAI" spin Hamiltonian convention.
        (2) Tensor is right-handed.

 -----------------------------------------------------------
 Nucleus  34H : A:ISTP=    1 I=  0.5 P=533.5514 MHz/au**3
                Q:ISTP=    2 I=  1.0 Q=  0.0029 barn     
 -----------------------------------------------------------
 Solving for nuclear perturbation:
Forming RHS of the CP-SCF equations         ... 
Calc. nucleus orbit integrals (SHARK)       ... done

------------------------------------------------------------------------------
                           ORCA CP-SCF CALCULATION
------------------------------------------------------------------------------

Input orbitals are from        ... cc-pVDZ.gbw
Input Perturbation             ... cc-pVDZ.pin.tmp
Wavefunction output            ... cc-pVDZ.pout.tmp
Perturbation mode              ... Imaginary perturbation
Solver                         ... POPLE
Max. number of iterations      ... 64
Convergence tolerance          ... 1.000e-03
Integral handling              ... Direct
DFT GridXC                     ... 1
COSX GridX                     ... 1
COSX IntAccX                   ... 3.067
COSX Algorithm                 ... Auto
Number of perturbations        ... 3
Number of operators            ... 2
Orbital ranges used for CP-SCF:
 Operator 0:  Orbitals   0... 58  to  59...328
 Operator 1:  Orbitals   0... 57  to  58...328
Variables per perturbation     ... 31648
DFT calculation                         ... on
XC functional terms                     ... off
Hybrid DFT                              ... on
   Exchange mixing (SCF)                ...  0.200
   Exchange mixing (CP-SCF)             ...  0.200
   GGA exch. scaling(SCF)               ...  0.720
   GGA exch. scaling (CP-SCF)           ...  0.720
   GGA corr. scaling (SCF)              ...  0.810
   GGA corr. scaling (CP-SCF)           ...  0.810

CP-SCF GRID
-----------

General Integration Accuracy     IntAcc      ... 3.467
Radial Grid Type                 RadialGrid  ... OptM3 with GC (2021)
Angular Grid (max. ang.)         AngularGrid ... 1 (Lebedev-50)
Angular grid pruning method      GridPruning ... 4 (adaptive)
Weight generation scheme         WeightScheme... Becke
Basis function cutoff            BFCut       ... 1.0000e-10
Integration weight cutoff        WCut        ... 1.0000e-14
Angular grids for H and He will be reduced by one unit
Partially contracted basis set               ... off
Rotationally invariant grid construction     ... off

Total number of grid points                  ...    22895
Total number of batches                      ...      373
Average number of points per batch           ...       61
Average number of grid points per atom       ...      619

CP-SCF GRIDX
------------

General Integration Accuracy     IntAcc      ... 3.067
Radial Grid Type                 RadialGrid  ... OptM3 with GC (2021)
Angular Grid (max. ang.)         AngularGrid ... 1 (Lebedev-50)
Angular grid pruning method      GridPruning ... 4 (adaptive)
Weight generation scheme         WeightScheme... Becke
Basis function cutoff            BFCut       ... 1.0000e-10
Integration weight cutoff        WCut        ... 1.0000e-14
Angular grids for H and He will be reduced by one unit
Partially contracted basis set               ... on
Rotationally invariant grid construction     ... off

Total number of grid points                  ...    10842
Total number of batches                      ...      192
Average number of points per batch           ...       56
Average number of grid points per atom       ...      293

Memory available               ... 913.2 MB
Memory needed per perturbation ...   6.9 MB
Perturbations treated per batch... 3
Number of batches              ... 1
     CP-SCF ITERATION   0:   9.8614e-02 (   0.9 sec   0/  3 done)
     CP-SCF ITERATION   1:   2.2302e-03 (   1.0 sec   0/  3 done)
     CP-SCF ITERATION   2:   1.6304e-04 (   1.0 sec   3/  3 done)
                    *** THE CP-SCF HAS CONVERGED ***

Forming final perturbed densities           ... done
Transforming perturbed density to AO basis  ... done

 Raw HFC matrix (all values in MHz): 
 -----------------------------------
                 2.2258               0.3485               0.1339
                 0.3484               4.5793              -0.1302
                 0.1339              -0.1303               3.0787

 A(FC)           3.2949               3.2949               3.2949
 A(SD)          -1.1442              -0.1993               1.3435
 A(ORB+DIA)     -0.0001               0.0001              -0.0009    A(PC) =  -0.0003
 A(ORB)          0.0000              -0.0001              -0.0010    A(PC) =  -0.0004
 A(DIA)         -0.0001               0.0002               0.0001    A(PC) =   0.0001
             ----------           ----------           ----------
 A(Tot)          2.1506               3.0957               4.6376    A(iso)=    3.2946
 Orientation: 
  X          -0.9755989            0.1701200            0.1388020
  Y           0.1486378            0.0464511            0.9878001
  Z           0.1615971            0.9843279           -0.0706039

Notes:  (1) The A matrix conforms to the "SAI" spin Hamiltonian convention.
        (2) Tensor is right-handed.

 -----------------------------------------------------------
 Nucleus  35H : A:ISTP=    1 I=  0.5 P=533.5514 MHz/au**3
                Q:ISTP=    2 I=  1.0 Q=  0.0029 barn     
 -----------------------------------------------------------
 Solving for nuclear perturbation:
Forming RHS of the CP-SCF equations         ... 
Calc. nucleus orbit integrals (SHARK)       ... done

------------------------------------------------------------------------------
                           ORCA CP-SCF CALCULATION
------------------------------------------------------------------------------

Input orbitals are from        ... cc-pVDZ.gbw
Input Perturbation             ... cc-pVDZ.pin.tmp
Wavefunction output            ... cc-pVDZ.pout.tmp
Perturbation mode              ... Imaginary perturbation
Solver                         ... POPLE
Max. number of iterations      ... 64
Convergence tolerance          ... 1.000e-03
Integral handling              ... Direct
DFT GridXC                     ... 1
COSX GridX                     ... 1
COSX IntAccX                   ... 3.067
COSX Algorithm                 ... Auto
Number of perturbations        ... 3
Number of operators            ... 2
Orbital ranges used for CP-SCF:
 Operator 0:  Orbitals   0... 58  to  59...328
 Operator 1:  Orbitals   0... 57  to  58...328
Variables per perturbation     ... 31648
DFT calculation                         ... on
XC functional terms                     ... off
Hybrid DFT                              ... on
   Exchange mixing (SCF)                ...  0.200
   Exchange mixing (CP-SCF)             ...  0.200
   GGA exch. scaling(SCF)               ...  0.720
   GGA exch. scaling (CP-SCF)           ...  0.720
   GGA corr. scaling (SCF)              ...  0.810
   GGA corr. scaling (CP-SCF)           ...  0.810

CP-SCF GRID
-----------

General Integration Accuracy     IntAcc      ... 3.467
Radial Grid Type                 RadialGrid  ... OptM3 with GC (2021)
Angular Grid (max. ang.)         AngularGrid ... 1 (Lebedev-50)
Angular grid pruning method      GridPruning ... 4 (adaptive)
Weight generation scheme         WeightScheme... Becke
Basis function cutoff            BFCut       ... 1.0000e-10
Integration weight cutoff        WCut        ... 1.0000e-14
Angular grids for H and He will be reduced by one unit
Partially contracted basis set               ... off
Rotationally invariant grid construction     ... off

Total number of grid points                  ...    22895
Total number of batches                      ...      373
Average number of points per batch           ...       61
Average number of grid points per atom       ...      619

CP-SCF GRIDX
------------

General Integration Accuracy     IntAcc      ... 3.067
Radial Grid Type                 RadialGrid  ... OptM3 with GC (2021)
Angular Grid (max. ang.)         AngularGrid ... 1 (Lebedev-50)
Angular grid pruning method      GridPruning ... 4 (adaptive)
Weight generation scheme         WeightScheme... Becke
Basis function cutoff            BFCut       ... 1.0000e-10
Integration weight cutoff        WCut        ... 1.0000e-14
Angular grids for H and He will be reduced by one unit
Partially contracted basis set               ... on
Rotationally invariant grid construction     ... off

Total number of grid points                  ...    10842
Total number of batches                      ...      192
Average number of points per batch           ...       56
Average number of grid points per atom       ...      293

Memory available               ... 912.9 MB
Memory needed per perturbation ...   6.9 MB
Perturbations treated per batch... 3
Number of batches              ... 1
     CP-SCF ITERATION   0:   3.6301e-02 (   1.0 sec   0/  3 done)
     CP-SCF ITERATION   1:   6.2656e-04 (   1.0 sec   3/  3 done)
                    *** THE CP-SCF HAS CONVERGED ***

Forming final perturbed densities           ... done
Transforming perturbed density to AO basis  ... done

 Raw HFC matrix (all values in MHz): 
 -----------------------------------
                 1.2983              -0.3929               0.4557
                -0.3932               0.2796              -0.1472
                 0.4555              -0.1471               0.3818

 A(FC)           0.6532               0.6532               0.6532
 A(SD)          -0.5085              -0.4558               0.9643
 A(ORB+DIA)     -0.0001              -0.0000               0.0003    A(PC) =   0.0000
 A(ORB)         -0.0001              -0.0000               0.0002    A(PC) =   0.0000
 A(DIA)          0.0000               0.0000               0.0001    A(PC) =   0.0000
             ----------           ----------           ----------
 A(Tot)          0.1446               0.1974               1.6177    A(iso)=    0.6532
 Orientation: 
  X           0.3635312           -0.2963343            0.8831937
  Y           0.9232415            0.2411825           -0.2990923
  Z          -0.1243795            0.9241304            0.3612655

Notes:  (1) The A matrix conforms to the "SAI" spin Hamiltonian convention.
        (2) Tensor is right-handed.

 -----------------------------------------------------------
 Nucleus  36H : A:ISTP=    1 I=  0.5 P=533.5514 MHz/au**3
                Q:ISTP=    2 I=  1.0 Q=  0.0029 barn     
 -----------------------------------------------------------
 Solving for nuclear perturbation:
Forming RHS of the CP-SCF equations         ... 
Calc. nucleus orbit integrals (SHARK)       ... done

------------------------------------------------------------------------------
                           ORCA CP-SCF CALCULATION
------------------------------------------------------------------------------

Input orbitals are from        ... cc-pVDZ.gbw
Input Perturbation             ... cc-pVDZ.pin.tmp
Wavefunction output            ... cc-pVDZ.pout.tmp
Perturbation mode              ... Imaginary perturbation
Solver                         ... POPLE
Max. number of iterations      ... 64
Convergence tolerance          ... 1.000e-03
Integral handling              ... Direct
DFT GridXC                     ... 1
COSX GridX                     ... 1
COSX IntAccX                   ... 3.067
COSX Algorithm                 ... Auto
Number of perturbations        ... 3
Number of operators            ... 2
Orbital ranges used for CP-SCF:
 Operator 0:  Orbitals   0... 58  to  59...328
 Operator 1:  Orbitals   0... 57  to  58...328
Variables per perturbation     ... 31648
DFT calculation                         ... on
XC functional terms                     ... off
Hybrid DFT                              ... on
   Exchange mixing (SCF)                ...  0.200
   Exchange mixing (CP-SCF)             ...  0.200
   GGA exch. scaling(SCF)               ...  0.720
   GGA exch. scaling (CP-SCF)           ...  0.720
   GGA corr. scaling (SCF)              ...  0.810
   GGA corr. scaling (CP-SCF)           ...  0.810

CP-SCF GRID
-----------

General Integration Accuracy     IntAcc      ... 3.467
Radial Grid Type                 RadialGrid  ... OptM3 with GC (2021)
Angular Grid (max. ang.)         AngularGrid ... 1 (Lebedev-50)
Angular grid pruning method      GridPruning ... 4 (adaptive)
Weight generation scheme         WeightScheme... Becke
Basis function cutoff            BFCut       ... 1.0000e-10
Integration weight cutoff        WCut        ... 1.0000e-14
Angular grids for H and He will be reduced by one unit
Partially contracted basis set               ... off
Rotationally invariant grid construction     ... off

Total number of grid points                  ...    22895
Total number of batches                      ...      373
Average number of points per batch           ...       61
Average number of grid points per atom       ...      619

CP-SCF GRIDX
------------

General Integration Accuracy     IntAcc      ... 3.067
Radial Grid Type                 RadialGrid  ... OptM3 with GC (2021)
Angular Grid (max. ang.)         AngularGrid ... 1 (Lebedev-50)
Angular grid pruning method      GridPruning ... 4 (adaptive)
Weight generation scheme         WeightScheme... Becke
Basis function cutoff            BFCut       ... 1.0000e-10
Integration weight cutoff        WCut        ... 1.0000e-14
Angular grids for H and He will be reduced by one unit
Partially contracted basis set               ... on
Rotationally invariant grid construction     ... off

Total number of grid points                  ...    10842
Total number of batches                      ...      192
Average number of points per batch           ...       56
Average number of grid points per atom       ...      293

Memory available               ... 912.5 MB
Memory needed per perturbation ...   6.9 MB
Perturbations treated per batch... 3
Number of batches              ... 1
     CP-SCF ITERATION   0:   3.6472e-02 (   1.0 sec   0/  3 done)
     CP-SCF ITERATION   1:   6.0316e-04 (   1.0 sec   3/  3 done)
                    *** THE CP-SCF HAS CONVERGED ***

Forming final perturbed densities           ... done
Transforming perturbed density to AO basis  ... done

 Raw HFC matrix (all values in MHz): 
 -----------------------------------
                -0.1213               0.0924              -0.0071
                 0.0924               0.2366              -0.0315
                -0.0071              -0.0315              -0.1379

 A(FC)          -0.0076              -0.0076              -0.0076
 A(SD)          -0.1329              -0.1363               0.2692
 A(ORB+DIA)      0.0000               0.0001               0.0001    A(PC) =   0.0001
 A(ORB)          0.0000               0.0000               0.0001    A(PC) =   0.0000
 A(DIA)          0.0000               0.0001               0.0000    A(PC) =   0.0000
             ----------           ----------           ----------
 A(Tot)         -0.1405              -0.1439               0.2616    A(iso)=   -0.0076
 Orientation: 
  X           0.1746647            0.9561531            0.2350819
  Y           0.0394741           -0.2453600            0.9686280
  Z           0.9838364           -0.1599055           -0.0805990

Notes:  (1) The A matrix conforms to the "SAI" spin Hamiltonian convention.
        (2) Tensor is right-handed.


--------------------------------------------------------------------------------
----------------------------------------------------------------------------
                           ORCA EULER ANGLE PROGRAM
----------------------------------------------------------------------------

Only g-tensor available        -->  using g-tensor as reference tensor

Reference tensor               ...  g

g-tensor ordering              ...  |g_min> --> |gx>
                                    |g_mid> --> |gy>
                                    |g_max> --> |gz>

A- and EFG-tensor ordering     ...  the axes |Ax>, |Qx>, |Ay>, etc. are assigned
                                    such that the Euler rotation is minimal. You
                                    can find the respective eigenvalues as Ax,
                                    EFGx, Ay, etc. in the tables below.
                                    The relation of |Ax>, |Ay>,  etc. to Amin, Amid, etc.
                                    (as printed in the ORCA EPR/NMR CALCULATION Output)
                                    is obtained in the detailed printout.

Euler rotation around          ...  z - y - z
   First rotation              -->  by alpha around z
   Second rotation             -->  by beta around y'
   Third rotation              -->  by gamma around z''
   Positive / Negative angle   -->  clockwise / counterclockwise rotation

Plot EFG-tensors                    (-)
Plot HFC-tensors                    (-)
Detailed Printout                   (-)

-------------------------------------------------------------------------
          Euler rotation of hyperfine tensor to g-tensor
-------------------------------------------------------------------------

-------------------------------------------------------------------
 Atom  |   Alpha    Beta    Gamma   |   Ax       Ay       Az 
       |          [degrees]         |           [MHz]         
-------------------------------------------------------------------
  7H       99.8     22.3    -95.3     -17.27   -20.43    -6.57
  8H      103.1     19.4    -99.4       3.92     9.73     5.05
 10H     -104.7     12.5    105.8     -45.51   -16.43   -71.59
 11H      100.5     16.6    -97.5     -45.42   -70.58   -15.72
 13H       66.3     33.8   -101.4       3.09     3.30     7.55
 14H      102.8     46.2   -105.4       4.88     6.30    11.77
 16H      171.9     42.6    147.3       3.62    -3.21    -1.34
 17H     -177.5     44.5    159.7       2.18    -1.15    -1.70
 19H      -44.2     42.8     48.1      -0.75     1.29    -0.58
 20H     -113.6     52.1    139.1      -0.27     1.33    -0.20
 22H      140.8     44.0   -163.7      22.55    26.71    23.18
 23H       41.5     37.8    -10.3      22.95    27.11    23.60
 25H     -166.0     16.7    165.3      -1.05    -0.94     1.16
 26H      -25.9     10.6     34.3      -1.06    -0.95     1.15
 28H      -50.3     36.2     83.7      -0.12    -0.17     0.89
 29H     -141.8     37.7    112.9      -0.12    -0.17     0.89
 31H      -72.7     17.2     79.3      -0.13    -0.12     0.42
 32H     -125.6     19.9    126.8      -0.13    -0.12     0.42
 34H     -100.0     21.3    102.0       3.10     2.15     4.64
 35H      -65.4     34.9     96.1       0.20     1.62     0.14
 36H      -99.0     27.0    100.6      -0.14    -0.14     0.26
-------------------------------------------------------------------


Maximum memory used throughout the entire EPRNMR-calculation: 151.4 MB

Timings for individual modules:

Sum of individual times         ...     1500.350 sec (=  25.006 min)
GTO integral calculation        ...        4.708 sec (=   0.078 min)   0.3 %
Spin-Orbit-Coupling Matrices    ...        6.654 sec (=   0.111 min)   0.4 %
SCF iterations                  ...       20.425 sec (=   0.340 min)   1.4 %
EPR/NMR calculation             ...     1468.563 sec (=  24.476 min)  97.9 %
                             ****ORCA TERMINATED NORMALLY****
TOTAL RUN TIME: 0 days 0 hours 25 minutes 5 seconds 36 msec
