
                                 *****************
                                 * O   R   C   A *
                                 *****************

                                            #,                                       
                                            ###                                      
                                            ####                                     
                                            #####                                    
                                            ######                                   
                                           ########,                                 
                                     ,,################,,,,,                         
                               ,,#################################,,                 
                          ,,##########################################,,             
                       ,#########################################, ''#####,          
                    ,#############################################,,   '####,        
                  ,##################################################,,,,####,       
                ,###########''''           ''''###############################       
              ,#####''   ,,,,##########,,,,          '''####'''          '####       
            ,##' ,,,,###########################,,,                        '##       
           ' ,,###''''                  '''############,,,                           
         ,,##''                                '''############,,,,        ,,,,,,###''
      ,#''                                            '''#######################'''  
     '                                                          ''''####''''         
             ,#######,   #######,   ,#######,      ##                                
            ,#'     '#,  ##    ##  ,#'     '#,    #''#        ######   ,####,        
            ##       ##  ##   ,#'  ##            #'  '#       #        #'  '#        
            ##       ##  #######   ##           ,######,      #####,   #    #        
            '#,     ,#'  ##    ##  '#,     ,#' ,#      #,         ##   #,  ,#        
             '#######'   ##     ##  '#######'  #'      '#     #####' # '####'        



                  #######################################################
                  #                        -***-                        #
                  #          Department of theory and spectroscopy      #
                  #    Directorship and core code : Frank Neese         #
                  #        Max Planck Institute fuer Kohlenforschung    #
                  #                Kaiser Wilhelm Platz 1               #
                  #                 D-45470 Muelheim/Ruhr               #
                  #                      Germany                        #
                  #                                                     #
                  #                  All rights reserved                #
                  #                        -***-                        #
                  #######################################################


                         Program Version 5.0.4 -  RELEASE  -


 With contributions from (in alphabetic order):
   Daniel Aravena         : Magnetic Suceptibility
   Michael Atanasov       : Ab Initio Ligand Field Theory (pilot matlab implementation)
   Alexander A. Auer      : GIAO ZORA, VPT2 properties, NMR spectrum
   Ute Becker             : Parallelization
   Giovanni Bistoni       : ED, misc. LED, open-shell LED, HFLD
   Martin Brehm           : Molecular dynamics
   Dmytro Bykov           : SCF Hessian
   Vijay G. Chilkuri      : MRCI spin determinant printing, contributions to CSF-ICE
   Dipayan Datta          : RHF DLPNO-CCSD density
   Achintya Kumar Dutta   : EOM-CC, STEOM-CC
   Dmitry Ganyushin       : Spin-Orbit,Spin-Spin,Magnetic field MRCI
   Miquel Garcia          : C-PCM and meta-GGA Hessian, CC/C-PCM, Gaussian charge scheme
   Yang Guo               : DLPNO-NEVPT2, F12-NEVPT2, CIM, IAO-localization
   Andreas Hansen         : Spin unrestricted coupled pair/coupled cluster methods
   Benjamin Helmich-Paris : MC-RPA, TRAH-SCF, COSX integrals
   Lee Huntington         : MR-EOM, pCC
   Robert Izsak           : Overlap fitted RIJCOSX, COSX-SCS-MP3, EOM
   Marcus Kettner         : VPT2
   Christian Kollmar      : KDIIS, OOCD, Brueckner-CCSD(T), CCSD density, CASPT2, CASPT2-K
   Simone Kossmann        : Meta GGA functionals, TD-DFT gradient, OOMP2, MP2 Hessian
   Martin Krupicka        : Initial AUTO-CI
   Lucas Lang             : DCDCAS
   Marvin Lechner         : AUTO-CI (C++ implementation), FIC-MRCC
   Dagmar Lenk            : GEPOL surface, SMD
   Dimitrios Liakos       : Extrapolation schemes; Compound Job, initial MDCI parallelization
   Dimitrios Manganas     : Further ROCIS development; embedding schemes
   Dimitrios Pantazis     : SARC Basis sets
   Anastasios Papadopoulos: AUTO-CI, single reference methods and gradients
   Taras Petrenko         : DFT Hessian,TD-DFT gradient, ASA, ECA, R-Raman, ABS, FL, XAS/XES, NRVS
   Peter Pinski           : DLPNO-MP2, DLPNO-MP2 Gradient
   Christoph Reimann      : Effective Core Potentials
   Marius Retegan         : Local ZFS, SOC
   Christoph Riplinger    : Optimizer, TS searches, QM/MM, DLPNO-CCSD(T), (RO)-DLPNO pert. Triples
   Tobias Risthaus        : Range-separated hybrids, TD-DFT gradient, RPA, STAB
   Michael Roemelt        : Original ROCIS implementation
   Masaaki Saitow         : Open-shell DLPNO-CCSD energy and density
   Barbara Sandhoefer     : DKH picture change effects
   Avijit Sen             : IP-ROCIS
   Kantharuban Sivalingam : CASSCF convergence, NEVPT2, FIC-MRCI
   Bernardo de Souza      : ESD, SOC TD-DFT
   Georgi Stoychev        : AutoAux, RI-MP2 NMR, DLPNO-MP2 response
   Willem Van den Heuvel  : Paramagnetic NMR
   Boris Wezisla          : Elementary symmetry handling
   Frank Wennmohs         : Technical directorship


 We gratefully acknowledge several colleagues who have allowed us to
 interface, adapt or use parts of their codes:
   Stefan Grimme, W. Hujo, H. Kruse, P. Pracht,  : VdW corrections, initial TS optimization,
                  C. Bannwarth, S. Ehlert          DFT functionals, gCP, sTDA/sTD-DF
   Ed Valeev, F. Pavosevic, A. Kumar             : LibInt (2-el integral package), F12 methods
   Garnet Chan, S. Sharma, J. Yang, R. Olivares  : DMRG
   Ulf Ekstrom                                   : XCFun DFT Library
   Mihaly Kallay                                 : mrcc  (arbitrary order and MRCC methods)
   Jiri Pittner, Ondrej Demel                    : Mk-CCSD
   Frank Weinhold                                : gennbo (NPA and NBO analysis)
   Christopher J. Cramer and Donald G. Truhlar   : smd solvation model
   Lars Goerigk                                  : TD-DFT with DH, B97 family of functionals
   V. Asgeirsson, H. Jonsson                     : NEB implementation
   FAccTs GmbH                                   : IRC, NEB, NEB-TS, DLPNO-Multilevel, CI-OPT
                                                   MM, QMMM, 2- and 3-layer-ONIOM, Crystal-QMMM,
                                                   LR-CPCM, SF, NACMEs, symmetry and pop. for TD-DFT,
                                                   nearIR, NL-DFT gradient (VV10), updates on ESD,
                                                   ML-optimized integration grids
   S Lehtola, MJT Oliveira, MAL Marques          : LibXC Library
   Liviu Ungur et al                             : ANISO software


 Your calculation uses the libint2 library for the computation of 2-el integrals
 For citations please refer to: http://libint.valeyev.net

 Your ORCA version has been built with support for libXC version: 5.1.0
 For citations please refer to: https://tddft.org/programs/libxc/

 This ORCA versions uses:
   CBLAS   interface :  Fast vector & matrix operations
   LAPACKE interface :  Fast linear algebra routines
   SCALAPACK package :  Parallel linear algebra routines
   Shared memory     :  Shared parallel matrices
   BLAS/LAPACK       :  OpenBLAS 0.3.15  USE64BITINT DYNAMIC_ARCH NO_AFFINITY SkylakeX SINGLE_THREADED
        Core in use  :  SkylakeX
   Copyright (c) 2011-2014, The OpenBLAS Project




***************************************
The coordinates will be read from file: opt_cc-pVDZ.xyz
***************************************


================================================================================

----- Orbital basis set information -----
Your calculation utilizes the basis: cc-pVDZ 
       H, B-Ne : Obtained from the ccRepo (grant-hill.group.shef.ac.uk/ccrepo) Feb. 2017
                 T. H. Dunning, Jr., J. Chem. Phys. 90, 1007 (1989)
            He : Obtained from the ccRepo (grant-hill.group.shef.ac.uk/ccrepo) Feb. 2017
                 D. E. Woon, T. H. Dunning, Jr., J. Chem. Phys. 100, 2975 (1994)
  Li-Be, Na-Mg : Obtained from the ccRepo (grant-hill.group.shef.ac.uk/ccrepo) Feb. 2017
                 B. P. Prascher, D. E. Woon, K. A. Peterson, T. H. Dunning, Jr., A. K. Wilson, Theor. Chem. Acc. 128, 69 (2011)
         Al-Ar : Obtained from the ccRepo (grant-hill.group.shef.ac.uk/ccrepo) Feb. 2017
                 D. E. Woon, T. H. Dunning, Jr., J. Chem. Phys. 98, 1358 (1993)
            Ca : Obtained from the Peterson Research Group Website (tyr0.chem.wsu.edu/~kipeters) Feb. 2017
                 J. Koput, K. A. Peterson, J. Phys. Chem. 106, 9595 (2002)
         Sc-Zn : Obtained from the ccRepo (grant-hill.group.shef.ac.uk/ccrepo) Feb. 2017
                 N. B. Balabanov, K. A. Peterson, J. Chem. Phys. 123, 064107 (2005)
                 N. B. Balabanov, K. A. Peterson, J. Chem. Phys. 125, 074110 (2006)
         Ga-Kr : Obtained from the ccRepo (grant-hill.group.shef.ac.uk/ccrepo) Feb. 2017
                 A. K. Wilson, D. E. Woon, K. A. Peterson, T. H. Dunning, Jr., J. Chem. Phys. 110, 7667 (1999)

----- AuxJ basis set information -----
Your calculation utilizes the AutoAux generation procedure.
  G. L. Stoychev, A. A. Auer, F. Neese, J. Chem. Theory Comput. 13, 554 (2017)

----- AuxC basis set information -----
Your calculation utilizes the AutoAux generation procedure.
  G. L. Stoychev, A. A. Auer, F. Neese, J. Chem. Theory Comput. 13, 554 (2017)

----- AuxJK basis set information -----
Your calculation utilizes the AutoAux generation procedure.
  G. L. Stoychev, A. A. Auer, F. Neese, J. Chem. Theory Comput. 13, 554 (2017)

================================================================================
                                        WARNINGS
                       Please study these warnings very carefully!
================================================================================

WARNING: Old DensityContainer found on disk!
         Will remove this file - 
         If you want to keep old densities, please start your calculation with a different basename. 


WARNING: your system is open-shell and RHF/RKS was chosen
  ===> : WILL SWITCH to UHF/UKS


INFO   : the flag for use of the SHARK integral package has been found!

================================================================================
                                       INPUT FILE
================================================================================
NAME = cc-pVDZ.inp
|  1> ! B3LYP cc-pVDZ AUTOAUX
|  2> %pal nprocs 16 end
|  3> *XYZFile 0 2 opt_cc-pVDZ.xyz
|  4> %EPRNMR
|  5>         GTENSOR   TRUE
|  6>         NUCLEI    = ALL H {SHIFT, AISO, ADIP, AORB}
|  7>         ORI       CenterOfElCharge
|  8> END
|  9> 
| 10>                          ****END OF INPUT****
================================================================================

                       ****************************
                       * Single Point Calculation *
                       ****************************

---------------------------------
CARTESIAN COORDINATES (ANGSTROEM)
---------------------------------
  C     -2.631254    0.130040    0.153618
  C      1.576073   -0.218268   -0.504915
  C      0.963883    1.083255   -0.473502
  C     -0.443221    1.138381   -0.249565
  C     -1.220096   -0.005181   -0.066164
  C     -0.610813   -1.294615   -0.103079
  C      0.774257   -1.347118   -0.322980
  H     -0.932054    2.114791   -0.222291
  H      1.262593   -2.323151   -0.358854
  C      1.682181    2.281840   -0.657448
  H      2.755140    2.296584   -0.842674
  H      1.162652    3.241230   -0.627097
  C      3.066103   -0.388858   -0.697740
  H      3.262481   -1.405155   -1.080710
  H      3.433529    0.305528   -1.473508
  C      3.887275   -0.182432    0.592554
  H      3.688368    0.826444    0.994430
  H      3.528201   -0.891693    1.359533
  C      5.390182   -0.368914    0.373185
  H      5.781250    0.351972   -0.365653
  H      5.618721   -1.381441   -0.002445
  C     -1.463893   -2.531456    0.086049
  H     -2.000569   -2.437299    1.048740
  H     -2.266577   -2.516022   -0.675150
  C     -0.750675   -3.885280    0.036580
  H     -0.231388   -4.001584   -0.932616
  H      0.034651   -3.925419    0.813943
  C     -1.711369   -5.064580    0.233027
  H     -2.235633   -4.949112    1.199775
  H     -2.497582   -5.025078   -0.543585
  C     -1.013273   -6.426080    0.186891
  H     -0.245260   -6.509857    0.975232
  H     -0.509185   -6.585150   -0.782141
  C     -3.826218    0.249365    0.343367
  H     -4.878905    0.360833    0.514750
  H      5.953593   -0.225504    1.309596
  H     -1.728700   -7.252170    0.329745

----------------------------
CARTESIAN COORDINATES (A.U.)
----------------------------
  NO LB      ZA    FRAG     MASS         X           Y           Z
   0 C     6.0000    0    12.011   -4.972349    0.245740    0.290297
   1 C     6.0000    0    12.011    2.978346   -0.412468   -0.954152
   2 C     6.0000    0    12.011    1.821475    2.047055   -0.894790
   3 C     6.0000    0    12.011   -0.837567    2.151228   -0.471610
   4 C     6.0000    0    12.011   -2.305647   -0.009792   -0.125032
   5 C     6.0000    0    12.011   -1.154269   -2.446468   -0.194790
   6 C     6.0000    0    12.011    1.463133   -2.545683   -0.610343
   7 H     1.0000    0     1.008   -1.761327    3.996375   -0.420069
   8 H     1.0000    0     1.008    2.385955   -4.390119   -0.678135
   9 C     6.0000    0    12.011    3.178862    4.312052   -1.242396
  10 H     1.0000    0     1.008    5.206461    4.339915   -1.592423
  11 H     1.0000    0     1.008    2.197095    6.125037   -1.185041
  12 C     6.0000    0    12.011    5.794095   -0.734836   -1.318538
  13 H     1.0000    0     1.008    6.165195   -2.655358   -2.042246
  14 H     1.0000    0     1.008    6.488429    0.577364   -2.784527
  15 C     6.0000    0    12.011    7.345885   -0.344747    1.119765
  16 H     1.0000    0     1.008    6.970005    1.561754    1.879200
  17 H     1.0000    0     1.008    6.667334   -1.685056    2.569145
  18 C     6.0000    0    12.011   10.185967   -0.697147    0.705218
  19 H     1.0000    0     1.008   10.924979    0.665131   -0.690983
  20 H     1.0000    0     1.008   10.617843   -2.610546   -0.004621
  21 C     6.0000    0    12.011   -2.766358   -4.783759    0.162609
  22 H     1.0000    0     1.008   -3.780528   -4.605828    1.981830
  23 H     1.0000    0     1.008   -4.283210   -4.754592   -1.275849
  24 C     6.0000    0    12.011   -1.418571   -7.342116    0.069126
  25 H     1.0000    0     1.008   -0.437260   -7.561898   -1.762390
  26 H     1.0000    0     1.008    0.065481   -7.417968    1.538130
  27 C     6.0000    0    12.011   -3.234018   -9.570668    0.440357
  28 H     1.0000    0     1.008   -4.224734   -9.352466    2.267246
  29 H     1.0000    0     1.008   -4.719746   -9.496021   -1.027227
  30 C     6.0000    0    12.011   -1.914809  -12.143532    0.353174
  31 H     1.0000    0     1.008   -0.463474  -12.301847    1.842921
  32 H     1.0000    0     1.008   -0.962221  -12.444129   -1.478032
  33 C     6.0000    0    12.011   -7.230504    0.471231    0.648870
  34 H     1.0000    0     1.008   -9.219793    0.681875    0.972737
  35 H     1.0000    0     1.008   11.250660   -0.426141    2.474779
  36 H     1.0000    0     1.008   -3.266770  -13.704615    0.623128

--------------------------------
INTERNAL COORDINATES (ANGSTROEM)
--------------------------------
 C      0   0   0     0.000000000000     0.00000000     0.00000000
 C      1   0   0     4.272772336614     0.00000000     0.00000000
 C      2   1   0     1.438654066077    60.25604332     0.00000000
 C      3   2   1     1.425878378370   117.27951722     0.02390969
 C      4   3   2     1.394598314532   122.59361897   359.95667037
 C      5   4   3     1.426614250000   119.98882518   359.80003202
 C      2   1   3     1.396535054421    58.69870704   180.24188227
 H      4   3   2     1.092281167471   118.69341855   180.06230248
 H      7   2   1     1.091970494078   117.48122189   179.78909796
 C      3   2   1     1.409395071093   123.34250098   180.32332607
 H     10   3   2     1.088929333994   122.40433329     0.38537882
 H     10   3   2     1.091449393662   120.08646748   179.75259457
 C      2   1   3     1.512108208033   177.64598023   142.93496675
 H     13   2   7     1.103670774229   108.87275953    23.50318237
 H     13   2   7     1.104078794771   110.27817217   139.44021207
 C     13   2   7     1.543306369349   113.74162351   262.29241332
 H     16  13   2     1.104038184260   109.31088906   302.18812786
 H     16  13   2     1.104645152336   108.76297161    57.48222364
 C     16  13   2     1.530237839788   112.73246672   179.64146821
 H     19  16  13     1.103853921173   111.36539093    60.38023173
 H     19  16  13     1.103874478024   111.33975499   300.62600053
 C      6   5   4     1.514361987837   119.62923307   180.48651281
 H     22   6   5     1.106191303845   108.20815659   303.94975842
 H     22   6   5     1.106329043079   108.14311201    56.27469363
 C     22   6   5     1.531001853852   117.11386952   180.03197795
 H     25  22   6     1.105679435328   109.88458579   301.96664424
 H     25  22   6     1.105731614117   109.89185792    58.46908326
 C     25  22   6     1.533711040838   112.58129253   180.27240656
 H     28  25  22     1.105797600324   109.18754166   302.43015387
 H     28  25  22     1.105811004497   109.14300145    57.70575438
 C     28  25  22     1.530735151764   113.22758524   180.02864871
 H     31  28  25     1.103785934047   111.30317152    59.90721256
 H     31  28  25     1.103825838854   111.27845695   300.20606697
 C      1   2   3     1.215805343135   179.03519270   349.55850636
 H     34   1   5     1.072355445038   179.59821048     3.44660632
 H     19  16  13     1.102208791419   111.36989784   180.51051422
 H     31  28  25     1.102119531966   111.51415799   180.06457024

---------------------------
INTERNAL COORDINATES (A.U.)
---------------------------
 C      0   0   0     0.000000000000     0.00000000     0.00000000
 C      1   0   0     8.074369548795     0.00000000     0.00000000
 C      2   1   0     2.718662186337    60.25604332     0.00000000
 C      3   2   1     2.694519635400   117.27951722     0.02390969
 C      4   3   2     2.635408881294   122.59361897   359.95667037
 C      5   4   3     2.695910231249   119.98882518   359.80003202
 C      2   1   3     2.639068789276    58.69870704   180.24188227
 H      4   3   2     2.064112267759   118.69341855   180.06230248
 H      7   2   1     2.063525180131   117.48122189   179.78909796
 C      3   2   1     2.663370698865   123.34250098   180.32332607
 H     10   3   2     2.057778220442   122.40433329     0.38537882
 H     10   3   2     2.062540443056   120.08646748   179.75259457
 C      2   1   3     2.857470398038   177.64598023   142.93496675
 H     13   2   7     2.085635505307   108.87275953    23.50318237
 H     13   2   7     2.086406552387   110.27817217   139.44021207
 C     13   2   7     2.916426378805   113.74162351   262.29241332
 H     16  13   2     2.086329809644   109.31088906   302.18812786
 H     16  13   2     2.087476813079   108.76297161    57.48222364
 C     16  13   2     2.891730436962   112.73246672   179.64146821
 H     19  16  13     2.085981602872   111.36539093    60.38023173
 H     19  16  13     2.086020449691   111.33975499   300.62600053
 C      6   5   4     2.861729424633   119.62923307   180.48651281
 H     22   6   5     2.090398615993   108.20815659   303.94975842
 H     22   6   5     2.090658905423   108.14311201    56.27469363
 C     22   6   5     2.893174214306   117.11386952   180.03197795
 H     25  22   6     2.089431324679   109.88458579   301.96664424
 H     25  22   6     2.089529928299   109.89185792    58.46908326
 C     25  22   6     2.898293835755   112.58129253   180.27240656
 H     28  25  22     2.089654624160   109.18754166   302.43015387
 H     28  25  22     2.089679954375   109.14300145    57.70575438
 C     28  25  22     2.892670220401   113.22758524   180.02864871
 H     31  28  25     2.085853125824   111.30317152    59.90721256
 H     31  28  25     2.085928534980   111.27845695   300.20606697
 C      1   2   3     2.297539130684   179.03519270   349.55850636
 H     34   1   5     2.026458109341   179.59821048     3.44660632
 H     19  16  13     2.082872758182   111.36989784   180.51051422
 H     31  28  25     2.082704082262   111.51415799   180.06457024

---------------------
BASIS SET INFORMATION
---------------------
There are 2 groups of distinct atoms

 Group   1 Type C   : 17s4p1d contracted to 3s2p1d pattern {881/31/1}
 Group   2 Type H   : 4s1p contracted to 2s1p pattern {31/1}

Atom   0C    basis set group =>   1
Atom   1C    basis set group =>   1
Atom   2C    basis set group =>   1
Atom   3C    basis set group =>   1
Atom   4C    basis set group =>   1
Atom   5C    basis set group =>   1
Atom   6C    basis set group =>   1
Atom   7H    basis set group =>   2
Atom   8H    basis set group =>   2
Atom   9C    basis set group =>   1
Atom  10H    basis set group =>   2
Atom  11H    basis set group =>   2
Atom  12C    basis set group =>   1
Atom  13H    basis set group =>   2
Atom  14H    basis set group =>   2
Atom  15C    basis set group =>   1
Atom  16H    basis set group =>   2
Atom  17H    basis set group =>   2
Atom  18C    basis set group =>   1
Atom  19H    basis set group =>   2
Atom  20H    basis set group =>   2
Atom  21C    basis set group =>   1
Atom  22H    basis set group =>   2
Atom  23H    basis set group =>   2
Atom  24C    basis set group =>   1
Atom  25H    basis set group =>   2
Atom  26H    basis set group =>   2
Atom  27C    basis set group =>   1
Atom  28H    basis set group =>   2
Atom  29H    basis set group =>   2
Atom  30C    basis set group =>   1
Atom  31H    basis set group =>   2
Atom  32H    basis set group =>   2
Atom  33C    basis set group =>   1
Atom  34H    basis set group =>   2
Atom  35H    basis set group =>   2
Atom  36H    basis set group =>   2
---------------------------------
AUXILIARY/J BASIS SET INFORMATION
---------------------------------
There are 2 groups of distinct atoms

 Group   1 Type C   : 14s11p10d2f contracted to 14s11p10d2f pattern {11111111111111/11111111111/1111111111/11}
 Group   2 Type H   : 9s2p1d contracted to 9s2p1d pattern {111111111/11/1}

Atom   0C    basis set group =>   1
Atom   1C    basis set group =>   1
Atom   2C    basis set group =>   1
Atom   3C    basis set group =>   1
Atom   4C    basis set group =>   1
Atom   5C    basis set group =>   1
Atom   6C    basis set group =>   1
Atom   7H    basis set group =>   2
Atom   8H    basis set group =>   2
Atom   9C    basis set group =>   1
Atom  10H    basis set group =>   2
Atom  11H    basis set group =>   2
Atom  12C    basis set group =>   1
Atom  13H    basis set group =>   2
Atom  14H    basis set group =>   2
Atom  15C    basis set group =>   1
Atom  16H    basis set group =>   2
Atom  17H    basis set group =>   2
Atom  18C    basis set group =>   1
Atom  19H    basis set group =>   2
Atom  20H    basis set group =>   2
Atom  21C    basis set group =>   1
Atom  22H    basis set group =>   2
Atom  23H    basis set group =>   2
Atom  24C    basis set group =>   1
Atom  25H    basis set group =>   2
Atom  26H    basis set group =>   2
Atom  27C    basis set group =>   1
Atom  28H    basis set group =>   2
Atom  29H    basis set group =>   2
Atom  30C    basis set group =>   1
Atom  31H    basis set group =>   2
Atom  32H    basis set group =>   2
Atom  33C    basis set group =>   1
Atom  34H    basis set group =>   2
Atom  35H    basis set group =>   2
Atom  36H    basis set group =>   2
---------------------------------
AUXILIARY/C BASIS SET INFORMATION
---------------------------------
There are 2 groups of distinct atoms

 Group   1 Type C   : 14s11p10d2f contracted to 14s11p10d2f pattern {11111111111111/11111111111/1111111111/11}
 Group   2 Type H   : 9s2p1d contracted to 9s2p1d pattern {111111111/11/1}

Atom   0C    basis set group =>   1
Atom   1C    basis set group =>   1
Atom   2C    basis set group =>   1
Atom   3C    basis set group =>   1
Atom   4C    basis set group =>   1
Atom   5C    basis set group =>   1
Atom   6C    basis set group =>   1
Atom   7H    basis set group =>   2
Atom   8H    basis set group =>   2
Atom   9C    basis set group =>   1
Atom  10H    basis set group =>   2
Atom  11H    basis set group =>   2
Atom  12C    basis set group =>   1
Atom  13H    basis set group =>   2
Atom  14H    basis set group =>   2
Atom  15C    basis set group =>   1
Atom  16H    basis set group =>   2
Atom  17H    basis set group =>   2
Atom  18C    basis set group =>   1
Atom  19H    basis set group =>   2
Atom  20H    basis set group =>   2
Atom  21C    basis set group =>   1
Atom  22H    basis set group =>   2
Atom  23H    basis set group =>   2
Atom  24C    basis set group =>   1
Atom  25H    basis set group =>   2
Atom  26H    basis set group =>   2
Atom  27C    basis set group =>   1
Atom  28H    basis set group =>   2
Atom  29H    basis set group =>   2
Atom  30C    basis set group =>   1
Atom  31H    basis set group =>   2
Atom  32H    basis set group =>   2
Atom  33C    basis set group =>   1
Atom  34H    basis set group =>   2
Atom  35H    basis set group =>   2
Atom  36H    basis set group =>   2
----------------------------------
AUXILIARY/JK BASIS SET INFORMATION
----------------------------------
There are 2 groups of distinct atoms

 Group   1 Type C   : 14s11p10d2f contracted to 14s11p10d2f pattern {11111111111111/11111111111/1111111111/11}
 Group   2 Type H   : 9s2p1d contracted to 9s2p1d pattern {111111111/11/1}

Atom   0C    basis set group =>   1
Atom   1C    basis set group =>   1
Atom   2C    basis set group =>   1
Atom   3C    basis set group =>   1
Atom   4C    basis set group =>   1
Atom   5C    basis set group =>   1
Atom   6C    basis set group =>   1
Atom   7H    basis set group =>   2
Atom   8H    basis set group =>   2
Atom   9C    basis set group =>   1
Atom  10H    basis set group =>   2
Atom  11H    basis set group =>   2
Atom  12C    basis set group =>   1
Atom  13H    basis set group =>   2
Atom  14H    basis set group =>   2
Atom  15C    basis set group =>   1
Atom  16H    basis set group =>   2
Atom  17H    basis set group =>   2
Atom  18C    basis set group =>   1
Atom  19H    basis set group =>   2
Atom  20H    basis set group =>   2
Atom  21C    basis set group =>   1
Atom  22H    basis set group =>   2
Atom  23H    basis set group =>   2
Atom  24C    basis set group =>   1
Atom  25H    basis set group =>   2
Atom  26H    basis set group =>   2
Atom  27C    basis set group =>   1
Atom  28H    basis set group =>   2
Atom  29H    basis set group =>   2
Atom  30C    basis set group =>   1
Atom  31H    basis set group =>   2
Atom  32H    basis set group =>   2
Atom  33C    basis set group =>   1
Atom  34H    basis set group =>   2
Atom  35H    basis set group =>   2
Atom  36H    basis set group =>   2

Checking for AutoStart:
The File: cc-pVDZ.gbw exists
Trying to determine its content:
     ... Fine, the file contains calculation information
     ... Fine, the calculation information was read
     ... Fine, the file contains a basis set
     ... Fine, the basis set was read
     ... Fine, the file contains a geometry
     ... Fine, the geometry was read
     ... Fine, the file contains a set of orbitals
     ... Fine, the orbitals can be read
     => possible old guess file was deleted
     => GBW file was renamed to GES file
     => GES file is set as startup file
     => Guess is set to MORead
     ... now leaving AutoStart



           ************************************************************
           *        Program running with 16 parallel MPI-processes    *
           *              working on a common directory               *
           ************************************************************
------------------------------------------------------------------------------
                           ORCA GTO INTEGRAL CALCULATION
                           -- RI-GTO INTEGRALS CHOSEN --
------------------------------------------------------------------------------
------------------------------------------------------------------------------
                   ___                                                        
                  /   \      - P O W E R E D   B Y -                         
                 /     \                                                     
                 |  |  |   _    _      __       _____    __    __             
                 |  |  |  | |  | |    /  \     |  _  \  |  |  /  |          
                  \  \/   | |  | |   /    \    | | | |  |  | /  /          
                 / \  \   | |__| |  /  /\  \   | |_| |  |  |/  /          
                |  |  |   |  __  | /  /__\  \  |    /   |      \           
                |  |  |   | |  | | |   __   |  |    \   |  |\   \          
                \     /   | |  | | |  |  |  |  | |\  \  |  | \   \       
                 \___/    |_|  |_| |__|  |__|  |_| \__\ |__|  \__/        
                                                                              
                      - O R C A' S   B I G   F R I E N D -                    
                                      &                                       
                       - I N T E G R A L  F E E D E R -                       
                                                                              
 v1 FN, 2020, v2 2021                                                         
------------------------------------------------------------------------------


Reading SHARK input file cc-pVDZ.SHARKINP.tmp ... ok
----------------------
SHARK INTEGRAL PACKAGE
----------------------

Number of atoms                             ...     37
Number of basis functions                   ...    425
Number of shells                            ...    255
Maximum angular momentum                    ...      2
Integral batch strategy                     ... SHARK/LIBINT Hybrid
RI-J (if used) integral strategy            ... SPLIT-RIJ (Revised 2003 algorithm where possible)
Printlevel                                  ...      1
Contraction scheme used                     ... PARTIAL GENERAL contraction
Coulomb Range Separation                    ... NOT USED
Exchange Range Separation                   ... NOT USED
Finite Nucleus Model                        ... NOT USED
Auxiliary Coulomb fitting basis             ... AVAILABLE
   # of basis functions in Aux-J            ...   2196
   # of shells in Aux-J                     ...    844
   Maximum angular momentum in Aux-J        ...      3
Auxiliary J/K fitting basis                 ... AVAILABLE
   # of basis functions in Aux-JK           ...   2196
   # of shells in Aux-JK                    ...    844
   Maximum angular momentum in Aux-JK       ...      3
Auxiliary Correlation fitting basis         ... AVAILABLE
   # of basis functions in Aux-C            ...   2196
   # of shells in Aux-C                     ...    844
   Maximum angular momentum in Aux-C        ...      3
Auxiliary 'external' fitting basis          ... NOT available
Integral threshold                          ...     1.000000e-10
Primitive cut-off                           ...     1.000000e-11
Primitive pair pre-selection threshold      ...     1.000000e-11

Calculating pre-screening integrals         ... done (  0.0 sec) Dimension = 255
Calculating pre-screening integrals (ORCA)  ... done (  0.1 sec) Dimension = 159
Organizing shell pair data                  ... done (  0.1 sec)
Shell pair information
Total number of shell pairs                 ...     32640
Shell pairs after pre-screening             ...     17485
Total number of primitive shell pairs       ...     54396
Primitive shell pairs kept                  ...     24322
          la=0 lb=0:   7830 shell pairs
          la=1 lb=0:   6081 shell pairs
          la=1 lb=1:   1063 shell pairs
          la=2 lb=0:   1790 shell pairs
          la=2 lb=1:    619 shell pairs
          la=2 lb=2:    102 shell pairs

Calculating one electron integrals          ... done (  0.0 sec)
Calculating RI/J V-Matrix + Cholesky decomp.... done (  0.3 sec)
Calculating RI/JK V-Matrix + Cholesky decomp... done (  0.3 sec)
Calculating RI/C V-Matrix + Cholesky decomp.... done (  0.3 sec)
Calculating Nuclear repulsion               ... done (  0.0 sec) ENN=   1004.383379037217 Eh

SHARK setup successfully completed in   1.4 seconds

Maximum memory used throughout the entire GTOINT-calculation: 26.9 MB


           ************************************************************
           *        Program running with 16 parallel MPI-processes    *
           *              working on a common directory               *
           ************************************************************
-------------------------------------------------------------------------------
                                 ORCA SCF
-------------------------------------------------------------------------------

------------
SCF SETTINGS
------------
Hamiltonian:
 Density Functional     Method          .... DFT(GTOs)
 Exchange Functional    Exchange        .... B88
   X-Alpha parameter    XAlpha          ....  0.666667
   Becke's b parameter  XBeta           ....  0.004200
 Correlation Functional Correlation     .... LYP
 LDA part of GGA corr.  LDAOpt          .... VWN-5
 Gradients option       PostSCFGGA      .... off
 Hybrid DFT is turned on
   Fraction HF Exchange ScalHFX         ....  0.200000
   Scaling of DF-GGA-X  ScalDFX         ....  0.720000
   Scaling of DF-GGA-C  ScalDFC         ....  0.810000
   Scaling of DF-LDA-C  ScalLDAC        ....  1.000000
   Perturbative correction              ....  0.000000
   Density functional embedding theory  .... OFF
   NL short-range parameter             ....  4.800000
 RI-approximation to the Coulomb term is turned on
   Number of AuxJ basis functions       .... 2196
   RIJ-COSX (HFX calculated with COS-X)).... on


General Settings:
 Integral files         IntName         .... cc-pVDZ
 Hartree-Fock type      HFTyp           .... UHF
 Total Charge           Charge          ....    0
 Multiplicity           Mult            ....    2
 Number of Electrons    NEL             ....  117
 Basis Dimension        Dim             ....  329
 Nuclear Repulsion      ENuc            ....   1004.3833790372 Eh

Convergence Acceleration:
 DIIS                   CNVDIIS         .... on
   Start iteration      DIISMaxIt       ....    12
   Startup error        DIISStart       ....  0.200000
   # of expansion vecs  DIISMaxEq       ....     5
   Bias factor          DIISBfac        ....   1.050
   Max. coefficient     DIISMaxC        ....  10.000
 Trust-Rad. Augm. Hess. CNVTRAH         .... auto
   Auto Start mean grad. ratio tolernc. ....  1.125000
   Auto Start start iteration           ....     1
   Auto Start num. interpolation iter.  ....    10
   Max. Number of Micro iterations      ....    16
   Max. Number of Macro iterations      .... Maxiter - #DIIS iter
   Number of Davidson start vectors     ....     2
   Converg. threshold I  (grad. norm)   ....   5.000e-05
   Converg. threshold II (energy diff.) ....   1.000e-06
   Grad. Scal. Fac. for Micro threshold ....   0.100
   Minimum threshold for Micro iter.    ....   0.010
   NR start threshold (gradient norm)   ....   0.001
   Initial trust radius                 ....   0.400
   Minimum AH scaling param. (alpha)    ....   1.000
   Maximum AH scaling param. (alpha)    .... 1000.000
   Orbital update algorithm             .... Taylor
   White noise on init. David. guess    .... on
   Maximum white noise                  ....   0.010
   Quad. conv. algorithm                .... NR
 SOSCF                  CNVSOSCF        .... off
 Level Shifting         CNVShift        .... on
   Level shift para.    LevelShift      ....    0.2500
   Turn off err/grad.   ShiftErr        ....    0.0010
 Zerner damping         CNVZerner       .... off
 Static damping         CNVDamp         .... on
   Fraction old density DampFac         ....    0.7000
   Max. Damping (<1)    DampMax         ....    0.9800
   Min. Damping (>=0)   DampMin         ....    0.0000
   Turn off err/grad.   DampErr         ....    0.1000
 Fernandez-Rico         CNVRico         .... off

SCF Procedure:
 Maximum # iterations   MaxIter         ....   125
 SCF integral mode      SCFMode         .... Direct
   Integral package                     .... SHARK and LIBINT hybrid scheme
 Reset frequency        DirectResetFreq ....    20
 Integral Threshold     Thresh          ....  1.000e-10 Eh
 Primitive CutOff       TCut            ....  1.000e-11 Eh

Convergence Tolerance:
 Convergence Check Mode ConvCheckMode   .... Total+1el-Energy
 Convergence forced     ConvForced      .... 0
 Energy Change          TolE            ....  1.000e-06 Eh
 1-El. energy change                    ....  1.000e-03 Eh
 DIIS Error             TolErr          ....  1.000e-06


Diagonalization of the overlap matrix:
Smallest eigenvalue                        ... 1.519e-04
Time for diagonalization                   ...    0.022 sec
Threshold for overlap eigenvalues          ... 1.000e-08
Number of eigenvalues below threshold      ... 0
Time for construction of square roots      ...    0.029 sec
Total time needed                          ...    0.052 sec

---------------------
INITIAL GUESS: MOREAD
---------------------
Guess MOs are being read from file: cc-pVDZ.ges
Input geometry compatible with but different from current geometry
Input basis set matches current basis set (good)
MOs were renormalized
MOs were reorthogonalized (Cholesky)
                      ------------------
                      INITIAL GUESS DONE (   0.1 sec)
                      ------------------
-------------------
DFT GRID GENERATION
-------------------

General Integration Accuracy     IntAcc      ... 4.388
Radial Grid Type                 RadialGrid  ... OptM3 with GC (2021)
Angular Grid (max. ang.)         AngularGrid ... 4 (Lebedev-302)
Angular grid pruning method      GridPruning ... 4 (adaptive)
Weight generation scheme         WeightScheme... Becke
Basis function cutoff            BFCut       ... 1.0000e-10
Integration weight cutoff        WCut        ... 1.0000e-14
Angular grids for H and He will be reduced by one unit
Partially contracted basis set               ... off
Rotationally invariant grid construction     ... off

Total number of grid points                  ...   162625
Total number of batches                      ...     2560
Average number of points per batch           ...       63
Average number of grid points per atom       ...     4395
Time for grid setup =    0.843 sec

--------------------
COSX GRID GENERATION
--------------------

GRIDX 1
-------
General Integration Accuracy     IntAcc      ... 3.816
Radial Grid Type                 RadialGrid  ... OptM3 with GC (2021)
Angular Grid (max. ang.)         AngularGrid ... 1 (Lebedev-50)
Angular grid pruning method      GridPruning ... 4 (adaptive)
Weight generation scheme         WeightScheme... Becke
Basis function cutoff            BFCut       ... 1.0000e-10
Integration weight cutoff        WCut        ... 1.0000e-14
Angular grids for H and He will be reduced by one unit
Partially contracted basis set               ... on
Rotationally invariant grid construction     ... off

Total number of grid points                  ...    20774
Total number of batches                      ...      346
Average number of points per batch           ...       60
Average number of grid points per atom       ...      561
UseSFitting                                  ... on

GRIDX 2
-------
General Integration Accuracy     IntAcc      ... 4.020
Radial Grid Type                 RadialGrid  ... OptM3 with GC (2021)
Angular Grid (max. ang.)         AngularGrid ... 2 (Lebedev-110)
Angular grid pruning method      GridPruning ... 4 (adaptive)
Weight generation scheme         WeightScheme... Becke
Basis function cutoff            BFCut       ... 1.0000e-10
Integration weight cutoff        WCut        ... 1.0000e-14
Angular grids for H and He will be reduced by one unit
Partially contracted basis set               ... on
Rotationally invariant grid construction     ... off

Total number of grid points                  ...    43755
Total number of batches                      ...      701
Average number of points per batch           ...       62
Average number of grid points per atom       ...     1183
UseSFitting                                  ... on

GRIDX 3
-------
General Integration Accuracy     IntAcc      ... 4.338
Radial Grid Type                 RadialGrid  ... OptM3 with GC (2021)
Angular Grid (max. ang.)         AngularGrid ... 3 (Lebedev-194)
Angular grid pruning method      GridPruning ... 4 (adaptive)
Weight generation scheme         WeightScheme... Becke
Basis function cutoff            BFCut       ... 1.0000e-10
Integration weight cutoff        WCut        ... 1.0000e-14
Angular grids for H and He will be reduced by one unit
Partially contracted basis set               ... on
Rotationally invariant grid construction     ... off

Total number of grid points                  ...    95338
Total number of batches                      ...     1508
Average number of points per batch           ...       63
Average number of grid points per atom       ...     2577
UseSFitting                                  ... on

Time for X-Grid setup             =    1.657 sec

 re-compute Schwartz prescreening matrix in partically contracted basis (1) ...done (   0.104 sec)
--------------
SCF ITERATIONS
--------------
ITER       Energy         Delta-E        Max-DP      RMS-DP      [F,P]     Damp
               ***  Starting incremental Fock matrix formation  ***
  0   -621.8575469508   0.000000000000 0.00009384  0.00000196  0.0004489 0.7000
  1   -621.8575491841  -0.000002233351 0.00008456  0.00000176  0.0003542 0.7000
                               ***Turning on DIIS***
  2   -621.8575509575  -0.000001773326 0.00022213  0.00000484  0.0002654 0.0000
               *** Restarting incremental Fock matrix formation ***
                                   *** Resetting DIIS ***
  3   -621.8575556294  -0.000004671957 0.00003791  0.00000063  0.0000336 0.0000
                 **** Energy Check signals convergence ****

               *****************************************************
               *                     SUCCESS                       *
               *           SCF CONVERGED AFTER   4 CYCLES          *
               *****************************************************

Old exchange energy                            =    -18.068804462 Eh
New exchange energy                            =    -18.068790896 Eh
Exchange energy change after final integration =      0.000013565 Eh
Total energy after final integration           =   -621.857542086 Eh
Final COS-X integration done in                =     4.044 sec

----------------
TOTAL SCF ENERGY
----------------

Total Energy       :         -621.85754209 Eh          -16921.60400 eV

Components:
Nuclear Repulsion  :         1004.38337904 Eh           27330.66121 eV
Electronic Energy  :        -1626.24092112 Eh          -44252.26521 eV
One Electron Energy:        -2830.88202621 Eh          -77032.21618 eV
Two Electron Energy:         1204.64110509 Eh           32779.95097 eV
Max COSX asymmetry :            0.00000054 Eh               0.00001 eV

Virial components:
Potential Energy   :        -1239.23276057 Eh          -33721.23777 eV
Kinetic Energy     :          617.37521849 Eh           16799.63377 eV
Virial Ratio       :            2.00726029


DFT components:
N(Alpha)           :       59.000017804096 electrons
N(Beta)            :       58.000012452936 electrons
N(Total)           :      117.000030257032 electrons
E(X)               :      -71.620543894472 Eh       
E(C)               :       -4.508337083902 Eh       
E(XC)              :      -76.128880978373 Eh       
DFET-embed. en.    :        0.000000000000 Eh       

---------------
SCF CONVERGENCE
---------------

  Last Energy change         ...   -2.1637e-08  Tolerance :   1.0000e-06
  Last MAX-Density change    ...    0.0000e+00  Tolerance :   1.0000e-05
  Last RMS-Density change    ...    0.0000e+00  Tolerance :   1.0000e-06
  Last DIIS Error            ...    8.0129e-06  Tolerance :   1.0000e-06

             **** THE GBW FILE WAS UPDATED (cc-pVDZ.gbw) ****
             **** DENSITY cc-pVDZ.scfp WAS UPDATED ****
             **** ENERGY FILE WAS UPDATED (cc-pVDZ.en.tmp) ****
----------------------
UHF SPIN CONTAMINATION
----------------------

Warning: in a DFT calculation there is little theoretical justification to 
         calculate <S**2> as in Hartree-Fock theory. We will do it anyways
         but you should keep in mind that the values have only limited relevance

Expectation value of <S**2>     :     0.785753
Ideal value S*(S+1) for S=0.5   :     0.750000
Deviation                       :     0.035753

             **** THE GBW FILE WAS UPDATED (cc-pVDZ.gbw) ****
             **** DENSITY cc-pVDZ.scfp WAS UPDATED ****
----------------
ORBITAL ENERGIES
----------------
                 SPIN UP ORBITALS
  NO   OCC          E(Eh)            E(eV) 
   0   1.0000     -10.206367      -277.7294 
   1   1.0000     -10.201079      -277.5855 
   2   1.0000     -10.197168      -277.4790 
   3   1.0000     -10.195333      -277.4291 
   4   1.0000     -10.192900      -277.3629 
   5   1.0000     -10.189980      -277.2835 
   6   1.0000     -10.188516      -277.2436 
   7   1.0000     -10.186248      -277.1819 
   8   1.0000     -10.185478      -277.1610 
   9   1.0000     -10.184203      -277.1263 
  10   1.0000     -10.182723      -277.0860 
  11   1.0000     -10.182417      -277.0776 
  12   1.0000     -10.181724      -277.0588 
  13   1.0000     -10.181537      -277.0537 
  14   1.0000     -10.177814      -276.9524 
  15   1.0000     -10.175931      -276.9012 
  16   1.0000      -0.869099       -23.6494 
  17   1.0000      -0.814422       -22.1615 
  18   1.0000      -0.797039       -21.6885 
  19   1.0000      -0.776527       -21.1304 
  20   1.0000      -0.764105       -20.7924 
  21   1.0000      -0.731960       -19.9176 
  22   1.0000      -0.723698       -19.6928 
  23   1.0000      -0.684533       -18.6271 
  24   1.0000      -0.669484       -18.2176 
  25   1.0000      -0.624250       -16.9867 
  26   1.0000      -0.611210       -16.6319 
  27   1.0000      -0.591183       -16.0869 
  28   1.0000      -0.576231       -15.6800 
  29   1.0000      -0.564735       -15.3672 
  30   1.0000      -0.524706       -14.2780 
  31   1.0000      -0.492858       -13.4113 
  32   1.0000      -0.489567       -13.3218 
  33   1.0000      -0.470231       -12.7956 
  34   1.0000      -0.457464       -12.4482 
  35   1.0000      -0.447707       -12.1827 
  36   1.0000      -0.427980       -11.6459 
  37   1.0000      -0.421692       -11.4748 
  38   1.0000      -0.421067       -11.4578 
  39   1.0000      -0.418227       -11.3805 
  40   1.0000      -0.411339       -11.1931 
  41   1.0000      -0.399752       -10.8778 
  42   1.0000      -0.387024       -10.5315 
  43   1.0000      -0.379783       -10.3344 
  44   1.0000      -0.374492       -10.1905 
  45   1.0000      -0.367073        -9.9886 
  46   1.0000      -0.351876        -9.5750 
  47   1.0000      -0.350827        -9.5465 
  48   1.0000      -0.339302        -9.2329 
  49   1.0000      -0.335093        -9.1183 
  50   1.0000      -0.328359        -8.9351 
  51   1.0000      -0.323379        -8.7996 
  52   1.0000      -0.322495        -8.7755 
  53   1.0000      -0.321105        -8.7377 
  54   1.0000      -0.305901        -8.3240 
  55   1.0000      -0.275859        -7.5065 
  56   1.0000      -0.272006        -7.4017 
  57   1.0000      -0.233064        -6.3420 
  58   1.0000      -0.177585        -4.8323 
  59   0.0000      -0.030414        -0.8276 
  60   0.0000       0.011714         0.3187 
  61   0.0000       0.047295         1.2870 
  62   0.0000       0.058686         1.5969 
  63   0.0000       0.063085         1.7166 
  64   0.0000       0.078518         2.1366 
  65   0.0000       0.085820         2.3353 
  66   0.0000       0.087892         2.3917 
  67   0.0000       0.088913         2.4195 
  68   0.0000       0.094360         2.5677 
  69   0.0000       0.099268         2.7012 
  70   0.0000       0.102192         2.7808 
  71   0.0000       0.108332         2.9479 
  72   0.0000       0.117000         3.1837 
  73   0.0000       0.133060         3.6208 
  74   0.0000       0.141268         3.8441 
  75   0.0000       0.144669         3.9366 
  76   0.0000       0.147936         4.0255 
  77   0.0000       0.150028         4.0825 
  78   0.0000       0.152732         4.1561 
  79   0.0000       0.161226         4.3872 
  80   0.0000       0.164342         4.4720 
  81   0.0000       0.166142         4.5209 
  82   0.0000       0.175243         4.7686 
  83   0.0000       0.185956         5.0601 
  84   0.0000       0.190359         5.1799 
  85   0.0000       0.211410         5.7528 
  86   0.0000       0.214788         5.8447 
  87   0.0000       0.230231         6.2649 
  88   0.0000       0.238565         6.4917 
  89   0.0000       0.247573         6.7368 
  90   0.0000       0.250411         6.8140 
  91   0.0000       0.260922         7.1000 
  92   0.0000       0.268466         7.3053 
  93   0.0000       0.297666         8.0999 
  94   0.0000       0.330801         9.0016 
  95   0.0000       0.331754         9.0275 
  96   0.0000       0.348667         9.4877 
  97   0.0000       0.358532         9.7561 
  98   0.0000       0.368806        10.0357 
  99   0.0000       0.406299        11.0560 
 100   0.0000       0.409413        11.1407 
 101   0.0000       0.412341        11.2204 
 102   0.0000       0.415910        11.3175 
 103   0.0000       0.419500        11.4152 
 104   0.0000       0.427612        11.6359 
 105   0.0000       0.437786        11.9128 
 106   0.0000       0.452719        12.3191 
 107   0.0000       0.458802        12.4846 
 108   0.0000       0.465638        12.6707 
 109   0.0000       0.473387        12.8815 
 110   0.0000       0.476768        12.9735 
 111   0.0000       0.484503        13.1840 
 112   0.0000       0.491198        13.3662 
 113   0.0000       0.501624        13.6499 
 114   0.0000       0.505572        13.7573 
 115   0.0000       0.514067        13.9885 
 116   0.0000       0.517340        14.0775 
 117   0.0000       0.534122        14.5342 
 118   0.0000       0.536673        14.6036 
 119   0.0000       0.545077        14.8323 
 120   0.0000       0.552599        15.0370 
 121   0.0000       0.564991        15.3742 
 122   0.0000       0.569607        15.4998 
 123   0.0000       0.580431        15.7943 
 124   0.0000       0.599543        16.3144 
 125   0.0000       0.607213        16.5231 
 126   0.0000       0.612613        16.6700 
 127   0.0000       0.615832        16.7576 
 128   0.0000       0.616795        16.7838 
 129   0.0000       0.627170        17.0662 
 130   0.0000       0.635007        17.2794 
 131   0.0000       0.637889        17.3578 
 132   0.0000       0.641788        17.4639 
 133   0.0000       0.643783        17.5182 
 134   0.0000       0.645342        17.5606 
 135   0.0000       0.651015        17.7150 
 136   0.0000       0.657374        17.8881 
 137   0.0000       0.658115        17.9082 
 138   0.0000       0.661946        18.0125 
 139   0.0000       0.664029        18.0691 
 140   0.0000       0.671914        18.2837 
 141   0.0000       0.679892        18.5008 
 142   0.0000       0.682084        18.5604 
 143   0.0000       0.686303        18.6753 
 144   0.0000       0.695103        18.9147 
 145   0.0000       0.699623        19.0377 
 146   0.0000       0.703648        19.1472 
 147   0.0000       0.708461        19.2782 
 148   0.0000       0.711912        19.3721 
 149   0.0000       0.714914        19.4538 
 150   0.0000       0.729437        19.8490 
 151   0.0000       0.733277        19.9535 
 152   0.0000       0.743216        20.2239 
 153   0.0000       0.748490        20.3675 
 154   0.0000       0.760627        20.6977 
 155   0.0000       0.772938        21.0327 
 156   0.0000       0.796677        21.6787 
 157   0.0000       0.799525        21.7562 
 158   0.0000       0.818117        22.2621 
 159   0.0000       0.833289        22.6749 
 160   0.0000       0.836471        22.7615 
 161   0.0000       0.837890        22.8002 
 162   0.0000       0.844919        22.9914 
 163   0.0000       0.872764        23.7491 
 164   0.0000       0.891881        24.2693 
 165   0.0000       0.903146        24.5758 
 166   0.0000       0.913372        24.8541 
 167   0.0000       0.935461        25.4552 
 168   0.0000       0.956596        26.0303 
 169   0.0000       0.963291        26.2125 
 170   0.0000       0.980083        26.6694 
 171   0.0000       0.987397        26.8684 
 172   0.0000       1.002424        27.2773 
 173   0.0000       1.012903        27.5625 
 174   0.0000       1.022511        27.8239 
 175   0.0000       1.034509        28.1504 
 176   0.0000       1.045479        28.4489 
 177   0.0000       1.064174        28.9577 
 178   0.0000       1.069965        29.1152 
 179   0.0000       1.081008        29.4157 
 180   0.0000       1.083536        29.4845 
 181   0.0000       1.106327        30.1047 
 182   0.0000       1.124124        30.5890 
 183   0.0000       1.147550        31.2264 
 184   0.0000       1.160788        31.5867 
 185   0.0000       1.180688        32.1282 
 186   0.0000       1.188707        32.3464 
 187   0.0000       1.193477        32.4762 
 188   0.0000       1.204772        32.7835 
 189   0.0000       1.215513        33.0758 
 190   0.0000       1.220185        33.2029 
 191   0.0000       1.223626        33.2965 
 192   0.0000       1.247048        33.9339 
 193   0.0000       1.252175        34.0734 
 194   0.0000       1.291877        35.1538 
 195   0.0000       1.301877        35.4259 
 196   0.0000       1.323100        36.0034 
 197   0.0000       1.332284        36.2533 
 198   0.0000       1.338742        36.4290 
 199   0.0000       1.344531        36.5866 
 200   0.0000       1.371382        37.3172 
 201   0.0000       1.392377        37.8885 
 202   0.0000       1.396336        37.9962 
 203   0.0000       1.412276        38.4300 
 204   0.0000       1.416311        38.5398 
 205   0.0000       1.425219        38.7822 
 206   0.0000       1.426151        38.8075 
 207   0.0000       1.431847        38.9625 
 208   0.0000       1.438353        39.1396 
 209   0.0000       1.448017        39.4025 
 210   0.0000       1.460143        39.7325 
 211   0.0000       1.463105        39.8131 
 212   0.0000       1.470855        40.0240 
 213   0.0000       1.488063        40.4923 
 214   0.0000       1.498223        40.7687 
 215   0.0000       1.521579        41.4043 
 216   0.0000       1.534600        41.7586 
 217   0.0000       1.542597        41.9762 
 218   0.0000       1.552049        42.2334 
 219   0.0000       1.563258        42.5384 
 220   0.0000       1.578473        42.9524 
 221   0.0000       1.600643        43.5557 
 222   0.0000       1.601375        43.5756 
 223   0.0000       1.606397        43.7123 
 224   0.0000       1.610902        43.8349 
 225   0.0000       1.622465        44.1495 
 226   0.0000       1.624936        44.2168 
 227   0.0000       1.630216        44.3604 
 228   0.0000       1.631707        44.4010 
 229   0.0000       1.635836        44.5134 
 230   0.0000       1.636671        44.5361 
 231   0.0000       1.645524        44.7770 
 232   0.0000       1.653873        45.0042 
 233   0.0000       1.657821        45.1116 
 234   0.0000       1.667034        45.3623 
 235   0.0000       1.674082        45.5541 
 236   0.0000       1.682293        45.7775 
 237   0.0000       1.687672        45.9239 
 238   0.0000       1.691149        46.0185 
 239   0.0000       1.696176        46.1553 
 240   0.0000       1.703319        46.3497 
 241   0.0000       1.705171        46.4001 
 242   0.0000       1.709016        46.5047 
 243   0.0000       1.717027        46.7227 
 244   0.0000       1.722053        46.8594 
 245   0.0000       1.731655        47.1207 
 246   0.0000       1.741870        47.3987 
 247   0.0000       1.745100        47.4866 
 248   0.0000       1.754780        47.7500 
 249   0.0000       1.765790        48.0496 
 250   0.0000       1.774713        48.2924 
 251   0.0000       1.782611        48.5073 
 252   0.0000       1.795604        48.8609 
 253   0.0000       1.808419        49.2096 
 254   0.0000       1.818351        49.4798 
 255   0.0000       1.833531        49.8929 
 256   0.0000       1.841232        50.1025 
 257   0.0000       1.845018        50.2055 
 258   0.0000       1.861507        50.6542 
 259   0.0000       1.875310        51.0298 
 260   0.0000       1.882538        51.2265 
 261   0.0000       1.904750        51.8309 
 262   0.0000       1.908741        51.9395 
 263   0.0000       1.915318        52.1185 
 264   0.0000       1.923204        52.3330 
 265   0.0000       1.932302        52.5806 
 266   0.0000       1.945594        52.9423 
 267   0.0000       1.961875        53.3853 
 268   0.0000       1.973626        53.7051 
 269   0.0000       1.991690        54.1966 
 270   0.0000       2.013496        54.7900 
 271   0.0000       2.019719        54.9594 
 272   0.0000       2.031861        55.2897 
 273   0.0000       2.043458        55.6053 
 274   0.0000       2.062362        56.1197 
 275   0.0000       2.070707        56.3468 
 276   0.0000       2.085622        56.7527 
 277   0.0000       2.095696        57.0268 
 278   0.0000       2.108555        57.3767 
 279   0.0000       2.113593        57.5138 
 280   0.0000       2.133447        58.0540 
 281   0.0000       2.155963        58.6667 
 282   0.0000       2.182989        59.4021 
 283   0.0000       2.189593        59.5818 
 284   0.0000       2.195600        59.7453 
 285   0.0000       2.203367        59.9567 
 286   0.0000       2.212844        60.2145 
 287   0.0000       2.219970        60.4085 
 288   0.0000       2.242822        61.0303 
 289   0.0000       2.253338        61.3164 
 290   0.0000       2.261528        61.5393 
 291   0.0000       2.275158        61.9102 
 292   0.0000       2.285695        62.1969 
 293   0.0000       2.291679        62.3598 
 294   0.0000       2.299141        62.5628 
 295   0.0000       2.306394        62.7602 
 296   0.0000       2.314688        62.9859 
 297   0.0000       2.321432        63.1694 
 298   0.0000       2.341770        63.7228 
 299   0.0000       2.362264        64.2805 
 300   0.0000       2.403461        65.4015 
 301   0.0000       2.411097        65.6093 
 302   0.0000       2.411601        65.6230 
 303   0.0000       2.417133        65.7735 
 304   0.0000       2.425112        65.9907 
 305   0.0000       2.463002        67.0217 
 306   0.0000       2.469867        67.2085 
 307   0.0000       2.480380        67.4946 
 308   0.0000       2.487313        67.6832 
 309   0.0000       2.508792        68.2677 
 310   0.0000       2.534740        68.9738 
 311   0.0000       2.543585        69.2145 
 312   0.0000       2.555851        69.5483 
 313   0.0000       2.584823        70.3366 
 314   0.0000       2.604140        70.8622 
 315   0.0000       2.611530        71.0633 
 316   0.0000       2.616704        71.2041 
 317   0.0000       2.673485        72.7492 
 318   0.0000       2.687253        73.1239 
 319   0.0000       2.715245        73.8856 
 320   0.0000       2.722480        74.0825 
 321   0.0000       2.777292        75.5740 
 322   0.0000       2.784386        75.7670 
 323   0.0000       2.810991        76.4910 
 324   0.0000       2.865795        77.9823 
 325   0.0000       2.918763        79.4236 
 326   0.0000       3.008301        81.8600 
 327   0.0000       3.193262        86.8931 
 328   0.0000       3.358969        91.4022 

                 SPIN DOWN ORBITALS
  NO   OCC          E(Eh)            E(eV) 
   0   1.0000     -10.208009      -277.7740 
   1   1.0000     -10.197857      -277.4978 
   2   1.0000     -10.197260      -277.4815 
   3   1.0000     -10.193537      -277.3802 
   4   1.0000     -10.189524      -277.2711 
   5   1.0000     -10.188111      -277.2326 
   6   1.0000     -10.186484      -277.1883 
   7   1.0000     -10.185703      -277.1671 
   8   1.0000     -10.184377      -277.1310 
   9   1.0000     -10.183929      -277.1188 
  10   1.0000     -10.183045      -277.0948 
  11   1.0000     -10.181721      -277.0587 
  12   1.0000     -10.181537      -277.0537 
  13   1.0000     -10.179894      -277.0090 
  14   1.0000     -10.177800      -276.9520 
  15   1.0000     -10.175933      -276.9012 
  16   1.0000      -0.865372       -23.5480 
  17   1.0000      -0.811272       -22.0758 
  18   1.0000      -0.796155       -21.6645 
  19   1.0000      -0.773178       -21.0393 
  20   1.0000      -0.762615       -20.7518 
  21   1.0000      -0.729740       -19.8572 
  22   1.0000      -0.720294       -19.6002 
  23   1.0000      -0.682247       -18.5649 
  24   1.0000      -0.662250       -18.0207 
  25   1.0000      -0.617845       -16.8124 
  26   1.0000      -0.608656       -16.5624 
  27   1.0000      -0.589476       -16.0404 
  28   1.0000      -0.575336       -15.6557 
  29   1.0000      -0.563219       -15.3260 
  30   1.0000      -0.522760       -14.2250 
  31   1.0000      -0.491318       -13.3694 
  32   1.0000      -0.487658       -13.2698 
  33   1.0000      -0.469324       -12.7710 
  34   1.0000      -0.455334       -12.3903 
  35   1.0000      -0.447125       -12.1669 
  36   1.0000      -0.426543       -11.6068 
  37   1.0000      -0.419902       -11.4261 
  38   1.0000      -0.418617       -11.3911 
  39   1.0000      -0.416176       -11.3247 
  40   1.0000      -0.409350       -11.1390 
  41   1.0000      -0.396464       -10.7883 
  42   1.0000      -0.384152       -10.4533 
  43   1.0000      -0.377294       -10.2667 
  44   1.0000      -0.371852       -10.1186 
  45   1.0000      -0.365829        -9.9547 
  46   1.0000      -0.350810        -9.5460 
  47   1.0000      -0.347625        -9.4594 
  48   1.0000      -0.337807        -9.1922 
  49   1.0000      -0.334414        -9.0999 
  50   1.0000      -0.327752        -8.9186 
  51   1.0000      -0.322560        -8.7773 
  52   1.0000      -0.321707        -8.7541 
  53   1.0000      -0.320187        -8.7127 
  54   1.0000      -0.301260        -8.1977 
  55   1.0000      -0.271925        -7.3995 
  56   1.0000      -0.257973        -7.0198 
  57   1.0000      -0.224921        -6.1204 
  58   0.0000      -0.081182        -2.2091 
  59   0.0000      -0.019874        -0.5408 
  60   0.0000       0.028476         0.7749 
  61   0.0000       0.047830         1.3015 
  62   0.0000       0.059619         1.6223 
  63   0.0000       0.063270         1.7217 
  64   0.0000       0.079233         2.1560 
  65   0.0000       0.086690         2.3590 
  66   0.0000       0.089468         2.4345 
  67   0.0000       0.091993         2.5033 
  68   0.0000       0.094504         2.5716 
  69   0.0000       0.100689         2.7399 
  70   0.0000       0.102992         2.8025 
  71   0.0000       0.108827         2.9613 
  72   0.0000       0.118146         3.2149 
  73   0.0000       0.134829         3.6689 
  74   0.0000       0.142167         3.8686 
  75   0.0000       0.145159         3.9500 
  76   0.0000       0.149146         4.0585 
  77   0.0000       0.151183         4.1139 
  78   0.0000       0.154073         4.1925 
  79   0.0000       0.161724         4.4007 
  80   0.0000       0.164785         4.4840 
  81   0.0000       0.167286         4.5521 
  82   0.0000       0.177458         4.8289 
  83   0.0000       0.186962         5.0875 
  84   0.0000       0.193441         5.2638 
  85   0.0000       0.212580         5.7846 
  86   0.0000       0.215334         5.8595 
  87   0.0000       0.231090         6.2883 
  88   0.0000       0.240618         6.5476 
  89   0.0000       0.248222         6.7545 
  90   0.0000       0.252004         6.8574 
  91   0.0000       0.261168         7.1068 
  92   0.0000       0.269704         7.3390 
  93   0.0000       0.299377         8.1465 
  94   0.0000       0.332511         9.0481 
  95   0.0000       0.332622         9.0511 
  96   0.0000       0.349594         9.5129 
  97   0.0000       0.360373         9.8062 
  98   0.0000       0.369514        10.0550 
  99   0.0000       0.407422        11.0865 
 100   0.0000       0.409842        11.1524 
 101   0.0000       0.412760        11.2318 
 102   0.0000       0.416325        11.3288 
 103   0.0000       0.420678        11.4472 
 104   0.0000       0.429870        11.6974 
 105   0.0000       0.441226        12.0064 
 106   0.0000       0.454405        12.3650 
 107   0.0000       0.464208        12.6318 
 108   0.0000       0.467726        12.7275 
 109   0.0000       0.474927        12.9234 
 110   0.0000       0.481928        13.1139 
 111   0.0000       0.493464        13.4278 
 112   0.0000       0.499887        13.6026 
 113   0.0000       0.506112        13.7720 
 114   0.0000       0.510310        13.8863 
 115   0.0000       0.516372        14.0512 
 116   0.0000       0.520850        14.1731 
 117   0.0000       0.541636        14.7387 
 118   0.0000       0.545495        14.8437 
 119   0.0000       0.547072        14.8866 
 120   0.0000       0.555867        15.1259 
 121   0.0000       0.566347        15.4111 
 122   0.0000       0.575230        15.6528 
 123   0.0000       0.584694        15.9103 
 124   0.0000       0.601647        16.3717 
 125   0.0000       0.608989        16.5714 
 126   0.0000       0.612759        16.6740 
 127   0.0000       0.616576        16.7779 
 128   0.0000       0.621121        16.9016 
 129   0.0000       0.629059        17.1176 
 130   0.0000       0.637607        17.3502 
 131   0.0000       0.639462        17.4007 
 132   0.0000       0.641977        17.4691 
 133   0.0000       0.644911        17.5489 
 134   0.0000       0.646380        17.5889 
 135   0.0000       0.651562        17.7299 
 136   0.0000       0.658021        17.9057 
 137   0.0000       0.658268        17.9124 
 138   0.0000       0.662272        18.0213 
 139   0.0000       0.664289        18.0762 
 140   0.0000       0.672768        18.3069 
 141   0.0000       0.679282        18.4842 
 142   0.0000       0.683360        18.5952 
 143   0.0000       0.687228        18.7004 
 144   0.0000       0.696115        18.9422 
 145   0.0000       0.700973        19.0744 
 146   0.0000       0.704017        19.1573 
 147   0.0000       0.709254        19.2998 
 148   0.0000       0.713743        19.4219 
 149   0.0000       0.716345        19.4927 
 150   0.0000       0.731686        19.9102 
 151   0.0000       0.734947        19.9989 
 152   0.0000       0.742803        20.2127 
 153   0.0000       0.749239        20.3878 
 154   0.0000       0.764927        20.8147 
 155   0.0000       0.773439        21.0463 
 156   0.0000       0.800090        21.7716 
 157   0.0000       0.803138        21.8545 
 158   0.0000       0.818967        22.2852 
 159   0.0000       0.834206        22.6999 
 160   0.0000       0.837600        22.7923 
 161   0.0000       0.839927        22.8556 
 162   0.0000       0.845627        23.0107 
 163   0.0000       0.874580        23.7985 
 164   0.0000       0.895652        24.3719 
 165   0.0000       0.907317        24.6893 
 166   0.0000       0.915163        24.9029 
 167   0.0000       0.939887        25.5756 
 168   0.0000       0.961557        26.1653 
 169   0.0000       0.970706        26.4142 
 170   0.0000       0.983799        26.7705 
 171   0.0000       0.999715        27.2036 
 172   0.0000       1.005620        27.3643 
 173   0.0000       1.020538        27.7703 
 174   0.0000       1.026042        27.9200 
 175   0.0000       1.036230        28.1973 
 176   0.0000       1.051024        28.5998 
 177   0.0000       1.065525        28.9944 
 178   0.0000       1.071023        29.1440 
 179   0.0000       1.082838        29.4655 
 180   0.0000       1.085849        29.5474 
 181   0.0000       1.110389        30.2152 
 182   0.0000       1.124759        30.6062 
 183   0.0000       1.151994        31.3473 
 184   0.0000       1.161314        31.6010 
 185   0.0000       1.181402        32.1476 
 186   0.0000       1.190878        32.4054 
 187   0.0000       1.194750        32.5108 
 188   0.0000       1.205114        32.7928 
 189   0.0000       1.215924        33.0870 
 190   0.0000       1.220935        33.2233 
 191   0.0000       1.224030        33.3075 
 192   0.0000       1.247409        33.9437 
 193   0.0000       1.253393        34.1066 
 194   0.0000       1.293874        35.2081 
 195   0.0000       1.302949        35.4551 
 196   0.0000       1.324973        36.0544 
 197   0.0000       1.332883        36.2696 
 198   0.0000       1.340671        36.4815 
 199   0.0000       1.345280        36.6069 
 200   0.0000       1.372989        37.3609 
 201   0.0000       1.393904        37.9301 
 202   0.0000       1.399905        38.0934 
 203   0.0000       1.415193        38.5094 
 204   0.0000       1.418086        38.5881 
 205   0.0000       1.426164        38.8079 
 206   0.0000       1.426172        38.8081 
 207   0.0000       1.435862        39.0718 
 208   0.0000       1.440801        39.2062 
 209   0.0000       1.452723        39.5306 
 210   0.0000       1.461371        39.7659 
 211   0.0000       1.464655        39.8553 
 212   0.0000       1.471754        40.0485 
 213   0.0000       1.488976        40.5171 
 214   0.0000       1.499942        40.8155 
 215   0.0000       1.523957        41.4690 
 216   0.0000       1.534876        41.7661 
 217   0.0000       1.545138        42.0453 
 218   0.0000       1.554253        42.2934 
 219   0.0000       1.565123        42.5892 
 220   0.0000       1.579149        42.9708 
 221   0.0000       1.601922        43.5905 
 222   0.0000       1.602728        43.6124 
 223   0.0000       1.607917        43.7537 
 224   0.0000       1.612096        43.8674 
 225   0.0000       1.624691        44.2101 
 226   0.0000       1.627076        44.2750 
 227   0.0000       1.630849        44.3777 
 228   0.0000       1.633698        44.4552 
 229   0.0000       1.636729        44.5377 
 230   0.0000       1.637396        44.5558 
 231   0.0000       1.646612        44.8066 
 232   0.0000       1.654752        45.0281 
 233   0.0000       1.658672        45.1348 
 234   0.0000       1.667926        45.3866 
 235   0.0000       1.675216        45.5850 
 236   0.0000       1.683612        45.8134 
 237   0.0000       1.688464        45.9454 
 238   0.0000       1.691961        46.0406 
 239   0.0000       1.697515        46.1917 
 240   0.0000       1.703634        46.3582 
 241   0.0000       1.706380        46.4330 
 242   0.0000       1.710770        46.5524 
 243   0.0000       1.717961        46.7481 
 244   0.0000       1.722731        46.8779 
 245   0.0000       1.732590        47.1462 
 246   0.0000       1.745824        47.5063 
 247   0.0000       1.749512        47.6067 
 248   0.0000       1.755675        47.7743 
 249   0.0000       1.766619        48.0722 
 250   0.0000       1.775729        48.3201 
 251   0.0000       1.784628        48.5622 
 252   0.0000       1.796577        48.8873 
 253   0.0000       1.809895        49.2498 
 254   0.0000       1.821858        49.5753 
 255   0.0000       1.838128        50.0180 
 256   0.0000       1.842070        50.1253 
 257   0.0000       1.846422        50.2437 
 258   0.0000       1.863522        50.7090 
 259   0.0000       1.877008        51.0760 
 260   0.0000       1.890374        51.4397 
 261   0.0000       1.905592        51.8538 
 262   0.0000       1.912355        52.0378 
 263   0.0000       1.923234        52.3339 
 264   0.0000       1.929994        52.5178 
 265   0.0000       1.937443        52.7205 
 266   0.0000       1.946794        52.9750 
 267   0.0000       1.964718        53.4627 
 268   0.0000       1.980723        53.8982 
 269   0.0000       1.994580        54.2753 
 270   0.0000       2.014189        54.8089 
 271   0.0000       2.021567        55.0096 
 272   0.0000       2.035013        55.3755 
 273   0.0000       2.044230        55.6263 
 274   0.0000       2.063220        56.1431 
 275   0.0000       2.072638        56.3993 
 276   0.0000       2.086737        56.7830 
 277   0.0000       2.097573        57.0779 
 278   0.0000       2.109629        57.4059 
 279   0.0000       2.116885        57.6034 
 280   0.0000       2.134705        58.0883 
 281   0.0000       2.157776        58.7161 
 282   0.0000       2.183308        59.4108 
 283   0.0000       2.191720        59.6397 
 284   0.0000       2.196394        59.7669 
 285   0.0000       2.205169        60.0057 
 286   0.0000       2.214272        60.2534 
 287   0.0000       2.220292        60.4172 
 288   0.0000       2.246305        61.1251 
 289   0.0000       2.254711        61.3538 
 290   0.0000       2.262866        61.5757 
 291   0.0000       2.275852        61.9291 
 292   0.0000       2.286910        62.2300 
 293   0.0000       2.292595        62.3847 
 294   0.0000       2.299771        62.5800 
 295   0.0000       2.307816        62.7989 
 296   0.0000       2.315644        63.0119 
 297   0.0000       2.321597        63.1739 
 298   0.0000       2.344032        63.7844 
 299   0.0000       2.365542        64.3697 
 300   0.0000       2.404244        65.4228 
 301   0.0000       2.411356        65.6163 
 302   0.0000       2.411656        65.6245 
 303   0.0000       2.417547        65.7848 
 304   0.0000       2.425623        66.0046 
 305   0.0000       2.463402        67.0326 
 306   0.0000       2.470773        67.2332 
 307   0.0000       2.481071        67.5134 
 308   0.0000       2.487959        67.7008 
 309   0.0000       2.509497        68.2869 
 310   0.0000       2.535399        68.9917 
 311   0.0000       2.543961        69.2247 
 312   0.0000       2.557861        69.6029 
 313   0.0000       2.585963        70.3676 
 314   0.0000       2.604387        70.8690 
 315   0.0000       2.612470        71.0889 
 316   0.0000       2.617956        71.2382 
 317   0.0000       2.674801        72.7850 
 318   0.0000       2.688074        73.1462 
 319   0.0000       2.715615        73.8956 
 320   0.0000       2.723095        74.0992 
 321   0.0000       2.778802        75.6151 
 322   0.0000       2.785696        75.8026 
 323   0.0000       2.811984        76.5180 
 324   0.0000       2.868171        78.0469 
 325   0.0000       2.919283        79.4377 
 326   0.0000       3.011490        81.9468 
 327   0.0000       3.192690        86.8775 
 328   0.0000       3.360768        91.4511 

                    ********************************
                    * MULLIKEN POPULATION ANALYSIS *
                    ********************************

--------------------------------------------
MULLIKEN ATOMIC CHARGES AND SPIN POPULATIONS
--------------------------------------------
   0 C :    0.618127    0.029703
   1 C :   -0.061943    0.245881
   2 C :   -0.046154   -0.170958
   3 C :    0.024588    0.228052
   4 C :   -0.047127   -0.112698
   5 C :   -0.073319    0.262728
   6 C :    0.030473   -0.125988
   7 H :   -0.051895   -0.009562
   8 H :   -0.062826    0.004570
   9 C :    0.042200    0.748246
  10 H :    0.011795   -0.030029
  11 H :    0.007919   -0.029507
  12 C :    0.051911   -0.018357
  13 H :   -0.000685    0.002444
  14 H :    0.008284    0.006869
  15 C :   -0.029357    0.011833
  16 H :    0.011913   -0.000706
  17 H :    0.007117   -0.000240
  18 C :   -0.006349    0.001078
  19 H :    0.016481   -0.000032
  20 H :    0.016889    0.000228
  21 C :    0.044228   -0.020776
  22 H :    0.031842    0.011219
  23 H :    0.032007    0.011378
  24 C :   -0.036042    0.000965
  25 H :    0.015266    0.000215
  26 H :    0.014469    0.000212
  27 C :   -0.024333    0.000023
  28 H :    0.006030    0.000060
  29 H :    0.006323    0.000060
  30 C :    0.003165   -0.000090
  31 H :    0.016299    0.000027
  32 H :    0.016546    0.000025
  33 C :   -0.592039   -0.049139
  34 H :   -0.030623    0.001954
  35 H :    0.015712    0.000321
  36 H :    0.013105   -0.000006
Sum of atomic charges         :    0.0000000
Sum of atomic spin populations:    1.0000000

-----------------------------------------------------
MULLIKEN REDUCED ORBITAL CHARGES AND SPIN POPULATIONS
-----------------------------------------------------
CHARGE
  0 C s       :     3.121456  s :     3.121456
      pz      :     0.944536  p :     2.205756
      px      :     0.325923
      py      :     0.935297
      dz2     :     0.004610  d :     0.054661
      dxz     :     0.020552
      dyz     :     0.000743
      dx2y2   :     0.009528
      dxy     :     0.019228
  1 C s       :     3.158304  s :     3.158304
      pz      :     0.938293  p :     2.820755
      px      :     0.912453
      py      :     0.970010
      dz2     :     0.004863  d :     0.082883
      dxz     :     0.011990
      dyz     :     0.012898
      dx2y2   :     0.026654
      dxy     :     0.026478
  2 C s       :     3.126953  s :     3.126953
      pz      :     0.954730  p :     2.833150
      px      :     0.917464
      py      :     0.960956
      dz2     :     0.005540  d :     0.086051
      dxz     :     0.012076
      dyz     :     0.014593
      dx2y2   :     0.027944
      dxy     :     0.025898
  3 C s       :     3.211439  s :     3.211439
      pz      :     0.972955  p :     2.699705
      px      :     0.887598
      py      :     0.839152
      dz2     :     0.004129  d :     0.064268
      dxz     :     0.011156
      dyz     :     0.006568
      dx2y2   :     0.020243
      dxy     :     0.022173
  4 C s       :     3.219578  s :     3.219578
      pz      :     1.001669  p :     2.739635
      px      :     0.790252
      py      :     0.947714
      dz2     :     0.005314  d :     0.087914
      dxz     :     0.012493
      dyz     :     0.013809
      dx2y2   :     0.029179
      dxy     :     0.027120
  5 C s       :     3.175516  s :     3.175516
      pz      :     0.948094  p :     2.813765
      px      :     0.925241
      py      :     0.940430
      dz2     :     0.005478  d :     0.084038
      dxz     :     0.014244
      dyz     :     0.012443
      dx2y2   :     0.024781
      dxy     :     0.027093
  6 C s       :     3.183392  s :     3.183392
      pz      :     1.007173  p :     2.721893
      px      :     0.884589
      py      :     0.830132
      dz2     :     0.003881  d :     0.064242
      dxz     :     0.011296
      dyz     :     0.005942
      dx2y2   :     0.020670
[...]
 A(DIA)          0.0001               0.0001               0.0000    A(PC) =   0.0000
             ----------           ----------           ----------
 A(Tot)         -0.1174              -0.1336               0.4196    A(iso)=    0.0562
 Orientation: 
  X           0.9761872           -0.2001336            0.0836963
  Y          -0.0670749            0.0884481            0.9938199
  Z          -0.2062995           -0.9757682            0.0729179

Notes:  (1) The A matrix conforms to the "SAI" spin Hamiltonian convention.
        (2) Tensor is right-handed.

 -----------------------------------------------------------
 Nucleus  34H : A:ISTP=    1 I=  0.5 P=533.5514 MHz/au**3
                Q:ISTP=    2 I=  1.0 Q=  0.0029 barn     
 -----------------------------------------------------------
 Solving for nuclear perturbation:
Forming RHS of the CP-SCF equations         ... 
Calc. nucleus orbit integrals (SHARK)       ... done

------------------------------------------------------------------------------
                           ORCA CP-SCF CALCULATION
------------------------------------------------------------------------------

Input orbitals are from        ... cc-pVDZ.gbw
Input Perturbation             ... cc-pVDZ.pin.tmp
Wavefunction output            ... cc-pVDZ.pout.tmp
Perturbation mode              ... Imaginary perturbation
Solver                         ... POPLE
Max. number of iterations      ... 64
Convergence tolerance          ... 1.000e-03
Integral handling              ... Direct
DFT GridXC                     ... 1
COSX GridX                     ... 1
COSX IntAccX                   ... 3.067
COSX Algorithm                 ... Auto
Number of perturbations        ... 3
Number of operators            ... 2
Orbital ranges used for CP-SCF:
 Operator 0:  Orbitals   0... 58  to  59...328
 Operator 1:  Orbitals   0... 57  to  58...328
Variables per perturbation     ... 31648
DFT calculation                         ... on
XC functional terms                     ... off
Hybrid DFT                              ... on
   Exchange mixing (SCF)                ...  0.200
   Exchange mixing (CP-SCF)             ...  0.200
   GGA exch. scaling(SCF)               ...  0.720
   GGA exch. scaling (CP-SCF)           ...  0.720
   GGA corr. scaling (SCF)              ...  0.810
   GGA corr. scaling (CP-SCF)           ...  0.810

CP-SCF GRID
-----------

General Integration Accuracy     IntAcc      ... 3.467
Radial Grid Type                 RadialGrid  ... OptM3 with GC (2021)
Angular Grid (max. ang.)         AngularGrid ... 1 (Lebedev-50)
Angular grid pruning method      GridPruning ... 4 (adaptive)
Weight generation scheme         WeightScheme... Becke
Basis function cutoff            BFCut       ... 1.0000e-10
Integration weight cutoff        WCut        ... 1.0000e-14
Angular grids for H and He will be reduced by one unit
Partially contracted basis set               ... off
Rotationally invariant grid construction     ... off

Total number of grid points                  ...    22893
Total number of batches                      ...      373
Average number of points per batch           ...       61
Average number of grid points per atom       ...      619

CP-SCF GRIDX
------------

General Integration Accuracy     IntAcc      ... 3.067
Radial Grid Type                 RadialGrid  ... OptM3 with GC (2021)
Angular Grid (max. ang.)         AngularGrid ... 1 (Lebedev-50)
Angular grid pruning method      GridPruning ... 4 (adaptive)
Weight generation scheme         WeightScheme... Becke
Basis function cutoff            BFCut       ... 1.0000e-10
Integration weight cutoff        WCut        ... 1.0000e-14
Angular grids for H and He will be reduced by one unit
Partially contracted basis set               ... on
Rotationally invariant grid construction     ... off

Total number of grid points                  ...    10843
Total number of batches                      ...      192
Average number of points per batch           ...       56
Average number of grid points per atom       ...      293

Memory available               ... 913.5 MB
Memory needed per perturbation ...   6.9 MB
Perturbations treated per batch... 3
Number of batches              ... 1
     CP-SCF ITERATION   0:   9.8612e-02 (   1.0 sec   0/  3 done)
     CP-SCF ITERATION   1:   2.2324e-03 (   1.0 sec   0/  3 done)
     CP-SCF ITERATION   2:   1.6306e-04 (   1.0 sec   3/  3 done)
                    *** THE CP-SCF HAS CONVERGED ***

Forming final perturbed densities           ... done
Transforming perturbed density to AO basis  ... done

 Raw HFC matrix (all values in MHz): 
 -----------------------------------
                 2.2548               0.3485               0.1366
                 0.3484               4.6257              -0.1315
                 0.1366              -0.1315               3.1251

 A(FC)           3.3355               3.3355               3.3355
 A(SD)          -1.1559              -0.1932               1.3491
 A(ORB+DIA)     -0.0001               0.0001              -0.0009    A(PC) =  -0.0003
 A(ORB)          0.0000              -0.0001              -0.0010    A(PC) =  -0.0004
 A(DIA)         -0.0001               0.0002               0.0001    A(PC) =   0.0001
             ----------           ----------           ----------
 A(Tot)          2.1795               3.1424               4.6838    A(iso)=    3.3352
 Orientation: 
  X          -0.9757596            0.1700751            0.1377233
  Y           0.1476834            0.0473102            0.9879025
  Z           0.1615019            0.9842948           -0.0712806

Notes:  (1) The A matrix conforms to the "SAI" spin Hamiltonian convention.
        (2) Tensor is right-handed.

 -----------------------------------------------------------
 Nucleus  35H : A:ISTP=    1 I=  0.5 P=533.5514 MHz/au**3
                Q:ISTP=    2 I=  1.0 Q=  0.0029 barn     
 -----------------------------------------------------------
 Solving for nuclear perturbation:
Forming RHS of the CP-SCF equations         ... 
Calc. nucleus orbit integrals (SHARK)       ... done

------------------------------------------------------------------------------
                           ORCA CP-SCF CALCULATION
------------------------------------------------------------------------------

Input orbitals are from        ... cc-pVDZ.gbw
Input Perturbation             ... cc-pVDZ.pin.tmp
Wavefunction output            ... cc-pVDZ.pout.tmp
Perturbation mode              ... Imaginary perturbation
Solver                         ... POPLE
Max. number of iterations      ... 64
Convergence tolerance          ... 1.000e-03
Integral handling              ... Direct
DFT GridXC                     ... 1
COSX GridX                     ... 1
COSX IntAccX                   ... 3.067
COSX Algorithm                 ... Auto
Number of perturbations        ... 3
Number of operators            ... 2
Orbital ranges used for CP-SCF:
 Operator 0:  Orbitals   0... 58  to  59...328
 Operator 1:  Orbitals   0... 57  to  58...328
Variables per perturbation     ... 31648
DFT calculation                         ... on
XC functional terms                     ... off
Hybrid DFT                              ... on
   Exchange mixing (SCF)                ...  0.200
   Exchange mixing (CP-SCF)             ...  0.200
   GGA exch. scaling(SCF)               ...  0.720
   GGA exch. scaling (CP-SCF)           ...  0.720
   GGA corr. scaling (SCF)              ...  0.810
   GGA corr. scaling (CP-SCF)           ...  0.810

CP-SCF GRID
-----------

General Integration Accuracy     IntAcc      ... 3.467
Radial Grid Type                 RadialGrid  ... OptM3 with GC (2021)
Angular Grid (max. ang.)         AngularGrid ... 1 (Lebedev-50)
Angular grid pruning method      GridPruning ... 4 (adaptive)
Weight generation scheme         WeightScheme... Becke
Basis function cutoff            BFCut       ... 1.0000e-10
Integration weight cutoff        WCut        ... 1.0000e-14
Angular grids for H and He will be reduced by one unit
Partially contracted basis set               ... off
Rotationally invariant grid construction     ... off

Total number of grid points                  ...    22893
Total number of batches                      ...      373
Average number of points per batch           ...       61
Average number of grid points per atom       ...      619

CP-SCF GRIDX
------------

General Integration Accuracy     IntAcc      ... 3.067
Radial Grid Type                 RadialGrid  ... OptM3 with GC (2021)
Angular Grid (max. ang.)         AngularGrid ... 1 (Lebedev-50)
Angular grid pruning method      GridPruning ... 4 (adaptive)
Weight generation scheme         WeightScheme... Becke
Basis function cutoff            BFCut       ... 1.0000e-10
Integration weight cutoff        WCut        ... 1.0000e-14
Angular grids for H and He will be reduced by one unit
Partially contracted basis set               ... on
Rotationally invariant grid construction     ... off

Total number of grid points                  ...    10843
Total number of batches                      ...      192
Average number of points per batch           ...       56
Average number of grid points per atom       ...      293

Memory available               ... 913.1 MB
Memory needed per perturbation ...   6.9 MB
Perturbations treated per batch... 3
Number of batches              ... 1
     CP-SCF ITERATION   0:   3.6302e-02 (   1.0 sec   0/  3 done)
     CP-SCF ITERATION   1:   6.2641e-04 (   1.0 sec   3/  3 done)
                    *** THE CP-SCF HAS CONVERGED ***

Forming final perturbed densities           ... done
Transforming perturbed density to AO basis  ... done

 Raw HFC matrix (all values in MHz): 
 -----------------------------------
                 1.2971              -0.3924               0.4563
                -0.3927               0.2788              -0.1474
                 0.4562              -0.1473               0.3819

 A(FC)           0.6526               0.6526               0.6526
 A(SD)          -0.5084              -0.4557               0.9641
 A(ORB+DIA)     -0.0001              -0.0000               0.0003    A(PC) =   0.0000
 A(ORB)         -0.0001              -0.0000               0.0002    A(PC) =   0.0000
 A(DIA)          0.0000               0.0000               0.0001    A(PC) =   0.0000
             ----------           ----------           ----------
 A(Tot)          0.1441               0.1968               1.6169    A(iso)=    0.6526
 Orientation: 
  X           0.3631487           -0.2973375            0.8830139
  Y           0.9235085            0.2404966           -0.2988200
  Z          -0.1235114            0.9239869            0.3619297

Notes:  (1) The A matrix conforms to the "SAI" spin Hamiltonian convention.
        (2) Tensor is right-handed.

 -----------------------------------------------------------
 Nucleus  36H : A:ISTP=    1 I=  0.5 P=533.5514 MHz/au**3
                Q:ISTP=    2 I=  1.0 Q=  0.0029 barn     
 -----------------------------------------------------------
 Solving for nuclear perturbation:
Forming RHS of the CP-SCF equations         ... 
Calc. nucleus orbit integrals (SHARK)       ... done

------------------------------------------------------------------------------
                           ORCA CP-SCF CALCULATION
------------------------------------------------------------------------------

Input orbitals are from        ... cc-pVDZ.gbw
Input Perturbation             ... cc-pVDZ.pin.tmp
Wavefunction output            ... cc-pVDZ.pout.tmp
Perturbation mode              ... Imaginary perturbation
Solver                         ... POPLE
Max. number of iterations      ... 64
Convergence tolerance          ... 1.000e-03
Integral handling              ... Direct
DFT GridXC                     ... 1
COSX GridX                     ... 1
COSX IntAccX                   ... 3.067
COSX Algorithm                 ... Auto
Number of perturbations        ... 3
Number of operators            ... 2
Orbital ranges used for CP-SCF:
 Operator 0:  Orbitals   0... 58  to  59...328
 Operator 1:  Orbitals   0... 57  to  58...328
Variables per perturbation     ... 31648
DFT calculation                         ... on
XC functional terms                     ... off
Hybrid DFT                              ... on
   Exchange mixing (SCF)                ...  0.200
   Exchange mixing (CP-SCF)             ...  0.200
   GGA exch. scaling(SCF)               ...  0.720
   GGA exch. scaling (CP-SCF)           ...  0.720
   GGA corr. scaling (SCF)              ...  0.810
   GGA corr. scaling (CP-SCF)           ...  0.810

CP-SCF GRID
-----------

General Integration Accuracy     IntAcc      ... 3.467
Radial Grid Type                 RadialGrid  ... OptM3 with GC (2021)
Angular Grid (max. ang.)         AngularGrid ... 1 (Lebedev-50)
Angular grid pruning method      GridPruning ... 4 (adaptive)
Weight generation scheme         WeightScheme... Becke
Basis function cutoff            BFCut       ... 1.0000e-10
Integration weight cutoff        WCut        ... 1.0000e-14
Angular grids for H and He will be reduced by one unit
Partially contracted basis set               ... off
Rotationally invariant grid construction     ... off

Total number of grid points                  ...    22893
Total number of batches                      ...      373
Average number of points per batch           ...       61
Average number of grid points per atom       ...      619

CP-SCF GRIDX
------------

General Integration Accuracy     IntAcc      ... 3.067
Radial Grid Type                 RadialGrid  ... OptM3 with GC (2021)
Angular Grid (max. ang.)         AngularGrid ... 1 (Lebedev-50)
Angular grid pruning method      GridPruning ... 4 (adaptive)
Weight generation scheme         WeightScheme... Becke
Basis function cutoff            BFCut       ... 1.0000e-10
Integration weight cutoff        WCut        ... 1.0000e-14
Angular grids for H and He will be reduced by one unit
Partially contracted basis set               ... on
Rotationally invariant grid construction     ... off

Total number of grid points                  ...    10843
Total number of batches                      ...      192
Average number of points per batch           ...       56
Average number of grid points per atom       ...      293

Memory available               ... 912.8 MB
Memory needed per perturbation ...   6.9 MB
Perturbations treated per batch... 3
Number of batches              ... 1
     CP-SCF ITERATION   0:   3.6472e-02 (   1.0 sec   0/  3 done)
     CP-SCF ITERATION   1:   6.0319e-04 (   1.0 sec   3/  3 done)
                    *** THE CP-SCF HAS CONVERGED ***

Forming final perturbed densities           ... done
Transforming perturbed density to AO basis  ... done

 Raw HFC matrix (all values in MHz): 
 -----------------------------------
                -0.1214               0.0924              -0.0071
                 0.0925               0.2367              -0.0314
                -0.0071              -0.0314              -0.1380

 A(FC)          -0.0076              -0.0076              -0.0076
 A(SD)          -0.1329              -0.1364               0.2693
 A(ORB+DIA)      0.0000               0.0001               0.0001    A(PC) =   0.0001
 A(ORB)          0.0000               0.0000               0.0001    A(PC) =   0.0000
 A(DIA)          0.0000               0.0001               0.0000    A(PC) =   0.0000
             ----------           ----------           ----------
 A(Tot)         -0.1405              -0.1440               0.2617    A(iso)=   -0.0076
 Orientation: 
  X           0.1726817            0.9564964            0.2351504
  Y           0.0397042           -0.2453022            0.9686333
  Z           0.9841771           -0.1579288           -0.0803361

Notes:  (1) The A matrix conforms to the "SAI" spin Hamiltonian convention.
        (2) Tensor is right-handed.


--------------------------------------------------------------------------------
----------------------------------------------------------------------------
                           ORCA EULER ANGLE PROGRAM
----------------------------------------------------------------------------

Only g-tensor available        -->  using g-tensor as reference tensor

Reference tensor               ...  g

g-tensor ordering              ...  |g_min> --> |gx>
                                    |g_mid> --> |gy>
                                    |g_max> --> |gz>

A- and EFG-tensor ordering     ...  the axes |Ax>, |Qx>, |Ay>, etc. are assigned
                                    such that the Euler rotation is minimal. You
                                    can find the respective eigenvalues as Ax,
                                    EFGx, Ay, etc. in the tables below.
                                    The relation of |Ax>, |Ay>,  etc. to Amin, Amid, etc.
                                    (as printed in the ORCA EPR/NMR CALCULATION Output)
                                    is obtained in the detailed printout.

Euler rotation around          ...  z - y - z
   First rotation              -->  by alpha around z
   Second rotation             -->  by beta around y'
   Third rotation              -->  by gamma around z''
   Positive / Negative angle   -->  clockwise / counterclockwise rotation

Plot EFG-tensors                    (-)
Plot HFC-tensors                    (-)
Detailed Printout                   (-)

-------------------------------------------------------------------------
          Euler rotation of hyperfine tensor to g-tensor
-------------------------------------------------------------------------

-------------------------------------------------------------------
 Atom  |   Alpha    Beta    Gamma   |   Ax       Ay       Az 
       |          [degrees]         |           [MHz]         
-------------------------------------------------------------------
  7H      -87.7     38.1     93.2     -17.28   -20.45    -6.58
  8H      -89.3     41.1     94.5       3.93     9.74     5.06
 10H       91.1     17.7    -87.8     -45.50   -71.58   -16.43
 11H      -88.9     43.8     92.9     -45.41   -70.56   -15.71
 13H     -135.4     27.6    103.6       3.10     3.30     7.55
 14H     -123.3     18.6    126.7       4.89     6.31    11.77
 16H        4.4     39.1     31.2      -3.21    -1.34     3.61
 17H      164.8     33.1   -125.6       2.18    -1.70    -1.16
 19H      -22.8     11.1     -4.7      -0.75    -0.58     1.29
 20H      -25.3     19.6     61.0      -0.27    -0.20     1.33
 22H      -45.6     48.6     18.8      23.26    26.79    22.63
 23H     -133.3     45.6    169.7      23.56    27.07    22.91
 25H      109.3     25.9    -93.5      -1.05     1.16    -0.94
 26H       63.8     26.4    -70.8      -1.05     1.15    -0.95
 28H      -10.9     34.6      5.2      -0.12     0.89    -0.17
 29H     -169.6     32.5   -175.1      -0.12     0.89    -0.17
 31H       60.0     14.9    -62.4      -0.13     0.42    -0.12
 32H      104.8     13.8    -93.1      -0.13     0.42    -0.12
 34H       86.5      8.9    -82.1       3.14     4.68     2.18
 35H       -9.7     30.3     11.9       0.20     0.14     1.62
 36H       85.1      3.2    -80.3      -0.14     0.26    -0.14
-------------------------------------------------------------------


Maximum memory used throughout the entire EPRNMR-calculation: 151.2 MB

Timings for individual modules:

Sum of individual times         ...     1481.272 sec (=  24.688 min)
GTO integral calculation        ...        3.734 sec (=   0.062 min)   0.3 %
Spin-Orbit-Coupling Matrices    ...        6.143 sec (=   0.102 min)   0.4 %
SCF iterations                  ...       29.671 sec (=   0.495 min)   2.0 %
EPR/NMR calculation             ...     1441.723 sec (=  24.029 min)  97.3 %
                             ****ORCA TERMINATED NORMALLY****
TOTAL RUN TIME: 0 days 0 hours 24 minutes 45 seconds 230 msec
