
                                 *****************
                                 * O   R   C   A *
                                 *****************

                                            #,                                       
                                            ###                                      
                                            ####                                     
                                            #####                                    
                                            ######                                   
                                           ########,                                 
                                     ,,################,,,,,                         
                               ,,#################################,,                 
                          ,,##########################################,,             
                       ,#########################################, ''#####,          
                    ,#############################################,,   '####,        
                  ,##################################################,,,,####,       
                ,###########''''           ''''###############################       
              ,#####''   ,,,,##########,,,,          '''####'''          '####       
            ,##' ,,,,###########################,,,                        '##       
           ' ,,###''''                  '''############,,,                           
         ,,##''                                '''############,,,,        ,,,,,,###''
      ,#''                                            '''#######################'''  
     '                                                          ''''####''''         
             ,#######,   #######,   ,#######,      ##                                
            ,#'     '#,  ##    ##  ,#'     '#,    #''#        ######   ,####,        
            ##       ##  ##   ,#'  ##            #'  '#       #        #'  '#        
            ##       ##  #######   ##           ,######,      #####,   #    #        
            '#,     ,#'  ##    ##  '#,     ,#' ,#      #,         ##   #,  ,#        
             '#######'   ##     ##  '#######'  #'      '#     #####' # '####'        



                  #######################################################
                  #                        -***-                        #
                  #          Department of theory and spectroscopy      #
                  #    Directorship and core code : Frank Neese         #
                  #        Max Planck Institute fuer Kohlenforschung    #
                  #                Kaiser Wilhelm Platz 1               #
                  #                 D-45470 Muelheim/Ruhr               #
                  #                      Germany                        #
                  #                                                     #
                  #                  All rights reserved                #
                  #                        -***-                        #
                  #######################################################


                         Program Version 5.0.4 -  RELEASE  -


 With contributions from (in alphabetic order):
   Daniel Aravena         : Magnetic Suceptibility
   Michael Atanasov       : Ab Initio Ligand Field Theory (pilot matlab implementation)
   Alexander A. Auer      : GIAO ZORA, VPT2 properties, NMR spectrum
   Ute Becker             : Parallelization
   Giovanni Bistoni       : ED, misc. LED, open-shell LED, HFLD
   Martin Brehm           : Molecular dynamics
   Dmytro Bykov           : SCF Hessian
   Vijay G. Chilkuri      : MRCI spin determinant printing, contributions to CSF-ICE
   Dipayan Datta          : RHF DLPNO-CCSD density
   Achintya Kumar Dutta   : EOM-CC, STEOM-CC
   Dmitry Ganyushin       : Spin-Orbit,Spin-Spin,Magnetic field MRCI
   Miquel Garcia          : C-PCM and meta-GGA Hessian, CC/C-PCM, Gaussian charge scheme
   Yang Guo               : DLPNO-NEVPT2, F12-NEVPT2, CIM, IAO-localization
   Andreas Hansen         : Spin unrestricted coupled pair/coupled cluster methods
   Benjamin Helmich-Paris : MC-RPA, TRAH-SCF, COSX integrals
   Lee Huntington         : MR-EOM, pCC
   Robert Izsak           : Overlap fitted RIJCOSX, COSX-SCS-MP3, EOM
   Marcus Kettner         : VPT2
   Christian Kollmar      : KDIIS, OOCD, Brueckner-CCSD(T), CCSD density, CASPT2, CASPT2-K
   Simone Kossmann        : Meta GGA functionals, TD-DFT gradient, OOMP2, MP2 Hessian
   Martin Krupicka        : Initial AUTO-CI
   Lucas Lang             : DCDCAS
   Marvin Lechner         : AUTO-CI (C++ implementation), FIC-MRCC
   Dagmar Lenk            : GEPOL surface, SMD
   Dimitrios Liakos       : Extrapolation schemes; Compound Job, initial MDCI parallelization
   Dimitrios Manganas     : Further ROCIS development; embedding schemes
   Dimitrios Pantazis     : SARC Basis sets
   Anastasios Papadopoulos: AUTO-CI, single reference methods and gradients
   Taras Petrenko         : DFT Hessian,TD-DFT gradient, ASA, ECA, R-Raman, ABS, FL, XAS/XES, NRVS
   Peter Pinski           : DLPNO-MP2, DLPNO-MP2 Gradient
   Christoph Reimann      : Effective Core Potentials
   Marius Retegan         : Local ZFS, SOC
   Christoph Riplinger    : Optimizer, TS searches, QM/MM, DLPNO-CCSD(T), (RO)-DLPNO pert. Triples
   Tobias Risthaus        : Range-separated hybrids, TD-DFT gradient, RPA, STAB
   Michael Roemelt        : Original ROCIS implementation
   Masaaki Saitow         : Open-shell DLPNO-CCSD energy and density
   Barbara Sandhoefer     : DKH picture change effects
   Avijit Sen             : IP-ROCIS
   Kantharuban Sivalingam : CASSCF convergence, NEVPT2, FIC-MRCI
   Bernardo de Souza      : ESD, SOC TD-DFT
   Georgi Stoychev        : AutoAux, RI-MP2 NMR, DLPNO-MP2 response
   Willem Van den Heuvel  : Paramagnetic NMR
   Boris Wezisla          : Elementary symmetry handling
   Frank Wennmohs         : Technical directorship


 We gratefully acknowledge several colleagues who have allowed us to
 interface, adapt or use parts of their codes:
   Stefan Grimme, W. Hujo, H. Kruse, P. Pracht,  : VdW corrections, initial TS optimization,
                  C. Bannwarth, S. Ehlert          DFT functionals, gCP, sTDA/sTD-DF
   Ed Valeev, F. Pavosevic, A. Kumar             : LibInt (2-el integral package), F12 methods
   Garnet Chan, S. Sharma, J. Yang, R. Olivares  : DMRG
   Ulf Ekstrom                                   : XCFun DFT Library
   Mihaly Kallay                                 : mrcc  (arbitrary order and MRCC methods)
   Jiri Pittner, Ondrej Demel                    : Mk-CCSD
   Frank Weinhold                                : gennbo (NPA and NBO analysis)
   Christopher J. Cramer and Donald G. Truhlar   : smd solvation model
   Lars Goerigk                                  : TD-DFT with DH, B97 family of functionals
   V. Asgeirsson, H. Jonsson                     : NEB implementation
   FAccTs GmbH                                   : IRC, NEB, NEB-TS, DLPNO-Multilevel, CI-OPT
                                                   MM, QMMM, 2- and 3-layer-ONIOM, Crystal-QMMM,
                                                   LR-CPCM, SF, NACMEs, symmetry and pop. for TD-DFT,
                                                   nearIR, NL-DFT gradient (VV10), updates on ESD,
                                                   ML-optimized integration grids
   S Lehtola, MJT Oliveira, MAL Marques          : LibXC Library
   Liviu Ungur et al                             : ANISO software


 Your calculation uses the libint2 library for the computation of 2-el integrals
 For citations please refer to: http://libint.valeyev.net

 Your ORCA version has been built with support for libXC version: 5.1.0
 For citations please refer to: https://tddft.org/programs/libxc/

 This ORCA versions uses:
   CBLAS   interface :  Fast vector & matrix operations
   LAPACKE interface :  Fast linear algebra routines
   SCALAPACK package :  Parallel linear algebra routines
   Shared memory     :  Shared parallel matrices
   BLAS/LAPACK       :  OpenBLAS 0.3.15  USE64BITINT DYNAMIC_ARCH NO_AFFINITY SkylakeX SINGLE_THREADED
        Core in use  :  SkylakeX
   Copyright (c) 2011-2014, The OpenBLAS Project




***************************************
The coordinates will be read from file: opt.xyz
***************************************


================================================================================

----- Orbital basis set information -----
Your calculation utilizes the basis: cc-pVDZ 
       H, B-Ne : Obtained from the ccRepo (grant-hill.group.shef.ac.uk/ccrepo) Feb. 2017
                 T. H. Dunning, Jr., J. Chem. Phys. 90, 1007 (1989)
            He : Obtained from the ccRepo (grant-hill.group.shef.ac.uk/ccrepo) Feb. 2017
                 D. E. Woon, T. H. Dunning, Jr., J. Chem. Phys. 100, 2975 (1994)
  Li-Be, Na-Mg : Obtained from the ccRepo (grant-hill.group.shef.ac.uk/ccrepo) Feb. 2017
                 B. P. Prascher, D. E. Woon, K. A. Peterson, T. H. Dunning, Jr., A. K. Wilson, Theor. Chem. Acc. 128, 69 (2011)
         Al-Ar : Obtained from the ccRepo (grant-hill.group.shef.ac.uk/ccrepo) Feb. 2017
                 D. E. Woon, T. H. Dunning, Jr., J. Chem. Phys. 98, 1358 (1993)
            Ca : Obtained from the Peterson Research Group Website (tyr0.chem.wsu.edu/~kipeters) Feb. 2017
                 J. Koput, K. A. Peterson, J. Phys. Chem. 106, 9595 (2002)
         Sc-Zn : Obtained from the ccRepo (grant-hill.group.shef.ac.uk/ccrepo) Feb. 2017
                 N. B. Balabanov, K. A. Peterson, J. Chem. Phys. 123, 064107 (2005)
                 N. B. Balabanov, K. A. Peterson, J. Chem. Phys. 125, 074110 (2006)
         Ga-Kr : Obtained from the ccRepo (grant-hill.group.shef.ac.uk/ccrepo) Feb. 2017
                 A. K. Wilson, D. E. Woon, K. A. Peterson, T. H. Dunning, Jr., J. Chem. Phys. 110, 7667 (1999)

----- AuxJ basis set information -----
Your calculation utilizes the AutoAux generation procedure.
  G. L. Stoychev, A. A. Auer, F. Neese, J. Chem. Theory Comput. 13, 554 (2017)

----- AuxC basis set information -----
Your calculation utilizes the AutoAux generation procedure.
  G. L. Stoychev, A. A. Auer, F. Neese, J. Chem. Theory Comput. 13, 554 (2017)

----- AuxJK basis set information -----
Your calculation utilizes the AutoAux generation procedure.
  G. L. Stoychev, A. A. Auer, F. Neese, J. Chem. Theory Comput. 13, 554 (2017)

================================================================================
                                        WARNINGS
                       Please study these warnings very carefully!
================================================================================

WARNING: Old DensityContainer found on disk!
         Will remove this file - 
         If you want to keep old densities, please start your calculation with a different basename. 


WARNING: your system is open-shell and RHF/RKS was chosen
  ===> : WILL SWITCH to UHF/UKS


INFO   : the flag for use of the SHARK integral package has been found!

================================================================================
                                       INPUT FILE
================================================================================
NAME = cc-pVDZ.inp
|  1> ! B3LYP cc-pVDZ AUTOAUX
|  2> %pal nprocs 16 end
|  3> *XYZFile 0 2 opt.xyz
|  4> %EPRNMR
|  5>         GTENSOR   TRUE
|  6>         NUCLEI    = ALL H {SHIFT, AISO, ADIP, AORB}
|  7>         ORI       CenterOfElCharge
|  8> END
|  9> 
| 10>                          ****END OF INPUT****
================================================================================

                       ****************************
                       * Single Point Calculation *
                       ****************************

---------------------------------
CARTESIAN COORDINATES (ANGSTROEM)
---------------------------------
  C     -2.631597    0.129889    0.152946
  C      1.575864   -0.218018   -0.504992
  C      0.963822    1.083546   -0.471921
  C     -0.443340    1.138551   -0.248119
  C     -1.220279   -0.005180   -0.065902
  C     -0.611010   -1.294596   -0.103795
  C      0.773999   -1.347005   -0.323995
  H     -0.932113    2.114973   -0.219804
  H      1.262338   -2.323049   -0.360688
  C      1.682287    2.282286   -0.654363
  H      2.755459    2.297223   -0.838416
  H      1.162943    3.241730   -0.622224
  C      3.065834   -0.388546   -0.698656
  H      3.262023   -1.404533   -1.082470
  H      3.432977    0.306369   -1.474054
  C      3.887515   -0.182955    0.591465
  H      3.688811    0.825725    0.993912
  H      3.528649   -0.892624    1.358202
  C      5.390342   -0.369448    0.371431
  H      5.781137    0.351469   -0.367554
  H      5.618742   -1.381978   -0.004350
  C     -1.464202   -2.531527    0.084086
  H     -2.003034   -2.436934    1.045488
  H     -2.265137   -2.516675   -0.678829
  C     -0.750622   -3.885261    0.036886
  H     -0.229468   -4.002281   -0.931186
  H      0.033199   -3.924469    0.815700
  C     -1.711359   -5.064693    0.232430
  H     -2.238010   -4.948281    1.197733
  H     -2.495639   -5.026358   -0.546048
  C     -1.012747   -6.426102    0.189580
  H     -0.246895   -6.508811    0.980041
  H     -0.505961   -6.586065   -0.777902
  C     -3.826626    0.249482    0.342032
  H     -4.879280    0.361416    0.513224
  H      5.954180   -0.226136    1.307646
  H     -1.728336   -7.252292    0.331363

----------------------------
CARTESIAN COORDINATES (A.U.)
----------------------------
  NO LB      ZA    FRAG     MASS         X           Y           Z
   0 C     6.0000    0    12.011   -4.972997    0.245455    0.289025
   1 C     6.0000    0    12.011    2.977951   -0.411995   -0.954296
   2 C     6.0000    0    12.011    1.821360    2.047605   -0.891801
   3 C     6.0000    0    12.011   -0.837792    2.151550   -0.468878
   4 C     6.0000    0    12.011   -2.305994   -0.009789   -0.124537
   5 C     6.0000    0    12.011   -1.154641   -2.446432   -0.196145
   6 C     6.0000    0    12.011    1.462646   -2.545470   -0.612261
   7 H     1.0000    0     1.008   -1.761437    3.996720   -0.415368
   8 H     1.0000    0     1.008    2.385473   -4.389926   -0.681601
   9 C     6.0000    0    12.011    3.179061    4.312895   -1.236567
  10 H     1.0000    0     1.008    5.207062    4.341122   -1.584377
  11 H     1.0000    0     1.008    2.197643    6.125981   -1.175832
  12 C     6.0000    0    12.011    5.793587   -0.734246   -1.320269
  13 H     1.0000    0     1.008    6.164330   -2.654183   -2.045573
  14 H     1.0000    0     1.008    6.487387    0.578953   -2.785559
  15 C     6.0000    0    12.011    7.346338   -0.345736    1.117707
  16 H     1.0000    0     1.008    6.970843    1.560395    1.878222
  17 H     1.0000    0     1.008    6.668180   -1.686814    2.566630
  18 C     6.0000    0    12.011   10.186270   -0.698156    0.701903
  19 H     1.0000    0     1.008   10.924767    0.664181   -0.694576
  20 H     1.0000    0     1.008   10.617884   -2.611559   -0.008220
  21 C     6.0000    0    12.011   -2.766941   -4.783893    0.158899
  22 H     1.0000    0     1.008   -3.785186   -4.605138    1.975686
  23 H     1.0000    0     1.008   -4.280488   -4.755826   -1.282801
  24 C     6.0000    0    12.011   -1.418470   -7.342079    0.069704
  25 H     1.0000    0     1.008   -0.433631   -7.563214   -1.759686
  26 H     1.0000    0     1.008    0.062738   -7.416172    1.541450
  27 C     6.0000    0    12.011   -3.234000   -9.570882    0.439229
  28 H     1.0000    0     1.008   -4.229225   -9.350895    2.263388
  29 H     1.0000    0     1.008   -4.716075   -9.498440   -1.031882
  30 C     6.0000    0    12.011   -1.913814  -12.143574    0.358254
  31 H     1.0000    0     1.008   -0.466565  -12.299870    1.852010
  32 H     1.0000    0     1.008   -0.956128  -12.445860   -1.470022
  33 C     6.0000    0    12.011   -7.231274    0.471453    0.646348
  34 H     1.0000    0     1.008   -9.220504    0.682977    0.969853
  35 H     1.0000    0     1.008   11.251769   -0.427335    2.471093
  36 H     1.0000    0     1.008   -3.266081  -13.704845    0.626186

--------------------------------
INTERNAL COORDINATES (ANGSTROEM)
--------------------------------
 C      0   0   0     0.000000000000     0.00000000     0.00000000
 C      1   0   0     4.272779435977     0.00000000     0.00000000
 C      2   1   0     1.438665364702    60.25611533     0.00000000
 C      3   2   1     1.425909955027   117.27985933     0.03056544
 C      4   3   2     1.394617996884   122.59142877     0.00000000
 C      5   4   3     1.426618075074   119.98942380   359.80738789
 C      2   1   3     1.396552108681    58.69928977   180.20089569
 H      4   3   2     1.092290782554   118.69476616   180.07450551
 H      7   2   1     1.092009065491   117.48005890   179.77496584
 C      3   2   1     1.409415733623   123.34163715   180.34056982
 H     10   3   2     1.088942817265   122.40656763     0.31108613
 H     10   3   2     1.091459767040   120.08473860   179.78721641
 C      2   1   3     1.512150120827   177.66932669   143.65206630
 H     13   2   7     1.103644831562   108.87542942    23.48041639
 H     13   2   7     1.104057719813   110.28123973   139.41768004
 C     13   2   7     1.543320706672   113.73569286   262.26377449
 H     16  13   2     1.104030754152   109.30558255   302.18129664
 H     16  13   2     1.104671644864   108.76417815    57.47544640
 C     16  13   2     1.530256370807   112.73280384   179.63630008
 H     19  16  13     1.103875839750   111.36717896    60.34862434
 H     19  16  13     1.103899331665   111.34143478   300.59408759
 C      6   5   4     1.514343105447   119.62648733   180.48504428
 H     22   6   5     1.106156347871   108.20573503   304.09262205
 H     22   6   5     1.106235176143   108.14286371    56.41421033
 C     22   6   5     1.531019144681   117.11695442   180.17068255
 H     25  22   6     1.105648136158   109.89308124   301.94491832
 H     25  22   6     1.105651246714   109.88026936    58.44334784
 C     25  22   6     1.533725208941   112.58561711   180.24750891
 H     28  25  22     1.105767807906   109.18900891   302.47583204
 H     28  25  22     1.105709478380   109.14051315    57.74857142
 C     28  25  22     1.530794590614   113.23248136   180.07138713
 H     31  28  25     1.103719938677   111.30088794    59.92707409
 H     31  28  25     1.103830607285   111.28105466   300.22757938
 C      1   2   3     1.215792146495   179.01985546   351.11928114
 H     34   1   5     1.072342109159   179.57594182     0.77152932
 H     19  16  13     1.102247628085   111.37006533   180.48184891
 H     31  28  25     1.102161137344   111.51578224   180.08412230

---------------------------
INTERNAL COORDINATES (A.U.)
---------------------------
 C      0   0   0     0.000000000000     0.00000000     0.00000000
 C      1   0   0     8.074382964647     0.00000000     0.00000000
 C      2   1   0     2.718683537644    60.25611533     0.00000000
 C      3   2   1     2.694579306633   117.27985933     0.03056544
 C      4   3   2     2.635446075549   122.59142877     0.00000000
 C      5   4   3     2.695917459592   119.98942380   359.80738789
 C      2   1   3     2.639101017158    58.69928977   180.20089569
 H      4   3   2     2.064130437634   118.69476616   180.07450551
 H      7   2   1     2.063598069537   117.48005890   179.77496584
 C      3   2   1     2.663409745388   123.34163715   180.34056982
 H     10   3   2     2.057803700132   122.40656763     0.31108613
 H     10   3   2     2.062560045900   120.08473860   179.78721641
 C      2   1   3     2.857549601739   177.66932669   143.65206630
 H     13   2   7     2.085586480770   108.87542942    23.48041639
 H     13   2   7     2.086366726488   110.28123973   139.41768004
 C     13   2   7     2.916453472420   113.73569286   262.26377449
 H     16  13   2     2.086315768774   109.30558255   302.18129664
 H     16  13   2     2.087526876701   108.76417815    57.47544640
 C     16  13   2     2.891765455514   112.73280384   179.63630008
 H     19  16  13     2.086023022980   111.36717896    60.34862434
 H     19  16  13     2.086067416266   111.34143478   300.59408759
 C      6   5   4     2.861693742086   119.62648733   180.48504428
 H     22   6   5     2.090332558774   108.20573503   304.09262205
 H     22   6   5     2.090481522620   108.14286371    56.41421033
 C     22   6   5     2.893206889237   117.11695442   180.17068255
 H     25  22   6     2.089372177819   109.89308124   301.94491832
 H     25  22   6     2.089378055919   109.88026936    58.44334784
 C     25  22   6     2.898320609589   112.58561711   180.24750891
 H     28  25  22     2.089598324648   109.18900891   302.47583204
 H     28  25  22     2.089488097819   109.14051315    57.74857142
 C     28  25  22     2.892782543549   113.23248136   180.07138713
 H     31  28  25     2.085728412647   111.30088794    59.92707409
 H     31  28  25     2.085937546008   111.28105466   300.22757938
 C      1   2   3     2.297514192648   179.01985546   351.11928114
 H     34   1   5     2.026432908181   179.57594182     0.77152932
 H     19  16  13     2.082946148845   111.37006533   180.48184891
 H     31  28  25     2.082782705032   111.51578224   180.08412230

---------------------
BASIS SET INFORMATION
---------------------
There are 2 groups of distinct atoms

 Group   1 Type C   : 17s4p1d contracted to 3s2p1d pattern {881/31/1}
 Group   2 Type H   : 4s1p contracted to 2s1p pattern {31/1}

Atom   0C    basis set group =>   1
Atom   1C    basis set group =>   1
Atom   2C    basis set group =>   1
Atom   3C    basis set group =>   1
Atom   4C    basis set group =>   1
Atom   5C    basis set group =>   1
Atom   6C    basis set group =>   1
Atom   7H    basis set group =>   2
Atom   8H    basis set group =>   2
Atom   9C    basis set group =>   1
Atom  10H    basis set group =>   2
Atom  11H    basis set group =>   2
Atom  12C    basis set group =>   1
Atom  13H    basis set group =>   2
Atom  14H    basis set group =>   2
Atom  15C    basis set group =>   1
Atom  16H    basis set group =>   2
Atom  17H    basis set group =>   2
Atom  18C    basis set group =>   1
Atom  19H    basis set group =>   2
Atom  20H    basis set group =>   2
Atom  21C    basis set group =>   1
Atom  22H    basis set group =>   2
Atom  23H    basis set group =>   2
Atom  24C    basis set group =>   1
Atom  25H    basis set group =>   2
Atom  26H    basis set group =>   2
Atom  27C    basis set group =>   1
Atom  28H    basis set group =>   2
Atom  29H    basis set group =>   2
Atom  30C    basis set group =>   1
Atom  31H    basis set group =>   2
Atom  32H    basis set group =>   2
Atom  33C    basis set group =>   1
Atom  34H    basis set group =>   2
Atom  35H    basis set group =>   2
Atom  36H    basis set group =>   2
---------------------------------
AUXILIARY/J BASIS SET INFORMATION
---------------------------------
There are 2 groups of distinct atoms

 Group   1 Type C   : 14s11p10d2f contracted to 14s11p10d2f pattern {11111111111111/11111111111/1111111111/11}
 Group   2 Type H   : 9s2p1d contracted to 9s2p1d pattern {111111111/11/1}

Atom   0C    basis set group =>   1
Atom   1C    basis set group =>   1
Atom   2C    basis set group =>   1
Atom   3C    basis set group =>   1
Atom   4C    basis set group =>   1
Atom   5C    basis set group =>   1
Atom   6C    basis set group =>   1
Atom   7H    basis set group =>   2
Atom   8H    basis set group =>   2
Atom   9C    basis set group =>   1
Atom  10H    basis set group =>   2
Atom  11H    basis set group =>   2
Atom  12C    basis set group =>   1
Atom  13H    basis set group =>   2
Atom  14H    basis set group =>   2
Atom  15C    basis set group =>   1
Atom  16H    basis set group =>   2
Atom  17H    basis set group =>   2
Atom  18C    basis set group =>   1
Atom  19H    basis set group =>   2
Atom  20H    basis set group =>   2
Atom  21C    basis set group =>   1
Atom  22H    basis set group =>   2
Atom  23H    basis set group =>   2
Atom  24C    basis set group =>   1
Atom  25H    basis set group =>   2
Atom  26H    basis set group =>   2
Atom  27C    basis set group =>   1
Atom  28H    basis set group =>   2
Atom  29H    basis set group =>   2
Atom  30C    basis set group =>   1
Atom  31H    basis set group =>   2
Atom  32H    basis set group =>   2
Atom  33C    basis set group =>   1
Atom  34H    basis set group =>   2
Atom  35H    basis set group =>   2
Atom  36H    basis set group =>   2
---------------------------------
AUXILIARY/C BASIS SET INFORMATION
---------------------------------
There are 2 groups of distinct atoms

 Group   1 Type C   : 14s11p10d2f contracted to 14s11p10d2f pattern {11111111111111/11111111111/1111111111/11}
 Group   2 Type H   : 9s2p1d contracted to 9s2p1d pattern {111111111/11/1}

Atom   0C    basis set group =>   1
Atom   1C    basis set group =>   1
Atom   2C    basis set group =>   1
Atom   3C    basis set group =>   1
Atom   4C    basis set group =>   1
Atom   5C    basis set group =>   1
Atom   6C    basis set group =>   1
Atom   7H    basis set group =>   2
Atom   8H    basis set group =>   2
Atom   9C    basis set group =>   1
Atom  10H    basis set group =>   2
Atom  11H    basis set group =>   2
Atom  12C    basis set group =>   1
Atom  13H    basis set group =>   2
Atom  14H    basis set group =>   2
Atom  15C    basis set group =>   1
Atom  16H    basis set group =>   2
Atom  17H    basis set group =>   2
Atom  18C    basis set group =>   1
Atom  19H    basis set group =>   2
Atom  20H    basis set group =>   2
Atom  21C    basis set group =>   1
Atom  22H    basis set group =>   2
Atom  23H    basis set group =>   2
Atom  24C    basis set group =>   1
Atom  25H    basis set group =>   2
Atom  26H    basis set group =>   2
Atom  27C    basis set group =>   1
Atom  28H    basis set group =>   2
Atom  29H    basis set group =>   2
Atom  30C    basis set group =>   1
Atom  31H    basis set group =>   2
Atom  32H    basis set group =>   2
Atom  33C    basis set group =>   1
Atom  34H    basis set group =>   2
Atom  35H    basis set group =>   2
Atom  36H    basis set group =>   2
----------------------------------
AUXILIARY/JK BASIS SET INFORMATION
----------------------------------
There are 2 groups of distinct atoms

 Group   1 Type C   : 14s11p10d2f contracted to 14s11p10d2f pattern {11111111111111/11111111111/1111111111/11}
 Group   2 Type H   : 9s2p1d contracted to 9s2p1d pattern {111111111/11/1}

Atom   0C    basis set group =>   1
Atom   1C    basis set group =>   1
Atom   2C    basis set group =>   1
Atom   3C    basis set group =>   1
Atom   4C    basis set group =>   1
Atom   5C    basis set group =>   1
Atom   6C    basis set group =>   1
Atom   7H    basis set group =>   2
Atom   8H    basis set group =>   2
Atom   9C    basis set group =>   1
Atom  10H    basis set group =>   2
Atom  11H    basis set group =>   2
Atom  12C    basis set group =>   1
Atom  13H    basis set group =>   2
Atom  14H    basis set group =>   2
Atom  15C    basis set group =>   1
Atom  16H    basis set group =>   2
Atom  17H    basis set group =>   2
Atom  18C    basis set group =>   1
Atom  19H    basis set group =>   2
Atom  20H    basis set group =>   2
Atom  21C    basis set group =>   1
Atom  22H    basis set group =>   2
Atom  23H    basis set group =>   2
Atom  24C    basis set group =>   1
Atom  25H    basis set group =>   2
Atom  26H    basis set group =>   2
Atom  27C    basis set group =>   1
Atom  28H    basis set group =>   2
Atom  29H    basis set group =>   2
Atom  30C    basis set group =>   1
Atom  31H    basis set group =>   2
Atom  32H    basis set group =>   2
Atom  33C    basis set group =>   1
Atom  34H    basis set group =>   2
Atom  35H    basis set group =>   2
Atom  36H    basis set group =>   2

Checking for AutoStart:
The File: cc-pVDZ.gbw exists
Trying to determine its content:
     ... Fine, the file contains calculation information
     ... Fine, the calculation information was read
     ... Fine, the file contains a basis set
     ... Fine, the basis set was read
     ... Fine, the file contains a geometry
     ... Fine, the geometry was read
     ... Fine, the file contains a set of orbitals
     ... Fine, the orbitals can be read
     => possible old guess file was deleted
     => GBW file was renamed to GES file
     => GES file is set as startup file
     => Guess is set to MORead
     ... now leaving AutoStart



           ************************************************************
           *        Program running with 16 parallel MPI-processes    *
           *              working on a common directory               *
           ************************************************************
------------------------------------------------------------------------------
                           ORCA GTO INTEGRAL CALCULATION
                           -- RI-GTO INTEGRALS CHOSEN --
------------------------------------------------------------------------------
------------------------------------------------------------------------------
                   ___                                                        
                  /   \      - P O W E R E D   B Y -                         
                 /     \                                                     
                 |  |  |   _    _      __       _____    __    __             
                 |  |  |  | |  | |    /  \     |  _  \  |  |  /  |          
                  \  \/   | |  | |   /    \    | | | |  |  | /  /          
                 / \  \   | |__| |  /  /\  \   | |_| |  |  |/  /          
                |  |  |   |  __  | /  /__\  \  |    /   |      \           
                |  |  |   | |  | | |   __   |  |    \   |  |\   \          
                \     /   | |  | | |  |  |  |  | |\  \  |  | \   \       
                 \___/    |_|  |_| |__|  |__|  |_| \__\ |__|  \__/        
                                                                              
                      - O R C A' S   B I G   F R I E N D -                    
                                      &                                       
                       - I N T E G R A L  F E E D E R -                       
                                                                              
 v1 FN, 2020, v2 2021                                                         
------------------------------------------------------------------------------


Reading SHARK input file cc-pVDZ.SHARKINP.tmp ... ok
----------------------
SHARK INTEGRAL PACKAGE
----------------------

Number of atoms                             ...     37
Number of basis functions                   ...    425
Number of shells                            ...    255
Maximum angular momentum                    ...      2
Integral batch strategy                     ... SHARK/LIBINT Hybrid
RI-J (if used) integral strategy            ... SPLIT-RIJ (Revised 2003 algorithm where possible)
Printlevel                                  ...      1
Contraction scheme used                     ... PARTIAL GENERAL contraction
Coulomb Range Separation                    ... NOT USED
Exchange Range Separation                   ... NOT USED
Finite Nucleus Model                        ... NOT USED
Auxiliary Coulomb fitting basis             ... AVAILABLE
   # of basis functions in Aux-J            ...   2196
   # of shells in Aux-J                     ...    844
   Maximum angular momentum in Aux-J        ...      3
Auxiliary J/K fitting basis                 ... AVAILABLE
   # of basis functions in Aux-JK           ...   2196
   # of shells in Aux-JK                    ...    844
   Maximum angular momentum in Aux-JK       ...      3
Auxiliary Correlation fitting basis         ... AVAILABLE
   # of basis functions in Aux-C            ...   2196
   # of shells in Aux-C                     ...    844
   Maximum angular momentum in Aux-C        ...      3
Auxiliary 'external' fitting basis          ... NOT available
Integral threshold                          ...     1.000000e-10
Primitive cut-off                           ...     1.000000e-11
Primitive pair pre-selection threshold      ...     1.000000e-11

Calculating pre-screening integrals         ... done (  0.0 sec) Dimension = 255
Calculating pre-screening integrals (ORCA)  ... done (  0.1 sec) Dimension = 159
Organizing shell pair data                  ... done (  0.1 sec)
Shell pair information
Total number of shell pairs                 ...     32640
Shell pairs after pre-screening             ...     17485
Total number of primitive shell pairs       ...     54396
Primitive shell pairs kept                  ...     24322
          la=0 lb=0:   7830 shell pairs
          la=1 lb=0:   6081 shell pairs
          la=1 lb=1:   1063 shell pairs
          la=2 lb=0:   1790 shell pairs
          la=2 lb=1:    619 shell pairs
          la=2 lb=2:    102 shell pairs

Calculating one electron integrals          ... done (  0.0 sec)
Calculating RI/J V-Matrix + Cholesky decomp.... done (  0.4 sec)
Calculating RI/JK V-Matrix + Cholesky decomp... done (  0.3 sec)
Calculating RI/C V-Matrix + Cholesky decomp.... done (  0.3 sec)
Calculating Nuclear repulsion               ... done (  0.0 sec) ENN=   1004.377141573651 Eh

SHARK setup successfully completed in   1.8 seconds

Maximum memory used throughout the entire GTOINT-calculation: 26.9 MB


           ************************************************************
           *        Program running with 16 parallel MPI-processes    *
           *              working on a common directory               *
           ************************************************************
-------------------------------------------------------------------------------
                                 ORCA SCF
-------------------------------------------------------------------------------

------------
SCF SETTINGS
------------
Hamiltonian:
 Density Functional     Method          .... DFT(GTOs)
 Exchange Functional    Exchange        .... B88
   X-Alpha parameter    XAlpha          ....  0.666667
   Becke's b parameter  XBeta           ....  0.004200
 Correlation Functional Correlation     .... LYP
 LDA part of GGA corr.  LDAOpt          .... VWN-5
 Gradients option       PostSCFGGA      .... off
 Hybrid DFT is turned on
   Fraction HF Exchange ScalHFX         ....  0.200000
   Scaling of DF-GGA-X  ScalDFX         ....  0.720000
   Scaling of DF-GGA-C  ScalDFC         ....  0.810000
   Scaling of DF-LDA-C  ScalLDAC        ....  1.000000
   Perturbative correction              ....  0.000000
   Density functional embedding theory  .... OFF
   NL short-range parameter             ....  4.800000
 RI-approximation to the Coulomb term is turned on
   Number of AuxJ basis functions       .... 2196
   RIJ-COSX (HFX calculated with COS-X)).... on


General Settings:
 Integral files         IntName         .... cc-pVDZ
 Hartree-Fock type      HFTyp           .... UHF
 Total Charge           Charge          ....    0
 Multiplicity           Mult            ....    2
 Number of Electrons    NEL             ....  117
 Basis Dimension        Dim             ....  329
 Nuclear Repulsion      ENuc            ....   1004.3771415737 Eh

Convergence Acceleration:
 DIIS                   CNVDIIS         .... on
   Start iteration      DIISMaxIt       ....    12
   Startup error        DIISStart       ....  0.200000
   # of expansion vecs  DIISMaxEq       ....     5
   Bias factor          DIISBfac        ....   1.050
   Max. coefficient     DIISMaxC        ....  10.000
 Trust-Rad. Augm. Hess. CNVTRAH         .... auto
   Auto Start mean grad. ratio tolernc. ....  1.125000
   Auto Start start iteration           ....     1
   Auto Start num. interpolation iter.  ....    10
   Max. Number of Micro iterations      ....    16
   Max. Number of Macro iterations      .... Maxiter - #DIIS iter
   Number of Davidson start vectors     ....     2
   Converg. threshold I  (grad. norm)   ....   5.000e-05
   Converg. threshold II (energy diff.) ....   1.000e-06
   Grad. Scal. Fac. for Micro threshold ....   0.100
   Minimum threshold for Micro iter.    ....   0.010
   NR start threshold (gradient norm)   ....   0.001
   Initial trust radius                 ....   0.400
   Minimum AH scaling param. (alpha)    ....   1.000
   Maximum AH scaling param. (alpha)    .... 1000.000
   Orbital update algorithm             .... Taylor
   White noise on init. David. guess    .... on
   Maximum white noise                  ....   0.010
   Quad. conv. algorithm                .... NR
 SOSCF                  CNVSOSCF        .... off
 Level Shifting         CNVShift        .... on
   Level shift para.    LevelShift      ....    0.2500
   Turn off err/grad.   ShiftErr        ....    0.0010
 Zerner damping         CNVZerner       .... off
 Static damping         CNVDamp         .... on
   Fraction old density DampFac         ....    0.7000
   Max. Damping (<1)    DampMax         ....    0.9800
   Min. Damping (>=0)   DampMin         ....    0.0000
   Turn off err/grad.   DampErr         ....    0.1000
 Fernandez-Rico         CNVRico         .... off

SCF Procedure:
 Maximum # iterations   MaxIter         ....   125
 SCF integral mode      SCFMode         .... Direct
   Integral package                     .... SHARK and LIBINT hybrid scheme
 Reset frequency        DirectResetFreq ....    20
 Integral Threshold     Thresh          ....  1.000e-10 Eh
 Primitive CutOff       TCut            ....  1.000e-11 Eh

Convergence Tolerance:
 Convergence Check Mode ConvCheckMode   .... Total+1el-Energy
 Convergence forced     ConvForced      .... 0
 Energy Change          TolE            ....  1.000e-06 Eh
 1-El. energy change                    ....  1.000e-03 Eh
 DIIS Error             TolErr          ....  1.000e-06


Diagonalization of the overlap matrix:
Smallest eigenvalue                        ... 1.518e-04
Time for diagonalization                   ...    0.100 sec
Threshold for overlap eigenvalues          ... 1.000e-08
Number of eigenvalues below threshold      ... 0
Time for construction of square roots      ...    0.032 sec
Total time needed                          ...    0.133 sec

---------------------
INITIAL GUESS: MOREAD
---------------------
Guess MOs are being read from file: cc-pVDZ.ges
Input Geometry matches current geometry (good)
Input basis set matches current basis set (good)
MOs were renormalized
MOs were reorthogonalized (Cholesky)
                      ------------------
                      INITIAL GUESS DONE (   0.1 sec)
                      ------------------
-------------------
DFT GRID GENERATION
-------------------

General Integration Accuracy     IntAcc      ... 4.388
Radial Grid Type                 RadialGrid  ... OptM3 with GC (2021)
Angular Grid (max. ang.)         AngularGrid ... 4 (Lebedev-302)
Angular grid pruning method      GridPruning ... 4 (adaptive)
Weight generation scheme         WeightScheme... Becke
Basis function cutoff            BFCut       ... 1.0000e-10
Integration weight cutoff        WCut        ... 1.0000e-14
Angular grids for H and He will be reduced by one unit
Partially contracted basis set               ... off
Rotationally invariant grid construction     ... off

Total number of grid points                  ...   162627
Total number of batches                      ...     2559
Average number of points per batch           ...       63
Average number of grid points per atom       ...     4395
Time for grid setup =    0.911 sec

--------------------
COSX GRID GENERATION
--------------------

GRIDX 1
-------
General Integration Accuracy     IntAcc      ... 3.816
Radial Grid Type                 RadialGrid  ... OptM3 with GC (2021)
Angular Grid (max. ang.)         AngularGrid ... 1 (Lebedev-50)
Angular grid pruning method      GridPruning ... 4 (adaptive)
Weight generation scheme         WeightScheme... Becke
Basis function cutoff            BFCut       ... 1.0000e-10
Integration weight cutoff        WCut        ... 1.0000e-14
Angular grids for H and He will be reduced by one unit
Partially contracted basis set               ... on
Rotationally invariant grid construction     ... off

Total number of grid points                  ...    20774
Total number of batches                      ...      346
Average number of points per batch           ...       60
Average number of grid points per atom       ...      561
UseSFitting                                  ... on

GRIDX 2
-------
General Integration Accuracy     IntAcc      ... 4.020
Radial Grid Type                 RadialGrid  ... OptM3 with GC (2021)
Angular Grid (max. ang.)         AngularGrid ... 2 (Lebedev-110)
Angular grid pruning method      GridPruning ... 4 (adaptive)
Weight generation scheme         WeightScheme... Becke
Basis function cutoff            BFCut       ... 1.0000e-10
Integration weight cutoff        WCut        ... 1.0000e-14
Angular grids for H and He will be reduced by one unit
Partially contracted basis set               ... on
Rotationally invariant grid construction     ... off

Total number of grid points                  ...    43752
Total number of batches                      ...      701
Average number of points per batch           ...       62
Average number of grid points per atom       ...     1182
UseSFitting                                  ... on

GRIDX 3
-------
General Integration Accuracy     IntAcc      ... 4.338
Radial Grid Type                 RadialGrid  ... OptM3 with GC (2021)
Angular Grid (max. ang.)         AngularGrid ... 3 (Lebedev-194)
Angular grid pruning method      GridPruning ... 4 (adaptive)
Weight generation scheme         WeightScheme... Becke
Basis function cutoff            BFCut       ... 1.0000e-10
Integration weight cutoff        WCut        ... 1.0000e-14
Angular grids for H and He will be reduced by one unit
Partially contracted basis set               ... on
Rotationally invariant grid construction     ... off

Total number of grid points                  ...    95333
Total number of batches                      ...     1508
Average number of points per batch           ...       63
Average number of grid points per atom       ...     2577
UseSFitting                                  ... on

Time for X-Grid setup             =    1.534 sec

 re-compute Schwartz prescreening matrix in partically contracted basis (1) ...done (   0.413 sec)
--------------
SCF ITERATIONS
--------------
ITER       Energy         Delta-E        Max-DP      RMS-DP      [F,P]     Damp
               ***  Starting incremental Fock matrix formation  ***
  0   -621.8575542955   0.000000000000 0.00000446  0.00000005  0.0000124 0.7000
                 **** Energy Check signals convergence ****

               *****************************************************
               *                     SUCCESS                       *
               *           SCF CONVERGED AFTER   1 CYCLES          *
               *****************************************************

Old exchange energy                            =    -18.068802366 Eh
New exchange energy                            =    -18.068790609 Eh
Exchange energy change after final integration =      0.000011757 Eh
Total energy after final integration           =   -621.857542479 Eh
Final COS-X integration done in                =     4.115 sec

----------------
TOTAL SCF ENERGY
----------------

Total Energy       :         -621.85754248 Eh          -16921.60401 eV

Components:
Nuclear Repulsion  :         1004.37714157 Eh           27330.49148 eV
Electronic Energy  :        -1626.23468405 Eh          -44252.09549 eV
One Electron Energy:        -2830.86936783 Eh          -77031.87172 eV
Two Electron Energy:         1204.63468377 Eh           32779.77624 eV
Max COSX asymmetry :            0.00000054 Eh               0.00001 eV

Virial components:
Potential Energy   :        -1239.23269170 Eh          -33721.23590 eV
Kinetic Energy     :          617.37514922 Eh           16799.63189 eV
Virial Ratio       :            2.00726040


DFT components:
N(Alpha)           :       59.000019402445 electrons
N(Beta)            :       58.000014010438 electrons
N(Total)           :      117.000033412883 electrons
E(X)               :      -71.620536687859 Eh       
E(C)               :       -4.508335218302 Eh       
E(XC)              :      -76.128871906161 Eh       
DFET-embed. en.    :        0.000000000000 Eh       

---------------
SCF CONVERGENCE
---------------

  Last Energy change         ...    5.9858e-08  Tolerance :   1.0000e-06
  Last MAX-Density change    ...    1.2357e-06  Tolerance :   1.0000e-05
  Last RMS-Density change    ...    1.8211e-08  Tolerance :   1.0000e-06
  Last DIIS Error            ...    9.3650e-06  Tolerance :   1.0000e-06

             **** THE GBW FILE WAS UPDATED (cc-pVDZ.gbw) ****
             **** DENSITY cc-pVDZ.scfp WAS UPDATED ****
             **** ENERGY FILE WAS UPDATED (cc-pVDZ.en.tmp) ****
----------------------
UHF SPIN CONTAMINATION
----------------------

Warning: in a DFT calculation there is little theoretical justification to 
         calculate <S**2> as in Hartree-Fock theory. We will do it anyways
         but you should keep in mind that the values have only limited relevance

Expectation value of <S**2>     :     0.785726
Ideal value S*(S+1) for S=0.5   :     0.750000
Deviation                       :     0.035726

             **** THE GBW FILE WAS UPDATED (cc-pVDZ.gbw) ****
             **** DENSITY cc-pVDZ.scfp WAS UPDATED ****
----------------
ORBITAL ENERGIES
----------------
                 SPIN UP ORBITALS
  NO   OCC          E(Eh)            E(eV) 
   0   1.0000     -10.206339      -277.7286 
   1   1.0000     -10.201064      -277.5851 
   2   1.0000     -10.197170      -277.4791 
   3   1.0000     -10.195347      -277.4295 
   4   1.0000     -10.192922      -277.3635 
   5   1.0000     -10.189994      -277.2838 
   6   1.0000     -10.188507      -277.2434 
   7   1.0000     -10.186254      -277.1821 
   8   1.0000     -10.185460      -277.1605 
   9   1.0000     -10.184228      -277.1269 
  10   1.0000     -10.182726      -277.0861 
  11   1.0000     -10.182423      -277.0778 
  12   1.0000     -10.181718      -277.0586 
  13   1.0000     -10.181530      -277.0535 
  14   1.0000     -10.177829      -276.9528 
  15   1.0000     -10.175927      -276.9011 
  16   1.0000      -0.869090       -23.6491 
  17   1.0000      -0.814418       -22.1614 
  18   1.0000      -0.797034       -21.6884 
  19   1.0000      -0.776522       -21.1302 
  20   1.0000      -0.764103       -20.7923 
  21   1.0000      -0.731959       -19.9176 
  22   1.0000      -0.723696       -19.6928 
  23   1.0000      -0.684533       -18.6271 
  24   1.0000      -0.669485       -18.2176 
  25   1.0000      -0.624255       -16.9869 
  26   1.0000      -0.611206       -16.6318 
  27   1.0000      -0.591186       -16.0870 
  28   1.0000      -0.576242       -15.6803 
  29   1.0000      -0.564736       -15.3673 
  30   1.0000      -0.524708       -14.2780 
  31   1.0000      -0.492857       -13.4113 
  32   1.0000      -0.489565       -13.3217 
  33   1.0000      -0.470230       -12.7956 
  34   1.0000      -0.457462       -12.4482 
  35   1.0000      -0.447710       -12.1828 
  36   1.0000      -0.427975       -11.6458 
  37   1.0000      -0.421694       -11.4749 
  38   1.0000      -0.421057       -11.4576 
  39   1.0000      -0.418224       -11.3805 
  40   1.0000      -0.411338       -11.1931 
  41   1.0000      -0.399751       -10.8778 
  42   1.0000      -0.387023       -10.5314 
  43   1.0000      -0.379784       -10.3344 
  44   1.0000      -0.374485       -10.1903 
  45   1.0000      -0.367097        -9.9892 
  46   1.0000      -0.351875        -9.5750 
  47   1.0000      -0.350826        -9.5465 
  48   1.0000      -0.339304        -9.2329 
  49   1.0000      -0.335091        -9.1183 
  50   1.0000      -0.328370        -8.9354 
  51   1.0000      -0.323371        -8.7994 
  52   1.0000      -0.322504        -8.7758 
  53   1.0000      -0.321109        -8.7378 
  54   1.0000      -0.305898        -8.3239 
  55   1.0000      -0.275859        -7.5065 
  56   1.0000      -0.272008        -7.4017 
  57   1.0000      -0.233063        -6.3420 
  58   1.0000      -0.177587        -4.8324 
  59   0.0000      -0.030414        -0.8276 
  60   0.0000       0.011715         0.3188 
  61   0.0000       0.047299         1.2871 
  62   0.0000       0.058679         1.5967 
  63   0.0000       0.063092         1.7168 
  64   0.0000       0.078522         2.1367 
  65   0.0000       0.085808         2.3349 
  66   0.0000       0.087906         2.3920 
  67   0.0000       0.088921         2.4197 
  68   0.0000       0.094365         2.5678 
  69   0.0000       0.099279         2.7015 
  70   0.0000       0.102213         2.7814 
  71   0.0000       0.108328         2.9477 
  72   0.0000       0.116997         3.1836 
  73   0.0000       0.133054         3.6206 
  74   0.0000       0.141258         3.8438 
  75   0.0000       0.144652         3.9362 
  76   0.0000       0.147955         4.0261 
  77   0.0000       0.150015         4.0821 
  78   0.0000       0.152734         4.1561 
  79   0.0000       0.161236         4.3875 
  80   0.0000       0.164349         4.4722 
  81   0.0000       0.166112         4.5201 
  82   0.0000       0.175301         4.7702 
  83   0.0000       0.185954         5.0601 
  84   0.0000       0.190331         5.1792 
  85   0.0000       0.211395         5.7524 
  86   0.0000       0.214795         5.8449 
  87   0.0000       0.230209         6.2643 
  88   0.0000       0.238560         6.4915 
  89   0.0000       0.247568         6.7367 
  90   0.0000       0.250401         6.8138 
  91   0.0000       0.260919         7.1000 
  92   0.0000       0.268455         7.3050 
  93   0.0000       0.297658         8.0997 
  94   0.0000       0.330799         9.0015 
  95   0.0000       0.331739         9.0271 
  96   0.0000       0.348655         9.4874 
  97   0.0000       0.358510         9.7556 
  98   0.0000       0.368788        10.0352 
  99   0.0000       0.406314        11.0564 
 100   0.0000       0.409380        11.1398 
 101   0.0000       0.412339        11.2203 
 102   0.0000       0.415921        11.3178 
 103   0.0000       0.419505        11.4153 
 104   0.0000       0.427621        11.6362 
 105   0.0000       0.437782        11.9126 
 106   0.0000       0.452728        12.3194 
 107   0.0000       0.458797        12.4845 
 108   0.0000       0.465633        12.6705 
 109   0.0000       0.473405        12.8820 
 110   0.0000       0.476788        12.9741 
 111   0.0000       0.484522        13.1845 
 112   0.0000       0.491211        13.3665 
 113   0.0000       0.501622        13.6498 
 114   0.0000       0.505563        13.7571 
 115   0.0000       0.514068        13.9885 
 116   0.0000       0.517319        14.0770 
 117   0.0000       0.534125        14.5343 
 118   0.0000       0.536688        14.6040 
 119   0.0000       0.545050        14.8316 
 120   0.0000       0.552608        15.0372 
 121   0.0000       0.564988        15.3741 
 122   0.0000       0.569599        15.4996 
 123   0.0000       0.580420        15.7940 
 124   0.0000       0.599528        16.3140 
 125   0.0000       0.607203        16.5228 
 126   0.0000       0.612558        16.6686 
 127   0.0000       0.615797        16.7567 
 128   0.0000       0.616894        16.7865 
 129   0.0000       0.627151        17.0656 
 130   0.0000       0.635002        17.2793 
 131   0.0000       0.637923        17.3588 
 132   0.0000       0.641795        17.4641 
 133   0.0000       0.643797        17.5186 
 134   0.0000       0.645301        17.5595 
 135   0.0000       0.651013        17.7150 
 136   0.0000       0.657380        17.8882 
 137   0.0000       0.658122        17.9084 
 138   0.0000       0.661956        18.0127 
 139   0.0000       0.664061        18.0700 
 140   0.0000       0.671927        18.2841 
 141   0.0000       0.679904        18.5011 
 142   0.0000       0.682105        18.5610 
 143   0.0000       0.686260        18.6741 
 144   0.0000       0.695085        18.9142 
 145   0.0000       0.699624        19.0377 
 146   0.0000       0.703656        19.1474 
 147   0.0000       0.708477        19.2787 
 148   0.0000       0.711911        19.3721 
 149   0.0000       0.714911        19.4537 
 150   0.0000       0.729423        19.8486 
 151   0.0000       0.733317        19.9546 
 152   0.0000       0.743208        20.2237 
 153   0.0000       0.748500        20.3677 
 154   0.0000       0.760657        20.6985 
 155   0.0000       0.772936        21.0327 
 156   0.0000       0.796674        21.6786 
 157   0.0000       0.799511        21.7558 
 158   0.0000       0.818126        22.2623 
 159   0.0000       0.833247        22.6738 
 160   0.0000       0.836424        22.7603 
 161   0.0000       0.837974        22.8024 
 162   0.0000       0.844902        22.9910 
 163   0.0000       0.872731        23.7482 
 164   0.0000       0.891928        24.2706 
 165   0.0000       0.903215        24.5777 
 166   0.0000       0.913289        24.8519 
 167   0.0000       0.935430        25.4543 
 168   0.0000       0.956604        26.0305 
 169   0.0000       0.963322        26.2133 
 170   0.0000       0.979993        26.6670 
 171   0.0000       0.987438        26.8696 
 172   0.0000       1.002395        27.2765 
 173   0.0000       1.012912        27.5627 
 174   0.0000       1.022554        27.8251 
 175   0.0000       1.034494        28.1500 
 176   0.0000       1.045507        28.4497 
 177   0.0000       1.064152        28.9570 
 178   0.0000       1.069922        29.1141 
 179   0.0000       1.081050        29.4169 
 180   0.0000       1.083500        29.4835 
 181   0.0000       1.106330        30.1048 
 182   0.0000       1.124141        30.5894 
 183   0.0000       1.147536        31.2260 
 184   0.0000       1.160777        31.5863 
 185   0.0000       1.180698        32.1284 
 186   0.0000       1.188722        32.3468 
 187   0.0000       1.193481        32.4763 
 188   0.0000       1.204771        32.7835 
 189   0.0000       1.215523        33.0761 
 190   0.0000       1.220157        33.2022 
 191   0.0000       1.223670        33.2978 
 192   0.0000       1.247035        33.9335 
 193   0.0000       1.252184        34.0736 
 194   0.0000       1.291887        35.1540 
 195   0.0000       1.301851        35.4252 
 196   0.0000       1.323107        36.0036 
 197   0.0000       1.332265        36.2528 
 198   0.0000       1.338744        36.4291 
 199   0.0000       1.344503        36.5858 
 200   0.0000       1.371309        37.3152 
 201   0.0000       1.392282        37.8859 
 202   0.0000       1.396448        37.9993 
 203   0.0000       1.412222        38.4285 
 204   0.0000       1.416286        38.5391 
 205   0.0000       1.425187        38.7813 
 206   0.0000       1.426163        38.8079 
 207   0.0000       1.431891        38.9637 
 208   0.0000       1.438302        39.1382 
 209   0.0000       1.448039        39.4032 
 210   0.0000       1.460068        39.7305 
 211   0.0000       1.463084        39.8125 
 212   0.0000       1.470851        40.0239 
 213   0.0000       1.488050        40.4919 
 214   0.0000       1.498216        40.7685 
 215   0.0000       1.521654        41.4063 
 216   0.0000       1.534595        41.7585 
 217   0.0000       1.542498        41.9735 
 218   0.0000       1.552069        42.2339 
 219   0.0000       1.563265        42.5386 
 220   0.0000       1.578474        42.9525 
 221   0.0000       1.600719        43.5578 
 222   0.0000       1.601366        43.5754 
 223   0.0000       1.606422        43.7130 
 224   0.0000       1.610911        43.8351 
 225   0.0000       1.622483        44.1500 
 226   0.0000       1.624941        44.2169 
 227   0.0000       1.630221        44.3606 
 228   0.0000       1.631657        44.3997 
 229   0.0000       1.635828        44.5131 
 230   0.0000       1.636750        44.5382 
 231   0.0000       1.645474        44.7756 
 232   0.0000       1.653897        45.0048 
 233   0.0000       1.657786        45.1107 
 234   0.0000       1.667055        45.3629 
 235   0.0000       1.674036        45.5528 
 236   0.0000       1.682338        45.7787 
 237   0.0000       1.687640        45.9230 
 238   0.0000       1.691135        46.0181 
 239   0.0000       1.696214        46.1563 
 240   0.0000       1.703335        46.3501 
 241   0.0000       1.705130        46.3989 
 242   0.0000       1.709048        46.5056 
 243   0.0000       1.717063        46.7237 
 244   0.0000       1.722098        46.8607 
 245   0.0000       1.731570        47.1184 
 246   0.0000       1.741871        47.3987 
 247   0.0000       1.745160        47.4882 
 248   0.0000       1.754779        47.7500 
 249   0.0000       1.765836        48.0508 
 250   0.0000       1.774736        48.2930 
 251   0.0000       1.782623        48.5076 
 252   0.0000       1.795625        48.8614 
 253   0.0000       1.808390        49.2088 
 254   0.0000       1.818364        49.4802 
 255   0.0000       1.833542        49.8932 
 256   0.0000       1.841159        50.1005 
 257   0.0000       1.845081        50.2072 
 258   0.0000       1.861553        50.6554 
 259   0.0000       1.875312        51.0298 
 260   0.0000       1.882513        51.2258 
 261   0.0000       1.904695        51.8294 
 262   0.0000       1.908765        51.9401 
 263   0.0000       1.915251        52.1166 
 264   0.0000       1.923210        52.3332 
 265   0.0000       1.932423        52.5839 
 266   0.0000       1.945632        52.9433 
 267   0.0000       1.961866        53.3851 
 268   0.0000       1.973568        53.7035 
 269   0.0000       1.991674        54.1962 
 270   0.0000       2.013492        54.7899 
 271   0.0000       2.019730        54.9597 
 272   0.0000       2.031826        55.2888 
 273   0.0000       2.043457        55.6053 
 274   0.0000       2.062339        56.1191 
 275   0.0000       2.070690        56.3463 
 276   0.0000       2.085530        56.7501 
 277   0.0000       2.095737        57.0279 
 278   0.0000       2.108529        57.3760 
 279   0.0000       2.113589        57.5137 
 280   0.0000       2.133464        58.0545 
 281   0.0000       2.155977        58.6671 
 282   0.0000       2.182966        59.4015 
 283   0.0000       2.189623        59.5827 
 284   0.0000       2.195548        59.7439 
 285   0.0000       2.203308        59.9550 
 286   0.0000       2.212992        60.2186 
 287   0.0000       2.219968        60.4084 
 288   0.0000       2.242821        61.0303 
 289   0.0000       2.253289        61.3151 
 290   0.0000       2.261544        61.5397 
 291   0.0000       2.275173        61.9106 
 292   0.0000       2.285642        62.1955 
 293   0.0000       2.291720        62.3609 
 294   0.0000       2.299176        62.5638 
 295   0.0000       2.306403        62.7604 
 296   0.0000       2.314729        62.9870 
 297   0.0000       2.321497        63.1712 
 298   0.0000       2.341795        63.7235 
 299   0.0000       2.362309        64.2817 
 300   0.0000       2.403481        65.4020 
 301   0.0000       2.411144        65.6106 
 302   0.0000       2.411563        65.6220 
 303   0.0000       2.417134        65.7736 
 304   0.0000       2.425131        65.9912 
 305   0.0000       2.463040        67.0227 
 306   0.0000       2.469860        67.2083 
 307   0.0000       2.480424        67.4958 
 308   0.0000       2.487292        67.6827 
 309   0.0000       2.508839        68.2690 
 310   0.0000       2.534783        68.9749 
 311   0.0000       2.543572        69.2141 
 312   0.0000       2.555828        69.5476 
 313   0.0000       2.584858        70.3376 
 314   0.0000       2.604150        70.8625 
 315   0.0000       2.611539        71.0636 
 316   0.0000       2.616670        71.2032 
 317   0.0000       2.673444        72.7481 
 318   0.0000       2.687186        73.1221 
 319   0.0000       2.715330        73.8879 
 320   0.0000       2.722579        74.0851 
 321   0.0000       2.777275        75.5735 
 322   0.0000       2.784395        75.7672 
 323   0.0000       2.810955        76.4900 
 324   0.0000       2.865783        77.9819 
 325   0.0000       2.918812        79.4249 
 326   0.0000       3.008255        81.8588 
 327   0.0000       3.193288        86.8938 
 328   0.0000       3.358935        91.4013 

                 SPIN DOWN ORBITALS
  NO   OCC          E(Eh)            E(eV) 
   0   1.0000     -10.207980      -277.7733 
   1   1.0000     -10.197871      -277.4982 
   2   1.0000     -10.197246      -277.4812 
   3   1.0000     -10.193540      -277.3803 
   4   1.0000     -10.189547      -277.2717 
   5   1.0000     -10.188105      -277.2324 
   6   1.0000     -10.186489      -277.1885 
   7   1.0000     -10.185684      -277.1666 
   8   1.0000     -10.184378      -277.1310 
   9   1.0000     -10.183954      -277.1195 
  10   1.0000     -10.183048      -277.0948 
  11   1.0000     -10.181715      -277.0586 
  12   1.0000     -10.181529      -277.0535 
  13   1.0000     -10.179906      -277.0093 
  14   1.0000     -10.177815      -276.9524 
  15   1.0000     -10.175929      -276.9011 
  16   1.0000      -0.865364       -23.5477 
  17   1.0000      -0.811270       -22.0758 
  18   1.0000      -0.796149       -21.6643 
  19   1.0000      -0.773174       -21.0391 
  20   1.0000      -0.762613       -20.7518 
  21   1.0000      -0.729738       -19.8572 
  22   1.0000      -0.720290       -19.6001 
  23   1.0000      -0.682246       -18.5649 
  24   1.0000      -0.662253       -18.0208 
  25   1.0000      -0.617849       -16.8125 
  26   1.0000      -0.608653       -16.5623 
  27   1.0000      -0.589478       -16.0405 
  28   1.0000      -0.575348       -15.6560 
  29   1.0000      -0.563219       -15.3260 
  30   1.0000      -0.522762       -14.2251 
  31   1.0000      -0.491316       -13.3694 
  32   1.0000      -0.487655       -13.2698 
  33   1.0000      -0.469323       -12.7709 
  34   1.0000      -0.455333       -12.3902 
  35   1.0000      -0.447128       -12.1670 
  36   1.0000      -0.426539       -11.6067 
  37   1.0000      -0.419898       -11.4260 
  38   1.0000      -0.418615       -11.3911 
  39   1.0000      -0.416173       -11.3246 
  40   1.0000      -0.409350       -11.1390 
  41   1.0000      -0.396460       -10.7882 
  42   1.0000      -0.384152       -10.4533 
  43   1.0000      -0.377299       -10.2668 
  44   1.0000      -0.371837       -10.1182 
  45   1.0000      -0.365856        -9.9555 
  46   1.0000      -0.350810        -9.5460 
  47   1.0000      -0.347625        -9.4594 
  48   1.0000      -0.337809        -9.1923 
  49   1.0000      -0.334411        -9.0998 
  50   1.0000      -0.327762        -8.9189 
  51   1.0000      -0.322555        -8.7772 
  52   1.0000      -0.321715        -8.7543 
  53   1.0000      -0.320190        -8.7128 
  54   1.0000      -0.301257        -8.1976 
  55   1.0000      -0.271926        -7.3995 
  56   1.0000      -0.257972        -7.0198 
  57   1.0000      -0.224915        -6.1203 
  58   0.0000      -0.081184        -2.2091 
  59   0.0000      -0.019874        -0.5408 
  60   0.0000       0.028475         0.7749 
  61   0.0000       0.047834         1.3016 
  62   0.0000       0.059612         1.6221 
  63   0.0000       0.063276         1.7218 
  64   0.0000       0.079238         2.1562 
  65   0.0000       0.086686         2.3588 
  66   0.0000       0.089473         2.4347 
  67   0.0000       0.092004         2.5036 
  68   0.0000       0.094510         2.5718 
  69   0.0000       0.100694         2.7400 
  70   0.0000       0.103011         2.8031 
  71   0.0000       0.108825         2.9613 
  72   0.0000       0.118147         3.2149 
  73   0.0000       0.134821         3.6687 
  74   0.0000       0.142159         3.8683 
  75   0.0000       0.145143         3.9495 
  76   0.0000       0.149161         4.0589 
  77   0.0000       0.151173         4.1136 
  78   0.0000       0.154076         4.1926 
  79   0.0000       0.161734         4.4010 
  80   0.0000       0.164795         4.4843 
  81   0.0000       0.167251         4.5511 
  82   0.0000       0.177524         4.8307 
  83   0.0000       0.186943         5.0870 
  84   0.0000       0.193425         5.2634 
  85   0.0000       0.212565         5.7842 
  86   0.0000       0.215341         5.8597 
  87   0.0000       0.231069         6.2877 
  88   0.0000       0.240607         6.5472 
  89   0.0000       0.248220         6.7544 
  90   0.0000       0.251992         6.8571 
  91   0.0000       0.261165         7.1067 
  92   0.0000       0.269692         7.3387 
  93   0.0000       0.299369         8.1462 
  94   0.0000       0.332507         9.0480 
  95   0.0000       0.332609         9.0508 
  96   0.0000       0.349583         9.5126 
  97   0.0000       0.360352         9.8057 
  98   0.0000       0.369494        10.0545 
  99   0.0000       0.407439        11.0870 
 100   0.0000       0.409811        11.1515 
 101   0.0000       0.412752        11.2315 
 102   0.0000       0.416335        11.3290 
 103   0.0000       0.420682        11.4473 
 104   0.0000       0.429883        11.6977 
 105   0.0000       0.441221        12.0062 
 106   0.0000       0.454406        12.3650 
 107   0.0000       0.464203        12.6316 
 108   0.0000       0.467723        12.7274 
 109   0.0000       0.474942        12.9238 
 110   0.0000       0.481934        13.1141 
 111   0.0000       0.493476        13.4282 
 112   0.0000       0.499924        13.6036 
 113   0.0000       0.506089        13.7714 
 114   0.0000       0.510331        13.8868 
 115   0.0000       0.516366        14.0510 
 116   0.0000       0.520834        14.1726 
 117   0.0000       0.541654        14.7391 
 118   0.0000       0.545478        14.8432 
 119   0.0000       0.547063        14.8863 
 120   0.0000       0.555881        15.1263 
 121   0.0000       0.566354        15.4113 
 122   0.0000       0.575216        15.6524 
 123   0.0000       0.584675        15.9098 
 124   0.0000       0.601637        16.3714 
 125   0.0000       0.608972        16.5710 
 126   0.0000       0.612702        16.6725 
 127   0.0000       0.616645        16.7798 
 128   0.0000       0.621108        16.9012 
 129   0.0000       0.629046        17.1172 
 130   0.0000       0.637616        17.3504 
 131   0.0000       0.639500        17.4017 
 132   0.0000       0.641969        17.4689 
 133   0.0000       0.644925        17.5493 
 134   0.0000       0.646341        17.5878 
 135   0.0000       0.651560        17.7298 
 136   0.0000       0.658019        17.9056 
 137   0.0000       0.658279        17.9127 
 138   0.0000       0.662284        18.0217 
 139   0.0000       0.664320        18.0771 
 140   0.0000       0.672782        18.3073 
 141   0.0000       0.679304        18.4848 
 142   0.0000       0.683355        18.5950 
 143   0.0000       0.687200        18.6997 
 144   0.0000       0.696094        18.9417 
 145   0.0000       0.700993        19.0750 
 146   0.0000       0.704011        19.1571 
 147   0.0000       0.709272        19.3003 
 148   0.0000       0.713744        19.4219 
 149   0.0000       0.716340        19.4926 
 150   0.0000       0.731670        19.9098 
 151   0.0000       0.734991        20.0001 
 152   0.0000       0.742787        20.2123 
 153   0.0000       0.749258        20.3884 
 154   0.0000       0.764956        20.8155 
 155   0.0000       0.773435        21.0462 
 156   0.0000       0.800080        21.7713 
 157   0.0000       0.803131        21.8543 
 158   0.0000       0.818976        22.2855 
 159   0.0000       0.834184        22.6993 
 160   0.0000       0.837564        22.7913 
 161   0.0000       0.839975        22.8569 
 162   0.0000       0.845609        23.0102 
 163   0.0000       0.874546        23.7976 
 164   0.0000       0.895721        24.3738 
 165   0.0000       0.907352        24.6903 
 166   0.0000       0.915088        24.9008 
 167   0.0000       0.939857        25.5748 
 168   0.0000       0.961545        26.1650 
 169   0.0000       0.970752        26.4155 
 170   0.0000       0.983742        26.7690 
 171   0.0000       0.999726        27.2039 
 172   0.0000       1.005592        27.3636 
 173   0.0000       1.020551        27.7706 
 174   0.0000       1.026077        27.9210 
 175   0.0000       1.036217        28.1969 
 176   0.0000       1.051064        28.6009 
 177   0.0000       1.065507        28.9939 
 178   0.0000       1.070967        29.1425 
 179   0.0000       1.082872        29.4664 
 180   0.0000       1.085824        29.5468 
 181   0.0000       1.110389        30.2152 
 182   0.0000       1.124779        30.6068 
 183   0.0000       1.151974        31.3468 
 184   0.0000       1.161305        31.6007 
 185   0.0000       1.181421        32.1481 
 186   0.0000       1.190881        32.4055 
 187   0.0000       1.194762        32.5111 
 188   0.0000       1.205112        32.7928 
 189   0.0000       1.215934        33.0872 
 190   0.0000       1.220901        33.2224 
 191   0.0000       1.224079        33.3089 
 192   0.0000       1.247398        33.9434 
 193   0.0000       1.253398        34.1067 
 194   0.0000       1.293879        35.2082 
 195   0.0000       1.302925        35.4544 
 196   0.0000       1.324980        36.0545 
 197   0.0000       1.332864        36.2691 
 198   0.0000       1.340679        36.4817 
 199   0.0000       1.345254        36.6062 
 200   0.0000       1.372920        37.3590 
 201   0.0000       1.393814        37.9276 
 202   0.0000       1.400007        38.0961 
 203   0.0000       1.415149        38.5082 
 204   0.0000       1.418064        38.5875 
 205   0.0000       1.426128        38.8069 
 206   0.0000       1.426185        38.8085 
 207   0.0000       1.435913        39.0732 
 208   0.0000       1.440746        39.2047 
 209   0.0000       1.452742        39.5311 
 210   0.0000       1.461308        39.7642 
 211   0.0000       1.464617        39.8543 
 212   0.0000       1.471749        40.0483 
 213   0.0000       1.488963        40.5167 
 214   0.0000       1.499932        40.8152 
 215   0.0000       1.524027        41.4709 
 216   0.0000       1.534873        41.7660 
 217   0.0000       1.545034        42.0425 
 218   0.0000       1.554278        42.2940 
 219   0.0000       1.565133        42.5894 
 220   0.0000       1.579150        42.9709 
 221   0.0000       1.602003        43.5927 
 222   0.0000       1.602709        43.6119 
 223   0.0000       1.607947        43.7545 
 224   0.0000       1.612105        43.8676 
 225   0.0000       1.624718        44.2108 
 226   0.0000       1.627071        44.2748 
 227   0.0000       1.630873        44.3783 
 228   0.0000       1.633619        44.4530 
 229   0.0000       1.636741        44.5380 
 230   0.0000       1.637458        44.5575 
 231   0.0000       1.646567        44.8054 
 232   0.0000       1.654776        45.0288 
 233   0.0000       1.658637        45.1338 
 234   0.0000       1.667945        45.3871 
 235   0.0000       1.675175        45.5838 
 236   0.0000       1.683666        45.8149 
 237   0.0000       1.688425        45.9444 
 238   0.0000       1.691949        46.0403 
 239   0.0000       1.697549        46.1926 
 240   0.0000       1.703647        46.3586 
 241   0.0000       1.706337        46.4318 
 242   0.0000       1.710802        46.5533 
 243   0.0000       1.717999        46.7491 
 244   0.0000       1.722776        46.8791 
 245   0.0000       1.732504        47.1438 
 246   0.0000       1.745833        47.5065 
 247   0.0000       1.749577        47.6084 
 248   0.0000       1.755666        47.7741 
 249   0.0000       1.766667        48.0735 
 250   0.0000       1.775752        48.3207 
 251   0.0000       1.784639        48.5625 
 252   0.0000       1.796601        48.8880 
 253   0.0000       1.809869        49.2490 
 254   0.0000       1.821878        49.5758 
 255   0.0000       1.838127        50.0180 
 256   0.0000       1.841999        50.1234 
 257   0.0000       1.846470        50.2450 
 258   0.0000       1.863568        50.7103 
 259   0.0000       1.876999        51.0757 
 260   0.0000       1.890357        51.4392 
 261   0.0000       1.905537        51.8523 
 262   0.0000       1.912380        52.0385 
 263   0.0000       1.923164        52.3320 
 264   0.0000       1.930073        52.5200 
 265   0.0000       1.937500        52.7221 
 266   0.0000       1.946824        52.9758 
 267   0.0000       1.964709        53.4624 
 268   0.0000       1.980676        53.8969 
 269   0.0000       1.994549        54.2744 
 270   0.0000       2.014185        54.8088 
 271   0.0000       2.021577        55.0099 
 272   0.0000       2.034985        55.3748 
 273   0.0000       2.044232        55.6264 
 274   0.0000       2.063196        56.1424 
 275   0.0000       2.072619        56.3988 
 276   0.0000       2.086649        56.7806 
 277   0.0000       2.097616        57.0790 
 278   0.0000       2.109600        57.4051 
 279   0.0000       2.116884        57.6034 
 280   0.0000       2.134727        58.0889 
 281   0.0000       2.157788        58.7164 
 282   0.0000       2.183287        59.4102 
 283   0.0000       2.191745        59.6404 
 284   0.0000       2.196350        59.7657 
 285   0.0000       2.205108        60.0041 
 286   0.0000       2.214412        60.2572 
 287   0.0000       2.220290        60.4172 
 288   0.0000       2.246300        61.1249 
 289   0.0000       2.254672        61.3527 
 290   0.0000       2.262879        61.5761 
 291   0.0000       2.275869        61.9296 
 292   0.0000       2.286857        62.2285 
 293   0.0000       2.292635        62.3858 
 294   0.0000       2.299808        62.5809 
 295   0.0000       2.307816        62.7989 
 296   0.0000       2.315688        63.0131 
 297   0.0000       2.321663        63.1757 
 298   0.0000       2.344053        63.7849 
 299   0.0000       2.365586        64.3709 
 300   0.0000       2.404264        65.4234 
 301   0.0000       2.411386        65.6171 
 302   0.0000       2.411631        65.6238 
 303   0.0000       2.417550        65.7849 
 304   0.0000       2.425643        66.0051 
 305   0.0000       2.463440        67.0336 
 306   0.0000       2.470765        67.2329 
 307   0.0000       2.481116        67.5146 
 308   0.0000       2.487938        67.7002 
 309   0.0000       2.509545        68.2882 
 310   0.0000       2.535442        68.9929 
 311   0.0000       2.543948        69.2243 
 312   0.0000       2.557836        69.6023 
 313   0.0000       2.585998        70.3686 
 314   0.0000       2.604397        70.8692 
 315   0.0000       2.612478        71.0891 
 316   0.0000       2.617921        71.2373 
 317   0.0000       2.674760        72.7839 
 318   0.0000       2.688006        73.1444 
 319   0.0000       2.715699        73.8979 
 320   0.0000       2.723194        74.1019 
 321   0.0000       2.778783        75.6145 
 322   0.0000       2.785703        75.8028 
 323   0.0000       2.811946        76.5169 
 324   0.0000       2.868149        78.0463 
 325   0.0000       2.919331        79.4390 
 326   0.0000       3.011444        81.9456 
 327   0.0000       3.192717        86.8783 
 328   0.0000       3.360732        91.4502 

                    ********************************
                    * MULLIKEN POPULATION ANALYSIS *
                    ********************************

--------------------------------------------
MULLIKEN ATOMIC CHARGES AND SPIN POPULATIONS
--------------------------------------------
   0 C :    0.618170    0.029460
   1 C :   -0.061932    0.245823
   2 C :   -0.046137   -0.170943
   3 C :    0.024509    0.228015
   4 C :   -0.047084   -0.112618
   5 C :   -0.073278    0.262571
   6 C :    0.030413   -0.125925
   7 H :   -0.051884   -0.009558
   8 H :   -0.062804    0.004566
   9 C :    0.042153    0.748336
  10 H :    0.011828   -0.030038
  11 H :    0.007926   -0.029514
  12 C :    0.051951   -0.018348
  13 H :   -0.000704    0.002444
  14 H :    0.008294    0.006869
  15 C :   -0.029397    0.011832
  16 H :    0.011913   -0.000704
  17 H :    0.007126   -0.000240
  18 C :   -0.006386    0.001077
  19 H :    0.016484   -0.000032
  20 H :    0.016903    0.000228
  21 C :    0.044281   -0.020751
  22 H :    0.031816    0.011180
  23 H :    0.032008    0.011401
  24 C :   -0.036005    0.000964
  25 H :    0.015313    0.000212
  26 H :    0.014396    0.000215
  27 C :   -0.024302    0.000023
  28 H :    0.006023    0.000060
  29 H :    0.006315    0.000060
  30 C :    0.003138   -0.000090
  31 H :    0.016310    0.000027
  32 H :    0.016532    0.000025
  33 C :   -0.592098   -0.048883
  34 H :   -0.030629    0.001939
  35 H :    0.015723    0.000321
  36 H :    0.013114   -0.000006
Sum of atomic charges         :   -0.0000000
Sum of atomic spin populations:    1.0000000

-----------------------------------------------------
MULLIKEN REDUCED ORBITAL CHARGES AND SPIN POPULATIONS
-----------------------------------------------------
CHARGE
  0 C s       :     3.121446  s :     3.121446
      pz      :     0.944667  p :     2.205723
      px      :     0.325787
      py      :     0.935268
      dz2     :     0.004601  d :     0.054662
      dxz     :     0.020561
      dyz     :     0.000740
      dx2y2   :     0.009530
      dxy     :     0.019231
  1 C s       :     3.158317  s :     3.158317
      pz      :     0.938283  p :     2.820737
      px      :     0.912459
      py      :     0.969994
      dz2     :     0.004860  d :     0.082878
      dxz     :     0.011988
      dyz     :     0.012902
      dx2y2   :     0.026653
      dxy     :     0.026475
  2 C s       :     3.126965  s :     3.126965
      pz      :     0.954736  p :     2.833126
      px      :     0.917426
      py      :     0.960964
      dz2     :     0.005534  d :     0.086046
      dxz     :     0.012074
      dyz     :     0.014595
      dx2y2   :     0.027946
      dxy     :     0.025898
  3 C s       :     3.211508  s :     3.211508
      pz      :     0.972966  p :     2.699718
      px      :     0.887602
      py      :     0.839150
      dz2     :     0.004123  d :     0.064265
      dxz     :     0.011154
      dyz     :     0.006570
      dx2y2   :     0.020246
      dxy     :     0.022172
  4 C s       :     3.219589  s :     3.219589
      pz      :     1.001754  p :     2.739585
      px      :     0.790150
      py      :     0.947680
      dz2     :     0.005307  d :     0.087910
      dxz     :     0.012491
      dyz     :     0.013807
      dx2y2   :     0.029183
      dxy     :     0.027122
  5 C s       :     3.175488  s :     3.175488
      pz      :     0.948108  p :     2.813751
      px      :     0.925213
      py      :     0.940430
      dz2     :     0.005474  d :     0.084039
      dxz     :     0.014247
      dyz     :     0.012444
      dx2y2   :     0.024780
      dxy     :     0.027094
  6 C s       :     3.183419  s :     3.183419
      pz      :     1.007168  p :     2.721927
      px      :     0.884622
      py      :     0.830137
      dz2     :     0.003879  d :     0.064241
      dxz     :     0.011295
      dyz     :     0.005945
      dx2y2   :     0.020670
      dxy     :     0.022453
  7 H s       :     1.023680  s :     1.023680
      pz      :     0.005939  p :     0.028204
      px      :     0.007158
      py      :     0.015107
  8 H s       :     1.034133  s :     1.034133
      pz      :     0.006179  p :     0.028672
      px      :     0.007269
      py      :     0.015223
  9 C s       :     3.038238  s :     3.038238
      pz      :     1.008231  p :     2.880040
      px      :     0.891605
[...]
 A(DIA)          0.0001               0.0001               0.0000    A(PC) =   0.0000
             ----------           ----------           ----------
 A(Tot)         -0.1177              -0.1339               0.4191    A(iso)=    0.0558
 Orientation: 
  X           0.9770584           -0.1960358            0.0832273
  Y          -0.0671169            0.0874478            0.9939055
  Z          -0.2021191           -0.9766897            0.0722843

Notes:  (1) The A matrix conforms to the "SAI" spin Hamiltonian convention.
        (2) Tensor is right-handed.

 -----------------------------------------------------------
 Nucleus  34H : A:ISTP=    1 I=  0.5 P=533.5514 MHz/au**3
                Q:ISTP=    2 I=  1.0 Q=  0.0029 barn     
 -----------------------------------------------------------
 Solving for nuclear perturbation:
Forming RHS of the CP-SCF equations         ... 
Calc. nucleus orbit integrals (SHARK)       ... done

------------------------------------------------------------------------------
                           ORCA CP-SCF CALCULATION
------------------------------------------------------------------------------

Input orbitals are from        ... cc-pVDZ.gbw
Input Perturbation             ... cc-pVDZ.pin.tmp
Wavefunction output            ... cc-pVDZ.pout.tmp
Perturbation mode              ... Imaginary perturbation
Solver                         ... POPLE
Max. number of iterations      ... 64
Convergence tolerance          ... 1.000e-03
Integral handling              ... Direct
DFT GridXC                     ... 1
COSX GridX                     ... 1
COSX IntAccX                   ... 3.067
COSX Algorithm                 ... Auto
Number of perturbations        ... 3
Number of operators            ... 2
Orbital ranges used for CP-SCF:
 Operator 0:  Orbitals   0... 58  to  59...328
 Operator 1:  Orbitals   0... 57  to  58...328
Variables per perturbation     ... 31648
DFT calculation                         ... on
XC functional terms                     ... off
Hybrid DFT                              ... on
   Exchange mixing (SCF)                ...  0.200
   Exchange mixing (CP-SCF)             ...  0.200
   GGA exch. scaling(SCF)               ...  0.720
   GGA exch. scaling (CP-SCF)           ...  0.720
   GGA corr. scaling (SCF)              ...  0.810
   GGA corr. scaling (CP-SCF)           ...  0.810

CP-SCF GRID
-----------

General Integration Accuracy     IntAcc      ... 3.467
Radial Grid Type                 RadialGrid  ... OptM3 with GC (2021)
Angular Grid (max. ang.)         AngularGrid ... 1 (Lebedev-50)
Angular grid pruning method      GridPruning ... 4 (adaptive)
Weight generation scheme         WeightScheme... Becke
Basis function cutoff            BFCut       ... 1.0000e-10
Integration weight cutoff        WCut        ... 1.0000e-14
Angular grids for H and He will be reduced by one unit
Partially contracted basis set               ... off
Rotationally invariant grid construction     ... off

Total number of grid points                  ...    22895
Total number of batches                      ...      373
Average number of points per batch           ...       61
Average number of grid points per atom       ...      619

CP-SCF GRIDX
------------

General Integration Accuracy     IntAcc      ... 3.067
Radial Grid Type                 RadialGrid  ... OptM3 with GC (2021)
Angular Grid (max. ang.)         AngularGrid ... 1 (Lebedev-50)
Angular grid pruning method      GridPruning ... 4 (adaptive)
Weight generation scheme         WeightScheme... Becke
Basis function cutoff            BFCut       ... 1.0000e-10
Integration weight cutoff        WCut        ... 1.0000e-14
Angular grids for H and He will be reduced by one unit
Partially contracted basis set               ... on
Rotationally invariant grid construction     ... off

Total number of grid points                  ...    10842
Total number of batches                      ...      192
Average number of points per batch           ...       56
Average number of grid points per atom       ...      293

Memory available               ... 913.5 MB
Memory needed per perturbation ...   6.9 MB
Perturbations treated per batch... 3
Number of batches              ... 1
     CP-SCF ITERATION   0:   9.8613e-02 (   1.0 sec   0/  3 done)
     CP-SCF ITERATION   1:   2.2302e-03 (   1.0 sec   0/  3 done)
     CP-SCF ITERATION   2:   1.6304e-04 (   1.1 sec   3/  3 done)
                    *** THE CP-SCF HAS CONVERGED ***

Forming final perturbed densities           ... done
Transforming perturbed density to AO basis  ... done

 Raw HFC matrix (all values in MHz): 
 -----------------------------------
                 2.2372               0.3490               0.1348
                 0.3489               4.5959              -0.1303
                 0.1348              -0.1304               3.0954

 A(FC)           3.3098               3.3098               3.3098
 A(SD)          -1.1479              -0.1974               1.3453
 A(ORB+DIA)     -0.0001               0.0001              -0.0009    A(PC) =  -0.0003
 A(ORB)          0.0000              -0.0001              -0.0010    A(PC) =  -0.0004
 A(DIA)         -0.0001               0.0002               0.0001    A(PC) =   0.0001
             ----------           ----------           ----------
 A(Tot)          2.1618               3.1125               4.6542    A(iso)=    3.3095
 Orientation: 
  X          -0.9756171            0.1700984            0.1387001
  Y           0.1485339            0.0464561            0.9878155
  Z           0.1615823            0.9843314           -0.0705888

Notes:  (1) The A matrix conforms to the "SAI" spin Hamiltonian convention.
        (2) Tensor is right-handed.

 -----------------------------------------------------------
 Nucleus  35H : A:ISTP=    1 I=  0.5 P=533.5514 MHz/au**3
                Q:ISTP=    2 I=  1.0 Q=  0.0029 barn     
 -----------------------------------------------------------
 Solving for nuclear perturbation:
Forming RHS of the CP-SCF equations         ... 
Calc. nucleus orbit integrals (SHARK)       ... done

------------------------------------------------------------------------------
                           ORCA CP-SCF CALCULATION
------------------------------------------------------------------------------

Input orbitals are from        ... cc-pVDZ.gbw
Input Perturbation             ... cc-pVDZ.pin.tmp
Wavefunction output            ... cc-pVDZ.pout.tmp
Perturbation mode              ... Imaginary perturbation
Solver                         ... POPLE
Max. number of iterations      ... 64
Convergence tolerance          ... 1.000e-03
Integral handling              ... Direct
DFT GridXC                     ... 1
COSX GridX                     ... 1
COSX IntAccX                   ... 3.067
COSX Algorithm                 ... Auto
Number of perturbations        ... 3
Number of operators            ... 2
Orbital ranges used for CP-SCF:
 Operator 0:  Orbitals   0... 58  to  59...328
 Operator 1:  Orbitals   0... 57  to  58...328
Variables per perturbation     ... 31648
DFT calculation                         ... on
XC functional terms                     ... off
Hybrid DFT                              ... on
   Exchange mixing (SCF)                ...  0.200
   Exchange mixing (CP-SCF)             ...  0.200
   GGA exch. scaling(SCF)               ...  0.720
   GGA exch. scaling (CP-SCF)           ...  0.720
   GGA corr. scaling (SCF)              ...  0.810
   GGA corr. scaling (CP-SCF)           ...  0.810

CP-SCF GRID
-----------

General Integration Accuracy     IntAcc      ... 3.467
Radial Grid Type                 RadialGrid  ... OptM3 with GC (2021)
Angular Grid (max. ang.)         AngularGrid ... 1 (Lebedev-50)
Angular grid pruning method      GridPruning ... 4 (adaptive)
Weight generation scheme         WeightScheme... Becke
Basis function cutoff            BFCut       ... 1.0000e-10
Integration weight cutoff        WCut        ... 1.0000e-14
Angular grids for H and He will be reduced by one unit
Partially contracted basis set               ... off
Rotationally invariant grid construction     ... off

Total number of grid points                  ...    22895
Total number of batches                      ...      373
Average number of points per batch           ...       61
Average number of grid points per atom       ...      619

CP-SCF GRIDX
------------

General Integration Accuracy     IntAcc      ... 3.067
Radial Grid Type                 RadialGrid  ... OptM3 with GC (2021)
Angular Grid (max. ang.)         AngularGrid ... 1 (Lebedev-50)
Angular grid pruning method      GridPruning ... 4 (adaptive)
Weight generation scheme         WeightScheme... Becke
Basis function cutoff            BFCut       ... 1.0000e-10
Integration weight cutoff        WCut        ... 1.0000e-14
Angular grids for H and He will be reduced by one unit
Partially contracted basis set               ... on
Rotationally invariant grid construction     ... off

Total number of grid points                  ...    10842
Total number of batches                      ...      192
Average number of points per batch           ...       56
Average number of grid points per atom       ...      293

Memory available               ... 913.1 MB
Memory needed per perturbation ...   6.9 MB
Perturbations treated per batch... 3
Number of batches              ... 1
     CP-SCF ITERATION   0:   3.6301e-02 (   1.0 sec   0/  3 done)
     CP-SCF ITERATION   1:   6.2656e-04 (   1.1 sec   3/  3 done)
                    *** THE CP-SCF HAS CONVERGED ***

Forming final perturbed densities           ... done
Transforming perturbed density to AO basis  ... done

 Raw HFC matrix (all values in MHz): 
 -----------------------------------
                 1.2983              -0.3929               0.4557
                -0.3931               0.2797              -0.1472
                 0.4555              -0.1471               0.3818

 A(FC)           0.6532               0.6532               0.6532
 A(SD)          -0.5085              -0.4558               0.9643
 A(ORB+DIA)     -0.0001              -0.0000               0.0003    A(PC) =   0.0000
 A(ORB)         -0.0001              -0.0000               0.0002    A(PC) =   0.0000
 A(DIA)          0.0000               0.0000               0.0001    A(PC) =   0.0000
             ----------           ----------           ----------
 A(Tot)          0.1447               0.1974               1.6178    A(iso)=    0.6533
 Orientation: 
  X           0.3634997           -0.2963558            0.8831994
  Y           0.9232618            0.2411181           -0.2990815
  Z          -0.1243208            0.9241403            0.3612604

Notes:  (1) The A matrix conforms to the "SAI" spin Hamiltonian convention.
        (2) Tensor is right-handed.

 -----------------------------------------------------------
 Nucleus  36H : A:ISTP=    1 I=  0.5 P=533.5514 MHz/au**3
                Q:ISTP=    2 I=  1.0 Q=  0.0029 barn     
 -----------------------------------------------------------
 Solving for nuclear perturbation:
Forming RHS of the CP-SCF equations         ... 
Calc. nucleus orbit integrals (SHARK)       ... done

------------------------------------------------------------------------------
                           ORCA CP-SCF CALCULATION
------------------------------------------------------------------------------

Input orbitals are from        ... cc-pVDZ.gbw
Input Perturbation             ... cc-pVDZ.pin.tmp
Wavefunction output            ... cc-pVDZ.pout.tmp
Perturbation mode              ... Imaginary perturbation
Solver                         ... POPLE
Max. number of iterations      ... 64
Convergence tolerance          ... 1.000e-03
Integral handling              ... Direct
DFT GridXC                     ... 1
COSX GridX                     ... 1
COSX IntAccX                   ... 3.067
COSX Algorithm                 ... Auto
Number of perturbations        ... 3
Number of operators            ... 2
Orbital ranges used for CP-SCF:
 Operator 0:  Orbitals   0... 58  to  59...328
 Operator 1:  Orbitals   0... 57  to  58...328
Variables per perturbation     ... 31648
DFT calculation                         ... on
XC functional terms                     ... off
Hybrid DFT                              ... on
   Exchange mixing (SCF)                ...  0.200
   Exchange mixing (CP-SCF)             ...  0.200
   GGA exch. scaling(SCF)               ...  0.720
   GGA exch. scaling (CP-SCF)           ...  0.720
   GGA corr. scaling (SCF)              ...  0.810
   GGA corr. scaling (CP-SCF)           ...  0.810

CP-SCF GRID
-----------

General Integration Accuracy     IntAcc      ... 3.467
Radial Grid Type                 RadialGrid  ... OptM3 with GC (2021)
Angular Grid (max. ang.)         AngularGrid ... 1 (Lebedev-50)
Angular grid pruning method      GridPruning ... 4 (adaptive)
Weight generation scheme         WeightScheme... Becke
Basis function cutoff            BFCut       ... 1.0000e-10
Integration weight cutoff        WCut        ... 1.0000e-14
Angular grids for H and He will be reduced by one unit
Partially contracted basis set               ... off
Rotationally invariant grid construction     ... off

Total number of grid points                  ...    22895
Total number of batches                      ...      373
Average number of points per batch           ...       61
Average number of grid points per atom       ...      619

CP-SCF GRIDX
------------

General Integration Accuracy     IntAcc      ... 3.067
Radial Grid Type                 RadialGrid  ... OptM3 with GC (2021)
Angular Grid (max. ang.)         AngularGrid ... 1 (Lebedev-50)
Angular grid pruning method      GridPruning ... 4 (adaptive)
Weight generation scheme         WeightScheme... Becke
Basis function cutoff            BFCut       ... 1.0000e-10
Integration weight cutoff        WCut        ... 1.0000e-14
Angular grids for H and He will be reduced by one unit
Partially contracted basis set               ... on
Rotationally invariant grid construction     ... off

Total number of grid points                  ...    10842
Total number of batches                      ...      192
Average number of points per batch           ...       56
Average number of grid points per atom       ...      293

Memory available               ... 912.8 MB
Memory needed per perturbation ...   6.9 MB
Perturbations treated per batch... 3
Number of batches              ... 1
     CP-SCF ITERATION   0:   3.6472e-02 (   1.0 sec   0/  3 done)
     CP-SCF ITERATION   1:   6.0315e-04 (   1.0 sec   3/  3 done)
                    *** THE CP-SCF HAS CONVERGED ***

Forming final perturbed densities           ... done
Transforming perturbed density to AO basis  ... done

 Raw HFC matrix (all values in MHz): 
 -----------------------------------
                -0.1214               0.0924              -0.0071
                 0.0924               0.2366              -0.0315
                -0.0071              -0.0315              -0.1379

 A(FC)          -0.0076              -0.0076              -0.0076
 A(SD)          -0.1329              -0.1363               0.2692
 A(ORB+DIA)      0.0000               0.0001               0.0001    A(PC) =   0.0001
 A(ORB)          0.0000               0.0000               0.0001    A(PC) =   0.0000
 A(DIA)          0.0000               0.0001               0.0000    A(PC) =   0.0000
             ----------           ----------           ----------
 A(Tot)         -0.1405              -0.1439               0.2616    A(iso)=   -0.0076
 Orientation: 
  X           0.1746288            0.9561602            0.2350797
  Y           0.0394835           -0.2453562            0.9686286
  Z           0.9838424           -0.1598687           -0.0805988

Notes:  (1) The A matrix conforms to the "SAI" spin Hamiltonian convention.
        (2) Tensor is right-handed.


--------------------------------------------------------------------------------
----------------------------------------------------------------------------
                           ORCA EULER ANGLE PROGRAM
----------------------------------------------------------------------------

Only g-tensor available        -->  using g-tensor as reference tensor

Reference tensor               ...  g

g-tensor ordering              ...  |g_min> --> |gx>
                                    |g_mid> --> |gy>
                                    |g_max> --> |gz>

A- and EFG-tensor ordering     ...  the axes |Ax>, |Qx>, |Ay>, etc. are assigned
                                    such that the Euler rotation is minimal. You
                                    can find the respective eigenvalues as Ax,
                                    EFGx, Ay, etc. in the tables below.
                                    The relation of |Ax>, |Ay>,  etc. to Amin, Amid, etc.
                                    (as printed in the ORCA EPR/NMR CALCULATION Output)
                                    is obtained in the detailed printout.

Euler rotation around          ...  z - y - z
   First rotation              -->  by alpha around z
   Second rotation             -->  by beta around y'
   Third rotation              -->  by gamma around z''
   Positive / Negative angle   -->  clockwise / counterclockwise rotation

Plot EFG-tensors                    (-)
Plot HFC-tensors                    (-)
Detailed Printout                   (-)

-------------------------------------------------------------------------
          Euler rotation of hyperfine tensor to g-tensor
-------------------------------------------------------------------------

-------------------------------------------------------------------
 Atom  |   Alpha    Beta    Gamma   |   Ax       Ay       Az 
       |          [degrees]         |           [MHz]         
-------------------------------------------------------------------
  7H      -87.7     38.1     93.1     -17.27   -20.44    -6.58
  8H      -89.4     41.1     94.6       3.92     9.73     5.06
 10H       91.0     17.7    -87.7     -45.51   -71.59   -16.43
 11H      -88.9     43.8     93.0     -45.42   -70.58   -15.72
 13H     -135.5     27.6    103.6       3.09     3.30     7.55
 14H     -123.4     18.6    126.7       4.88     6.30    11.77
 16H        4.4     39.0     31.2      -3.21    -1.34     3.62
 17H      164.9     33.1   -125.8       2.18    -1.70    -1.16
 19H      -22.9     11.1     -4.7      -0.75    -0.58     1.29
 20H      -25.4     19.6     61.0      -0.27    -0.20     1.33
 22H      -45.6     48.8     18.7      23.18    26.71    22.55
 23H     -133.2     45.5    169.5      23.61    27.12    22.95
 25H      108.7     25.8    -92.9      -1.05     1.16    -0.94
 26H       63.3     26.5    -70.3      -1.06     1.15    -0.95
 28H      -11.0     34.6      5.1      -0.12     0.89    -0.17
 29H     -169.7     32.4   -175.1      -0.12     0.89    -0.17
 31H       59.1     15.0    -61.6      -0.13     0.42    -0.12
 32H      103.7     13.7    -92.1      -0.13     0.42    -0.12
 34H       86.5      8.9    -82.2       3.11     4.65     2.16
 35H       -9.8     30.3     11.8       0.20     0.14     1.62
 36H       86.9      3.2    -82.3      -0.14     0.26    -0.14
-------------------------------------------------------------------


Maximum memory used throughout the entire EPRNMR-calculation: 151.2 MB

Timings for individual modules:

Sum of individual times         ...     1477.401 sec (=  24.623 min)
GTO integral calculation        ...        4.551 sec (=   0.076 min)   0.3 %
Spin-Orbit-Coupling Matrices    ...        6.760 sec (=   0.113 min)   0.5 %
SCF iterations                  ...       20.509 sec (=   0.342 min)   1.4 %
EPR/NMR calculation             ...     1445.581 sec (=  24.093 min)  97.8 %
                             ****ORCA TERMINATED NORMALLY****
TOTAL RUN TIME: 0 days 0 hours 24 minutes 42 seconds 474 msec
