
                                 *****************
                                 * O   R   C   A *
                                 *****************

                                            #,                                       
                                            ###                                      
                                            ####                                     
                                            #####                                    
                                            ######                                   
                                           ########,                                 
                                     ,,################,,,,,                         
                               ,,#################################,,                 
                          ,,##########################################,,             
                       ,#########################################, ''#####,          
                    ,#############################################,,   '####,        
                  ,##################################################,,,,####,       
                ,###########''''           ''''###############################       
              ,#####''   ,,,,##########,,,,          '''####'''          '####       
            ,##' ,,,,###########################,,,                        '##       
           ' ,,###''''                  '''############,,,                           
         ,,##''                                '''############,,,,        ,,,,,,###''
      ,#''                                            '''#######################'''  
     '                                                          ''''####''''         
             ,#######,   #######,   ,#######,      ##                                
            ,#'     '#,  ##    ##  ,#'     '#,    #''#        ######   ,####,        
            ##       ##  ##   ,#'  ##            #'  '#       #        #'  '#        
            ##       ##  #######   ##           ,######,      #####,   #    #        
            '#,     ,#'  ##    ##  '#,     ,#' ,#      #,         ##   #,  ,#        
             '#######'   ##     ##  '#######'  #'      '#     #####' # '####'        



                  #######################################################
                  #                        -***-                        #
                  #          Department of theory and spectroscopy      #
                  #    Directorship and core code : Frank Neese         #
                  #        Max Planck Institute fuer Kohlenforschung    #
                  #                Kaiser Wilhelm Platz 1               #
                  #                 D-45470 Muelheim/Ruhr               #
                  #                      Germany                        #
                  #                                                     #
                  #                  All rights reserved                #
                  #                        -***-                        #
                  #######################################################


                         Program Version 5.0.4 -  RELEASE  -


 With contributions from (in alphabetic order):
   Daniel Aravena         : Magnetic Suceptibility
   Michael Atanasov       : Ab Initio Ligand Field Theory (pilot matlab implementation)
   Alexander A. Auer      : GIAO ZORA, VPT2 properties, NMR spectrum
   Ute Becker             : Parallelization
   Giovanni Bistoni       : ED, misc. LED, open-shell LED, HFLD
   Martin Brehm           : Molecular dynamics
   Dmytro Bykov           : SCF Hessian
   Vijay G. Chilkuri      : MRCI spin determinant printing, contributions to CSF-ICE
   Dipayan Datta          : RHF DLPNO-CCSD density
   Achintya Kumar Dutta   : EOM-CC, STEOM-CC
   Dmitry Ganyushin       : Spin-Orbit,Spin-Spin,Magnetic field MRCI
   Miquel Garcia          : C-PCM and meta-GGA Hessian, CC/C-PCM, Gaussian charge scheme
   Yang Guo               : DLPNO-NEVPT2, F12-NEVPT2, CIM, IAO-localization
   Andreas Hansen         : Spin unrestricted coupled pair/coupled cluster methods
   Benjamin Helmich-Paris : MC-RPA, TRAH-SCF, COSX integrals
   Lee Huntington         : MR-EOM, pCC
   Robert Izsak           : Overlap fitted RIJCOSX, COSX-SCS-MP3, EOM
   Marcus Kettner         : VPT2
   Christian Kollmar      : KDIIS, OOCD, Brueckner-CCSD(T), CCSD density, CASPT2, CASPT2-K
   Simone Kossmann        : Meta GGA functionals, TD-DFT gradient, OOMP2, MP2 Hessian
   Martin Krupicka        : Initial AUTO-CI
   Lucas Lang             : DCDCAS
   Marvin Lechner         : AUTO-CI (C++ implementation), FIC-MRCC
   Dagmar Lenk            : GEPOL surface, SMD
   Dimitrios Liakos       : Extrapolation schemes; Compound Job, initial MDCI parallelization
   Dimitrios Manganas     : Further ROCIS development; embedding schemes
   Dimitrios Pantazis     : SARC Basis sets
   Anastasios Papadopoulos: AUTO-CI, single reference methods and gradients
   Taras Petrenko         : DFT Hessian,TD-DFT gradient, ASA, ECA, R-Raman, ABS, FL, XAS/XES, NRVS
   Peter Pinski           : DLPNO-MP2, DLPNO-MP2 Gradient
   Christoph Reimann      : Effective Core Potentials
   Marius Retegan         : Local ZFS, SOC
   Christoph Riplinger    : Optimizer, TS searches, QM/MM, DLPNO-CCSD(T), (RO)-DLPNO pert. Triples
   Tobias Risthaus        : Range-separated hybrids, TD-DFT gradient, RPA, STAB
   Michael Roemelt        : Original ROCIS implementation
   Masaaki Saitow         : Open-shell DLPNO-CCSD energy and density
   Barbara Sandhoefer     : DKH picture change effects
   Avijit Sen             : IP-ROCIS
   Kantharuban Sivalingam : CASSCF convergence, NEVPT2, FIC-MRCI
   Bernardo de Souza      : ESD, SOC TD-DFT
   Georgi Stoychev        : AutoAux, RI-MP2 NMR, DLPNO-MP2 response
   Willem Van den Heuvel  : Paramagnetic NMR
   Boris Wezisla          : Elementary symmetry handling
   Frank Wennmohs         : Technical directorship


 We gratefully acknowledge several colleagues who have allowed us to
 interface, adapt or use parts of their codes:
   Stefan Grimme, W. Hujo, H. Kruse, P. Pracht,  : VdW corrections, initial TS optimization,
                  C. Bannwarth, S. Ehlert          DFT functionals, gCP, sTDA/sTD-DF
   Ed Valeev, F. Pavosevic, A. Kumar             : LibInt (2-el integral package), F12 methods
   Garnet Chan, S. Sharma, J. Yang, R. Olivares  : DMRG
   Ulf Ekstrom                                   : XCFun DFT Library
   Mihaly Kallay                                 : mrcc  (arbitrary order and MRCC methods)
   Jiri Pittner, Ondrej Demel                    : Mk-CCSD
   Frank Weinhold                                : gennbo (NPA and NBO analysis)
   Christopher J. Cramer and Donald G. Truhlar   : smd solvation model
   Lars Goerigk                                  : TD-DFT with DH, B97 family of functionals
   V. Asgeirsson, H. Jonsson                     : NEB implementation
   FAccTs GmbH                                   : IRC, NEB, NEB-TS, DLPNO-Multilevel, CI-OPT
                                                   MM, QMMM, 2- and 3-layer-ONIOM, Crystal-QMMM,
                                                   LR-CPCM, SF, NACMEs, symmetry and pop. for TD-DFT,
                                                   nearIR, NL-DFT gradient (VV10), updates on ESD,
                                                   ML-optimized integration grids
   S Lehtola, MJT Oliveira, MAL Marques          : LibXC Library
   Liviu Ungur et al                             : ANISO software


 Your calculation uses the libint2 library for the computation of 2-el integrals
 For citations please refer to: http://libint.valeyev.net

 Your ORCA version has been built with support for libXC version: 5.1.0
 For citations please refer to: https://tddft.org/programs/libxc/

 This ORCA versions uses:
   CBLAS   interface :  Fast vector & matrix operations
   LAPACKE interface :  Fast linear algebra routines
   SCALAPACK package :  Parallel linear algebra routines
   Shared memory     :  Shared parallel matrices
   BLAS/LAPACK       :  OpenBLAS 0.3.15  USE64BITINT DYNAMIC_ARCH NO_AFFINITY SkylakeX SINGLE_THREADED
        Core in use  :  SkylakeX
   Copyright (c) 2011-2014, The OpenBLAS Project




***************************************
The coordinates will be read from file: opt.xyz
***************************************


================================================================================

----- Orbital basis set information -----
Your calculation utilizes the basis: EPR-II
   V. Barone, in Recent Advances in Density Functional Methods, Part 1 (ed. D. P. Chong), World Scientific, Singapore, 1995, p. 287.

----- AuxJ basis set information -----
Your calculation utilizes the AutoAux generation procedure.
  G. L. Stoychev, A. A. Auer, F. Neese, J. Chem. Theory Comput. 13, 554 (2017)

----- AuxC basis set information -----
Your calculation utilizes the AutoAux generation procedure.
  G. L. Stoychev, A. A. Auer, F. Neese, J. Chem. Theory Comput. 13, 554 (2017)

----- AuxJK basis set information -----
Your calculation utilizes the AutoAux generation procedure.
  G. L. Stoychev, A. A. Auer, F. Neese, J. Chem. Theory Comput. 13, 554 (2017)

================================================================================
                                        WARNINGS
                       Please study these warnings very carefully!
================================================================================

WARNING: Old DensityContainer found on disk!
         Will remove this file - 
         If you want to keep old densities, please start your calculation with a different basename. 


WARNING: your system is open-shell and RHF/RKS was chosen
  ===> : WILL SWITCH to UHF/UKS


INFO   : the flag for use of the SHARK integral package has been found!

================================================================================
                                       INPUT FILE
================================================================================
NAME = EPRII.inp
|  1> ! B3LYP EPR-II AUTOAUX
|  2> %pal nprocs 16 end
|  3> *XYZFile 0 2 opt.xyz
|  4> %EPRNMR
|  5>         GTENSOR   TRUE
|  6>         NUCLEI    = ALL H {SHIFT, AISO, ADIP, AORB}
|  7>         ORI       CenterOfElCharge
|  8> END
|  9> 
| 10>                          ****END OF INPUT****
================================================================================

                       ****************************
                       * Single Point Calculation *
                       ****************************

---------------------------------
CARTESIAN COORDINATES (ANGSTROEM)
---------------------------------
  C     -2.631597    0.129889    0.152946
  C      1.575864   -0.218018   -0.504992
  C      0.963822    1.083546   -0.471921
  C     -0.443340    1.138551   -0.248119
  C     -1.220279   -0.005180   -0.065902
  C     -0.611010   -1.294596   -0.103795
  C      0.773999   -1.347005   -0.323995
  H     -0.932113    2.114973   -0.219804
  H      1.262338   -2.323049   -0.360688
  C      1.682287    2.282286   -0.654363
  H      2.755459    2.297223   -0.838416
  H      1.162943    3.241730   -0.622224
  C      3.065834   -0.388546   -0.698656
  H      3.262023   -1.404533   -1.082470
  H      3.432977    0.306369   -1.474054
  C      3.887515   -0.182955    0.591465
  H      3.688811    0.825725    0.993912
  H      3.528649   -0.892624    1.358202
  C      5.390342   -0.369448    0.371431
  H      5.781137    0.351469   -0.367554
  H      5.618742   -1.381978   -0.004350
  C     -1.464202   -2.531527    0.084086
  H     -2.003034   -2.436934    1.045488
  H     -2.265137   -2.516675   -0.678829
  C     -0.750622   -3.885261    0.036886
  H     -0.229468   -4.002281   -0.931186
  H      0.033199   -3.924469    0.815700
  C     -1.711359   -5.064693    0.232430
  H     -2.238010   -4.948281    1.197733
  H     -2.495639   -5.026358   -0.546048
  C     -1.012747   -6.426102    0.189580
  H     -0.246895   -6.508811    0.980041
  H     -0.505961   -6.586065   -0.777902
  C     -3.826626    0.249482    0.342032
  H     -4.879280    0.361416    0.513224
  H      5.954180   -0.226136    1.307646
  H     -1.728336   -7.252292    0.331363

----------------------------
CARTESIAN COORDINATES (A.U.)
----------------------------
  NO LB      ZA    FRAG     MASS         X           Y           Z
   0 C     6.0000    0    12.011   -4.972997    0.245455    0.289025
   1 C     6.0000    0    12.011    2.977951   -0.411995   -0.954296
   2 C     6.0000    0    12.011    1.821360    2.047605   -0.891801
   3 C     6.0000    0    12.011   -0.837792    2.151550   -0.468878
   4 C     6.0000    0    12.011   -2.305994   -0.009789   -0.124537
   5 C     6.0000    0    12.011   -1.154641   -2.446432   -0.196145
   6 C     6.0000    0    12.011    1.462646   -2.545470   -0.612261
   7 H     1.0000    0     1.008   -1.761437    3.996720   -0.415368
   8 H     1.0000    0     1.008    2.385473   -4.389926   -0.681601
   9 C     6.0000    0    12.011    3.179061    4.312895   -1.236567
  10 H     1.0000    0     1.008    5.207062    4.341122   -1.584377
  11 H     1.0000    0     1.008    2.197643    6.125981   -1.175832
  12 C     6.0000    0    12.011    5.793587   -0.734246   -1.320269
  13 H     1.0000    0     1.008    6.164330   -2.654183   -2.045573
  14 H     1.0000    0     1.008    6.487387    0.578953   -2.785559
  15 C     6.0000    0    12.011    7.346338   -0.345736    1.117707
  16 H     1.0000    0     1.008    6.970843    1.560395    1.878222
  17 H     1.0000    0     1.008    6.668180   -1.686814    2.566630
  18 C     6.0000    0    12.011   10.186270   -0.698156    0.701903
  19 H     1.0000    0     1.008   10.924767    0.664181   -0.694576
  20 H     1.0000    0     1.008   10.617884   -2.611559   -0.008220
  21 C     6.0000    0    12.011   -2.766941   -4.783893    0.158899
  22 H     1.0000    0     1.008   -3.785186   -4.605138    1.975686
  23 H     1.0000    0     1.008   -4.280488   -4.755826   -1.282801
  24 C     6.0000    0    12.011   -1.418470   -7.342079    0.069704
  25 H     1.0000    0     1.008   -0.433631   -7.563214   -1.759686
  26 H     1.0000    0     1.008    0.062738   -7.416172    1.541450
  27 C     6.0000    0    12.011   -3.234000   -9.570882    0.439229
  28 H     1.0000    0     1.008   -4.229225   -9.350895    2.263388
  29 H     1.0000    0     1.008   -4.716075   -9.498440   -1.031882
  30 C     6.0000    0    12.011   -1.913814  -12.143574    0.358254
  31 H     1.0000    0     1.008   -0.466565  -12.299870    1.852010
  32 H     1.0000    0     1.008   -0.956128  -12.445860   -1.470022
  33 C     6.0000    0    12.011   -7.231274    0.471453    0.646348
  34 H     1.0000    0     1.008   -9.220504    0.682977    0.969853
  35 H     1.0000    0     1.008   11.251769   -0.427335    2.471093
  36 H     1.0000    0     1.008   -3.266081  -13.704845    0.626186

--------------------------------
INTERNAL COORDINATES (ANGSTROEM)
--------------------------------
 C      0   0   0     0.000000000000     0.00000000     0.00000000
 C      1   0   0     4.272779435977     0.00000000     0.00000000
 C      2   1   0     1.438665364702    60.25611533     0.00000000
 C      3   2   1     1.425909955027   117.27985933     0.03056544
 C      4   3   2     1.394617996884   122.59142877     0.00000000
 C      5   4   3     1.426618075074   119.98942380   359.80738789
 C      2   1   3     1.396552108681    58.69928977   180.20089569
 H      4   3   2     1.092290782554   118.69476616   180.07450551
 H      7   2   1     1.092009065491   117.48005890   179.77496584
 C      3   2   1     1.409415733623   123.34163715   180.34056982
 H     10   3   2     1.088942817265   122.40656763     0.31108613
 H     10   3   2     1.091459767040   120.08473860   179.78721641
 C      2   1   3     1.512150120827   177.66932669   143.65206630
 H     13   2   7     1.103644831562   108.87542942    23.48041639
 H     13   2   7     1.104057719813   110.28123973   139.41768004
 C     13   2   7     1.543320706672   113.73569286   262.26377449
 H     16  13   2     1.104030754152   109.30558255   302.18129664
 H     16  13   2     1.104671644864   108.76417815    57.47544640
 C     16  13   2     1.530256370807   112.73280384   179.63630008
 H     19  16  13     1.103875839750   111.36717896    60.34862434
 H     19  16  13     1.103899331665   111.34143478   300.59408759
 C      6   5   4     1.514343105447   119.62648733   180.48504428
 H     22   6   5     1.106156347871   108.20573503   304.09262205
 H     22   6   5     1.106235176143   108.14286371    56.41421033
 C     22   6   5     1.531019144681   117.11695442   180.17068255
 H     25  22   6     1.105648136158   109.89308124   301.94491832
 H     25  22   6     1.105651246714   109.88026936    58.44334784
 C     25  22   6     1.533725208941   112.58561711   180.24750891
 H     28  25  22     1.105767807906   109.18900891   302.47583204
 H     28  25  22     1.105709478380   109.14051315    57.74857142
 C     28  25  22     1.530794590614   113.23248136   180.07138713
 H     31  28  25     1.103719938677   111.30088794    59.92707409
 H     31  28  25     1.103830607285   111.28105466   300.22757938
 C      1   2   3     1.215792146495   179.01985546   351.11928114
 H     34   1   5     1.072342109159   179.57594182     0.77152932
 H     19  16  13     1.102247628085   111.37006533   180.48184891
 H     31  28  25     1.102161137344   111.51578224   180.08412230

---------------------------
INTERNAL COORDINATES (A.U.)
---------------------------
 C      0   0   0     0.000000000000     0.00000000     0.00000000
 C      1   0   0     8.074382964647     0.00000000     0.00000000
 C      2   1   0     2.718683537644    60.25611533     0.00000000
 C      3   2   1     2.694579306633   117.27985933     0.03056544
 C      4   3   2     2.635446075549   122.59142877     0.00000000
 C      5   4   3     2.695917459592   119.98942380   359.80738789
 C      2   1   3     2.639101017158    58.69928977   180.20089569
 H      4   3   2     2.064130437634   118.69476616   180.07450551
 H      7   2   1     2.063598069537   117.48005890   179.77496584
 C      3   2   1     2.663409745388   123.34163715   180.34056982
 H     10   3   2     2.057803700132   122.40656763     0.31108613
 H     10   3   2     2.062560045900   120.08473860   179.78721641
 C      2   1   3     2.857549601739   177.66932669   143.65206630
 H     13   2   7     2.085586480770   108.87542942    23.48041639
 H     13   2   7     2.086366726488   110.28123973   139.41768004
 C     13   2   7     2.916453472420   113.73569286   262.26377449
 H     16  13   2     2.086315768774   109.30558255   302.18129664
 H     16  13   2     2.087526876701   108.76417815    57.47544640
 C     16  13   2     2.891765455514   112.73280384   179.63630008
 H     19  16  13     2.086023022980   111.36717896    60.34862434
 H     19  16  13     2.086067416266   111.34143478   300.59408759
 C      6   5   4     2.861693742086   119.62648733   180.48504428
 H     22   6   5     2.090332558774   108.20573503   304.09262205
 H     22   6   5     2.090481522620   108.14286371    56.41421033
 C     22   6   5     2.893206889237   117.11695442   180.17068255
 H     25  22   6     2.089372177819   109.89308124   301.94491832
 H     25  22   6     2.089378055919   109.88026936    58.44334784
 C     25  22   6     2.898320609589   112.58561711   180.24750891
 H     28  25  22     2.089598324648   109.18900891   302.47583204
 H     28  25  22     2.089488097819   109.14051315    57.74857142
 C     28  25  22     2.892782543549   113.23248136   180.07138713
 H     31  28  25     2.085728412647   111.30088794    59.92707409
 H     31  28  25     2.085937546008   111.28105466   300.22757938
 C      1   2   3     2.297514192648   179.01985546   351.11928114
 H     34   1   5     2.026432908181   179.57594182     0.77152932
 H     19  16  13     2.082946148845   111.37006533   180.48184891
 H     31  28  25     2.082782705032   111.51578224   180.08412230

---------------------
BASIS SET INFORMATION
---------------------
There are 2 groups of distinct atoms

 Group   1 Type C   : 10s5p1d contracted to 6s2p1d pattern {511111/41/1}
 Group   2 Type H   : 6s1p contracted to 4s1p pattern {3111/1}

Atom   0C    basis set group =>   1
Atom   1C    basis set group =>   1
Atom   2C    basis set group =>   1
Atom   3C    basis set group =>   1
Atom   4C    basis set group =>   1
Atom   5C    basis set group =>   1
Atom   6C    basis set group =>   1
Atom   7H    basis set group =>   2
Atom   8H    basis set group =>   2
Atom   9C    basis set group =>   1
Atom  10H    basis set group =>   2
Atom  11H    basis set group =>   2
Atom  12C    basis set group =>   1
Atom  13H    basis set group =>   2
Atom  14H    basis set group =>   2
Atom  15C    basis set group =>   1
Atom  16H    basis set group =>   2
Atom  17H    basis set group =>   2
Atom  18C    basis set group =>   1
Atom  19H    basis set group =>   2
Atom  20H    basis set group =>   2
Atom  21C    basis set group =>   1
Atom  22H    basis set group =>   2
Atom  23H    basis set group =>   2
Atom  24C    basis set group =>   1
Atom  25H    basis set group =>   2
Atom  26H    basis set group =>   2
Atom  27C    basis set group =>   1
Atom  28H    basis set group =>   2
Atom  29H    basis set group =>   2
Atom  30C    basis set group =>   1
Atom  31H    basis set group =>   2
Atom  32H    basis set group =>   2
Atom  33C    basis set group =>   1
Atom  34H    basis set group =>   2
Atom  35H    basis set group =>   2
Atom  36H    basis set group =>   2
---------------------------------
AUXILIARY/J BASIS SET INFORMATION
---------------------------------
There are 2 groups of distinct atoms

 Group   1 Type C   : 17s13p12d2f contracted to 17s13p12d2f pattern {11111111111111111/1111111111111/111111111111/11}
 Group   2 Type H   : 15s6p1d contracted to 15s6p1d pattern {111111111111111/111111/1}

Atom   0C    basis set group =>   1
Atom   1C    basis set group =>   1
Atom   2C    basis set group =>   1
Atom   3C    basis set group =>   1
Atom   4C    basis set group =>   1
Atom   5C    basis set group =>   1
Atom   6C    basis set group =>   1
Atom   7H    basis set group =>   2
Atom   8H    basis set group =>   2
Atom   9C    basis set group =>   1
Atom  10H    basis set group =>   2
Atom  11H    basis set group =>   2
Atom  12C    basis set group =>   1
Atom  13H    basis set group =>   2
Atom  14H    basis set group =>   2
Atom  15C    basis set group =>   1
Atom  16H    basis set group =>   2
Atom  17H    basis set group =>   2
Atom  18C    basis set group =>   1
Atom  19H    basis set group =>   2
Atom  20H    basis set group =>   2
Atom  21C    basis set group =>   1
Atom  22H    basis set group =>   2
Atom  23H    basis set group =>   2
Atom  24C    basis set group =>   1
Atom  25H    basis set group =>   2
Atom  26H    basis set group =>   2
Atom  27C    basis set group =>   1
Atom  28H    basis set group =>   2
Atom  29H    basis set group =>   2
Atom  30C    basis set group =>   1
Atom  31H    basis set group =>   2
Atom  32H    basis set group =>   2
Atom  33C    basis set group =>   1
Atom  34H    basis set group =>   2
Atom  35H    basis set group =>   2
Atom  36H    basis set group =>   2
---------------------------------
AUXILIARY/C BASIS SET INFORMATION
---------------------------------
There are 2 groups of distinct atoms

 Group   1 Type C   : 17s13p12d2f contracted to 17s13p12d2f pattern {11111111111111111/1111111111111/111111111111/11}
 Group   2 Type H   : 15s6p1d contracted to 15s6p1d pattern {111111111111111/111111/1}

Atom   0C    basis set group =>   1
Atom   1C    basis set group =>   1
Atom   2C    basis set group =>   1
Atom   3C    basis set group =>   1
Atom   4C    basis set group =>   1
Atom   5C    basis set group =>   1
Atom   6C    basis set group =>   1
Atom   7H    basis set group =>   2
Atom   8H    basis set group =>   2
Atom   9C    basis set group =>   1
Atom  10H    basis set group =>   2
Atom  11H    basis set group =>   2
Atom  12C    basis set group =>   1
Atom  13H    basis set group =>   2
Atom  14H    basis set group =>   2
Atom  15C    basis set group =>   1
Atom  16H    basis set group =>   2
Atom  17H    basis set group =>   2
Atom  18C    basis set group =>   1
Atom  19H    basis set group =>   2
Atom  20H    basis set group =>   2
Atom  21C    basis set group =>   1
Atom  22H    basis set group =>   2
Atom  23H    basis set group =>   2
Atom  24C    basis set group =>   1
Atom  25H    basis set group =>   2
Atom  26H    basis set group =>   2
Atom  27C    basis set group =>   1
Atom  28H    basis set group =>   2
Atom  29H    basis set group =>   2
Atom  30C    basis set group =>   1
Atom  31H    basis set group =>   2
Atom  32H    basis set group =>   2
Atom  33C    basis set group =>   1
Atom  34H    basis set group =>   2
Atom  35H    basis set group =>   2
Atom  36H    basis set group =>   2
----------------------------------
AUXILIARY/JK BASIS SET INFORMATION
----------------------------------
There are 2 groups of distinct atoms

 Group   1 Type C   : 17s13p12d2f contracted to 17s13p12d2f pattern {11111111111111111/1111111111111/111111111111/11}
 Group   2 Type H   : 15s6p1d contracted to 15s6p1d pattern {111111111111111/111111/1}

Atom   0C    basis set group =>   1
Atom   1C    basis set group =>   1
Atom   2C    basis set group =>   1
Atom   3C    basis set group =>   1
Atom   4C    basis set group =>   1
Atom   5C    basis set group =>   1
Atom   6C    basis set group =>   1
Atom   7H    basis set group =>   2
Atom   8H    basis set group =>   2
Atom   9C    basis set group =>   1
Atom  10H    basis set group =>   2
Atom  11H    basis set group =>   2
Atom  12C    basis set group =>   1
Atom  13H    basis set group =>   2
Atom  14H    basis set group =>   2
Atom  15C    basis set group =>   1
Atom  16H    basis set group =>   2
Atom  17H    basis set group =>   2
Atom  18C    basis set group =>   1
Atom  19H    basis set group =>   2
Atom  20H    basis set group =>   2
Atom  21C    basis set group =>   1
Atom  22H    basis set group =>   2
Atom  23H    basis set group =>   2
Atom  24C    basis set group =>   1
Atom  25H    basis set group =>   2
Atom  26H    basis set group =>   2
Atom  27C    basis set group =>   1
Atom  28H    basis set group =>   2
Atom  29H    basis set group =>   2
Atom  30C    basis set group =>   1
Atom  31H    basis set group =>   2
Atom  32H    basis set group =>   2
Atom  33C    basis set group =>   1
Atom  34H    basis set group =>   2
Atom  35H    basis set group =>   2
Atom  36H    basis set group =>   2

Checking for AutoStart:
The File: EPRII.gbw exists
Trying to determine its content:
     ... Fine, the file contains calculation information
     ... Fine, the calculation information was read
     ... Fine, the file contains a basis set
     ... Fine, the basis set was read
     ... Fine, the file contains a geometry
     ... Fine, the geometry was read
     ... Fine, the file contains a set of orbitals
     ... Fine, the orbitals can be read
     => possible old guess file was deleted
     => GBW file was renamed to GES file
     => GES file is set as startup file
     => Guess is set to MORead
     ... now leaving AutoStart



           ************************************************************
           *        Program running with 16 parallel MPI-processes    *
           *              working on a common directory               *
           ************************************************************
------------------------------------------------------------------------------
                           ORCA GTO INTEGRAL CALCULATION
                           -- RI-GTO INTEGRALS CHOSEN --
------------------------------------------------------------------------------
------------------------------------------------------------------------------
                   ___                                                        
                  /   \      - P O W E R E D   B Y -                         
                 /     \                                                     
                 |  |  |   _    _      __       _____    __    __             
                 |  |  |  | |  | |    /  \     |  _  \  |  |  /  |          
                  \  \/   | |  | |   /    \    | | | |  |  | /  /          
                 / \  \   | |__| |  /  /\  \   | |_| |  |  |/  /          
                |  |  |   |  __  | /  /__\  \  |    /   |      \           
                |  |  |   | |  | | |   __   |  |    \   |  |\   \          
                \     /   | |  | | |  |  |  |  | |\  \  |  | \   \       
                 \___/    |_|  |_| |__|  |__|  |_| \__\ |__|  \__/        
                                                                              
                      - O R C A' S   B I G   F R I E N D -                    
                                      &                                       
                       - I N T E G R A L  F E E D E R -                       
                                                                              
 v1 FN, 2020, v2 2021                                                         
------------------------------------------------------------------------------


Reading SHARK input file EPRII.SHARKINP.tmp ... ok
----------------------
SHARK INTEGRAL PACKAGE
----------------------

Number of atoms                             ...     37
Number of basis functions                   ...    419
Number of shells                            ...    249
Maximum angular momentum                    ...      2
Integral batch strategy                     ... SHARK/LIBINT Hybrid
RI-J (if used) integral strategy            ... SPLIT-RIJ (Revised 2003 algorithm where possible)
Printlevel                                  ...      1
Contraction scheme used                     ... SEGMENTED contraction
Coulomb Range Separation                    ... NOT USED
Exchange Range Separation                   ... NOT USED
Finite Nucleus Model                        ... NOT USED
Auxiliary Coulomb fitting basis             ... AVAILABLE
   # of basis functions in Aux-J            ...   2878
   # of shells in Aux-J                     ...   1166
   Maximum angular momentum in Aux-J        ...      3
Auxiliary J/K fitting basis                 ... AVAILABLE
   # of basis functions in Aux-JK           ...   2878
   # of shells in Aux-JK                    ...   1166
   Maximum angular momentum in Aux-JK       ...      3
Auxiliary Correlation fitting basis         ... AVAILABLE
   # of basis functions in Aux-C            ...   2878
   # of shells in Aux-C                     ...   1166
   Maximum angular momentum in Aux-C        ...      3
Auxiliary 'external' fitting basis          ... NOT available
Integral threshold                          ...     1.000000e-10
Primitive cut-off                           ...     1.000000e-11
Primitive pair pre-selection threshold      ...     1.000000e-11

Calculating pre-screening integrals         ... done (  0.0 sec) Dimension = 249
Organizing shell pair data                  ... done (  0.1 sec)
Shell pair information
Total number of shell pairs                 ...     31125
Shell pairs after pre-screening             ...     19058
Total number of primitive shell pairs       ...     81725
Primitive shell pairs kept                  ...     36166
          la=0 lb=0:   8822 shell pairs
          la=1 lb=0:   6578 shell pairs
          la=1 lb=1:   1137 shell pairs
          la=2 lb=0:   1774 shell pairs
          la=2 lb=1:    645 shell pairs
          la=2 lb=2:    102 shell pairs

Calculating one electron integrals          ... done (  0.0 sec)
Calculating RI/J V-Matrix + Cholesky decomp.... done (  0.6 sec)
Calculating RI/JK V-Matrix + Cholesky decomp... done (  0.5 sec)
Calculating RI/C V-Matrix + Cholesky decomp.... done (  0.5 sec)
Calculating Nuclear repulsion               ... done (  0.0 sec) ENN=   1004.377141573651 Eh

SHARK setup successfully completed in   2.4 seconds

Maximum memory used throughout the entire GTOINT-calculation: 35.3 MB


           ************************************************************
           *        Program running with 16 parallel MPI-processes    *
           *              working on a common directory               *
           ************************************************************
-------------------------------------------------------------------------------
                                 ORCA SCF
-------------------------------------------------------------------------------

------------
SCF SETTINGS
------------
Hamiltonian:
 Density Functional     Method          .... DFT(GTOs)
 Exchange Functional    Exchange        .... B88
   X-Alpha parameter    XAlpha          ....  0.666667
   Becke's b parameter  XBeta           ....  0.004200
 Correlation Functional Correlation     .... LYP
 LDA part of GGA corr.  LDAOpt          .... VWN-5
 Gradients option       PostSCFGGA      .... off
 Hybrid DFT is turned on
   Fraction HF Exchange ScalHFX         ....  0.200000
   Scaling of DF-GGA-X  ScalDFX         ....  0.720000
   Scaling of DF-GGA-C  ScalDFC         ....  0.810000
   Scaling of DF-LDA-C  ScalLDAC        ....  1.000000
   Perturbative correction              ....  0.000000
   Density functional embedding theory  .... OFF
   NL short-range parameter             ....  4.800000
 RI-approximation to the Coulomb term is turned on
   Number of AuxJ basis functions       .... 2878
   RIJ-COSX (HFX calculated with COS-X)).... on


General Settings:
 Integral files         IntName         .... EPRII
 Hartree-Fock type      HFTyp           .... UHF
 Total Charge           Charge          ....    0
 Multiplicity           Mult            ....    2
 Number of Electrons    NEL             ....  117
 Basis Dimension        Dim             ....  419
 Nuclear Repulsion      ENuc            ....   1004.3771415737 Eh

Convergence Acceleration:
 DIIS                   CNVDIIS         .... on
   Start iteration      DIISMaxIt       ....    12
   Startup error        DIISStart       ....  0.200000
   # of expansion vecs  DIISMaxEq       ....     5
   Bias factor          DIISBfac        ....   1.050
   Max. coefficient     DIISMaxC        ....  10.000
 Trust-Rad. Augm. Hess. CNVTRAH         .... auto
   Auto Start mean grad. ratio tolernc. ....  1.125000
   Auto Start start iteration           ....     1
   Auto Start num. interpolation iter.  ....    10
   Max. Number of Micro iterations      ....    16
   Max. Number of Macro iterations      .... Maxiter - #DIIS iter
   Number of Davidson start vectors     ....     2
   Converg. threshold I  (grad. norm)   ....   5.000e-05
   Converg. threshold II (energy diff.) ....   1.000e-06
   Grad. Scal. Fac. for Micro threshold ....   0.100
   Minimum threshold for Micro iter.    ....   0.010
   NR start threshold (gradient norm)   ....   0.001
   Initial trust radius                 ....   0.400
   Minimum AH scaling param. (alpha)    ....   1.000
   Maximum AH scaling param. (alpha)    .... 1000.000
   Orbital update algorithm             .... Taylor
   White noise on init. David. guess    .... on
   Maximum white noise                  ....   0.010
   Quad. conv. algorithm                .... NR
 SOSCF                  CNVSOSCF        .... off
 Level Shifting         CNVShift        .... on
   Level shift para.    LevelShift      ....    0.2500
   Turn off err/grad.   ShiftErr        ....    0.0010
 Zerner damping         CNVZerner       .... off
 Static damping         CNVDamp         .... on
   Fraction old density DampFac         ....    0.7000
   Max. Damping (<1)    DampMax         ....    0.9800
   Min. Damping (>=0)   DampMin         ....    0.0000
   Turn off err/grad.   DampErr         ....    0.1000
 Fernandez-Rico         CNVRico         .... off

SCF Procedure:
 Maximum # iterations   MaxIter         ....   125
 SCF integral mode      SCFMode         .... Direct
   Integral package                     .... SHARK and LIBINT hybrid scheme
 Reset frequency        DirectResetFreq ....    20
 Integral Threshold     Thresh          ....  1.000e-10 Eh
 Primitive CutOff       TCut            ....  1.000e-11 Eh

Convergence Tolerance:
 Convergence Check Mode ConvCheckMode   .... Total+1el-Energy
 Convergence forced     ConvForced      .... 0
 Energy Change          TolE            ....  1.000e-06 Eh
 1-El. energy change                    ....  1.000e-03 Eh
 DIIS Error             TolErr          ....  1.000e-06


Diagonalization of the overlap matrix:
Smallest eigenvalue                        ... 1.429e-04
Time for diagonalization                   ...    0.082 sec
Threshold for overlap eigenvalues          ... 1.000e-08
Number of eigenvalues below threshold      ... 0
Time for construction of square roots      ...    0.040 sec
Total time needed                          ...    0.123 sec

---------------------
INITIAL GUESS: MOREAD
---------------------
Guess MOs are being read from file: EPRII.ges
Input Geometry matches current geometry (good)
Input basis set matches current basis set (good)
MOs were renormalized
MOs were reorthogonalized (Cholesky)
                      ------------------
                      INITIAL GUESS DONE (   0.2 sec)
                      ------------------
-------------------
DFT GRID GENERATION
-------------------

General Integration Accuracy     IntAcc      ... 4.388
Radial Grid Type                 RadialGrid  ... OptM3 with GC (2021)
Angular Grid (max. ang.)         AngularGrid ... 4 (Lebedev-302)
Angular grid pruning method      GridPruning ... 4 (adaptive)
Weight generation scheme         WeightScheme... Becke
Basis function cutoff            BFCut       ... 1.0000e-10
Integration weight cutoff        WCut        ... 1.0000e-14
Angular grids for H and He will be reduced by one unit
Partially contracted basis set               ... off
Rotationally invariant grid construction     ... off

Total number of grid points                  ...   162627
Total number of batches                      ...     2559
Average number of points per batch           ...       63
Average number of grid points per atom       ...     4395
Time for grid setup =    0.899 sec

--------------------
COSX GRID GENERATION
--------------------

GRIDX 1
-------
General Integration Accuracy     IntAcc      ... 3.816
Radial Grid Type                 RadialGrid  ... OptM3 with GC (2021)
Angular Grid (max. ang.)         AngularGrid ... 1 (Lebedev-50)
Angular grid pruning method      GridPruning ... 4 (adaptive)
Weight generation scheme         WeightScheme... Becke
Basis function cutoff            BFCut       ... 1.0000e-10
Integration weight cutoff        WCut        ... 1.0000e-14
Angular grids for H and He will be reduced by one unit
Partially contracted basis set               ... on
Rotationally invariant grid construction     ... off

Total number of grid points                  ...    20774
Total number of batches                      ...      346
Average number of points per batch           ...       60
Average number of grid points per atom       ...      561
UseSFitting                                  ... on

GRIDX 2
-------
General Integration Accuracy     IntAcc      ... 4.020
Radial Grid Type                 RadialGrid  ... OptM3 with GC (2021)
Angular Grid (max. ang.)         AngularGrid ... 2 (Lebedev-110)
Angular grid pruning method      GridPruning ... 4 (adaptive)
Weight generation scheme         WeightScheme... Becke
Basis function cutoff            BFCut       ... 1.0000e-10
Integration weight cutoff        WCut        ... 1.0000e-14
Angular grids for H and He will be reduced by one unit
Partially contracted basis set               ... on
Rotationally invariant grid construction     ... off

Total number of grid points                  ...    43752
Total number of batches                      ...      701
Average number of points per batch           ...       62
Average number of grid points per atom       ...     1182
UseSFitting                                  ... on

GRIDX 3
-------
General Integration Accuracy     IntAcc      ... 4.338
Radial Grid Type                 RadialGrid  ... OptM3 with GC (2021)
Angular Grid (max. ang.)         AngularGrid ... 3 (Lebedev-194)
Angular grid pruning method      GridPruning ... 4 (adaptive)
Weight generation scheme         WeightScheme... Becke
Basis function cutoff            BFCut       ... 1.0000e-10
Integration weight cutoff        WCut        ... 1.0000e-14
Angular grids for H and He will be reduced by one unit
Partially contracted basis set               ... on
Rotationally invariant grid construction     ... off

Total number of grid points                  ...    95333
Total number of batches                      ...     1508
Average number of points per batch           ...       63
Average number of grid points per atom       ...     2577
UseSFitting                                  ... on

Time for X-Grid setup             =    1.564 sec

--------------
SCF ITERATIONS
--------------
ITER       Energy         Delta-E        Max-DP      RMS-DP      [F,P]     Damp
               ***  Starting incremental Fock matrix formation  ***
  0   -621.9203101776   0.000000000000 0.00000948  0.00000010  0.0000105 0.7000
                 **** Energy Check signals convergence ****

               *****************************************************
               *                     SUCCESS                       *
               *           SCF CONVERGED AFTER   1 CYCLES          *
               *****************************************************

Old exchange energy                            =    -18.047440550 Eh
New exchange energy                            =    -18.047450991 Eh
Exchange energy change after final integration =     -0.000010441 Eh
Total energy after final integration           =   -621.920320510 Eh
Final COS-X integration done in                =     5.275 sec

----------------
TOTAL SCF ENERGY
----------------

Total Energy       :         -621.92032051 Eh          -16923.31229 eV

Components:
Nuclear Repulsion  :         1004.37714157 Eh           27330.49148 eV
Electronic Energy  :        -1626.29746208 Eh          -44253.80376 eV
One Electron Energy:        -2830.86325902 Eh          -77031.70549 eV
Two Electron Energy:         1204.56579693 Eh           32777.90173 eV
Max COSX asymmetry :            0.00000173 Eh               0.00005 eV

Virial components:
Potential Energy   :        -1238.86857339 Eh          -33711.32773 eV
Kinetic Energy     :          616.94825288 Eh           16788.01545 eV
Virial Ratio       :            2.00805913


DFT components:
N(Alpha)           :       59.000031689047 electrons
N(Beta)            :       58.000026676642 electrons
N(Total)           :      117.000058365689 electrons
E(X)               :      -71.556648705913 Eh       
E(C)               :       -4.509907103090 Eh       
E(XC)              :      -76.066555809004 Eh       
DFET-embed. en.    :        0.000000000000 Eh       

---------------
SCF CONVERGENCE
---------------

  Last Energy change         ...    1.0886e-07  Tolerance :   1.0000e-06
  Last MAX-Density change    ...    3.3228e-06  Tolerance :   1.0000e-05
  Last RMS-Density change    ...    3.8203e-08  Tolerance :   1.0000e-06
  Last DIIS Error            ...    8.9238e-06  Tolerance :   1.0000e-06

             **** THE GBW FILE WAS UPDATED (EPRII.gbw) ****
             **** DENSITY EPRII.scfp WAS UPDATED ****
             **** ENERGY FILE WAS UPDATED (EPRII.en.tmp) ****
----------------------
UHF SPIN CONTAMINATION
----------------------

Warning: in a DFT calculation there is little theoretical justification to 
         calculate <S**2> as in Hartree-Fock theory. We will do it anyways
         but you should keep in mind that the values have only limited relevance

Expectation value of <S**2>     :     0.785271
Ideal value S*(S+1) for S=0.5   :     0.750000
Deviation                       :     0.035271

             **** THE GBW FILE WAS UPDATED (EPRII.gbw) ****
             **** DENSITY EPRII.scfp WAS UPDATED ****
----------------
ORBITAL ENERGIES
----------------
                 SPIN UP ORBITALS
  NO   OCC          E(Eh)            E(eV) 
   0   1.0000     -10.216879      -278.0154 
   1   1.0000     -10.210564      -277.8436 
   2   1.0000     -10.206365      -277.7293 
   3   1.0000     -10.205820      -277.7145 
   4   1.0000     -10.202753      -277.6310 
   5   1.0000     -10.200520      -277.5703 
   6   1.0000     -10.193211      -277.3714 
   7   1.0000     -10.192901      -277.3629 
   8   1.0000     -10.189752      -277.2772 
   9   1.0000     -10.187895      -277.2267 
  10   1.0000     -10.186744      -277.1954 
  11   1.0000     -10.185581      -277.1638 
  12   1.0000     -10.182603      -277.0827 
  13   1.0000     -10.182308      -277.0747 
  14   1.0000     -10.175999      -276.9030 
  15   1.0000     -10.173628      -276.8385 
  16   1.0000      -0.868836       -23.6422 
  17   1.0000      -0.813601       -22.1392 
  18   1.0000      -0.795904       -21.6576 
  19   1.0000      -0.775768       -21.1097 
  20   1.0000      -0.763963       -20.7885 
  21   1.0000      -0.731994       -19.9186 
  22   1.0000      -0.723615       -19.6906 
  23   1.0000      -0.684011       -18.6129 
  24   1.0000      -0.669000       -18.2044 
  25   1.0000      -0.623839       -16.9755 
  26   1.0000      -0.611243       -16.6328 
  27   1.0000      -0.591062       -16.0836 
  28   1.0000      -0.575962       -15.6727 
  29   1.0000      -0.564814       -15.3694 
  30   1.0000      -0.526264       -14.3204 
  31   1.0000      -0.494022       -13.4430 
  32   1.0000      -0.489749       -13.3267 
  33   1.0000      -0.470030       -12.7902 
  34   1.0000      -0.457537       -12.4502 
  35   1.0000      -0.447976       -12.1901 
  36   1.0000      -0.428501       -11.6601 
  37   1.0000      -0.421650       -11.4737 
  38   1.0000      -0.420718       -11.4483 
  39   1.0000      -0.417982       -11.3739 
  40   1.0000      -0.411169       -11.1885 
  41   1.0000      -0.400320       -10.8933 
  42   1.0000      -0.387247       -10.5375 
  43   1.0000      -0.380178       -10.3452 
  44   1.0000      -0.374482       -10.1902 
  45   1.0000      -0.366595        -9.9756 
  46   1.0000      -0.351983        -9.5780 
  47   1.0000      -0.350869        -9.5476 
  48   1.0000      -0.339398        -9.2355 
  49   1.0000      -0.334580        -9.1044 
  50   1.0000      -0.328214        -8.9311 
  51   1.0000      -0.322839        -8.7849 
  52   1.0000      -0.321873        -8.7586 
  53   1.0000      -0.321023        -8.7355 
  54   1.0000      -0.306700        -8.3457 
  55   1.0000      -0.276218        -7.5163 
  56   1.0000      -0.273929        -7.4540 
  57   1.0000      -0.234275        -6.3750 
  58   1.0000      -0.178364        -4.8535 
  59   0.0000      -0.033293        -0.9059 
  60   0.0000       0.006976         0.1898 
  61   0.0000       0.016896         0.4598 
  62   0.0000       0.023245         0.6325 
  63   0.0000       0.025185         0.6853 
  64   0.0000       0.036799         1.0014 
  65   0.0000       0.038951         1.0599 
  66   0.0000       0.043224         1.1762 
  67   0.0000       0.046064         1.2535 
  68   0.0000       0.049614         1.3501 
  69   0.0000       0.061219         1.6659 
  70   0.0000       0.073586         2.0024 
  71   0.0000       0.076366         2.0780 
  72   0.0000       0.086655         2.3580 
  73   0.0000       0.095749         2.6055 
  74   0.0000       0.111824         3.0429 
  75   0.0000       0.120981         3.2921 
  76   0.0000       0.130861         3.5609 
  77   0.0000       0.142769         3.8849 
  78   0.0000       0.151648         4.1266 
  79   0.0000       0.157679         4.2907 
  80   0.0000       0.168851         4.5947 
  81   0.0000       0.175520         4.7761 
  82   0.0000       0.182144         4.9564 
  83   0.0000       0.184708         5.0261 
  84   0.0000       0.192127         5.2280 
  85   0.0000       0.195295         5.3143 
  86   0.0000       0.197254         5.3675 
  87   0.0000       0.199330         5.4240 
  88   0.0000       0.201493         5.4829 
  89   0.0000       0.213621         5.8129 
  90   0.0000       0.214468         5.8360 
  91   0.0000       0.217293         5.9128 
  92   0.0000       0.218504         5.9458 
  93   0.0000       0.225238         6.1290 
  94   0.0000       0.228366         6.2142 
  95   0.0000       0.236153         6.4261 
  96   0.0000       0.239179         6.5084 
  97   0.0000       0.245622         6.6837 
  98   0.0000       0.252253         6.8642 
  99   0.0000       0.260367         7.0849 
 100   0.0000       0.266606         7.2547 
 101   0.0000       0.268144         7.2966 
 102   0.0000       0.279347         7.6014 
 103   0.0000       0.282520         7.6878 
 104   0.0000       0.285423         7.7667 
 105   0.0000       0.287523         7.8239 
 106   0.0000       0.291184         7.9235 
 107   0.0000       0.293875         7.9968 
 108   0.0000       0.298778         8.1302 
 109   0.0000       0.303603         8.2615 
 110   0.0000       0.308554         8.3962 
 111   0.0000       0.315367         8.5816 
 112   0.0000       0.322918         8.7870 
 113   0.0000       0.330778         9.0009 
 114   0.0000       0.332792         9.0557 
 115   0.0000       0.339524         9.2389 
 116   0.0000       0.346827         9.4377 
 117   0.0000       0.352764         9.5992 
 118   0.0000       0.356217         9.6931 
 119   0.0000       0.361440         9.8353 
 120   0.0000       0.364975         9.9315 
 121   0.0000       0.369800        10.0628 
 122   0.0000       0.373508        10.1637 
 123   0.0000       0.381316        10.3761 
 124   0.0000       0.399026        10.8580 
 125   0.0000       0.402626        10.9560 
 126   0.0000       0.410940        11.1822 
 127   0.0000       0.414558        11.2807 
 128   0.0000       0.424231        11.5439 
 129   0.0000       0.429686        11.6924 
 130   0.0000       0.437944        11.9171 
 131   0.0000       0.444176        12.0867 
 132   0.0000       0.446695        12.1552 
 133   0.0000       0.450627        12.2622 
 134   0.0000       0.464450        12.6383 
 135   0.0000       0.472729        12.8636 
 136   0.0000       0.476796        12.9743 
 137   0.0000       0.485277        13.2051 
 138   0.0000       0.490020        13.3341 
 139   0.0000       0.499223        13.5846 
 140   0.0000       0.500856        13.6290 
 141   0.0000       0.503933        13.7127 
 142   0.0000       0.511773        13.9260 
 143   0.0000       0.531655        14.4671 
 144   0.0000       0.540884        14.7182 
 145   0.0000       0.546817        14.8796 
 146   0.0000       0.557349        15.1662 
 147   0.0000       0.562499        15.3064 
 148   0.0000       0.573979        15.6188 
 149   0.0000       0.585093        15.9212 
 150   0.0000       0.592707        16.1284 
 151   0.0000       0.595709        16.2101 
 152   0.0000       0.604974        16.4622 
 153   0.0000       0.615181        16.7399 
 154   0.0000       0.622149        16.9295 
 155   0.0000       0.639371        17.3982 
 156   0.0000       0.661368        17.9967 
 157   0.0000       0.674488        18.3537 
 158   0.0000       0.690671        18.7941 
 159   0.0000       0.719077        19.5671 
 160   0.0000       0.765765        20.8375 
 161   0.0000       0.770687        20.9715 
 162   0.0000       0.782511        21.2932 
 163   0.0000       0.787435        21.4272 
 164   0.0000       0.805090        21.9076 
 165   0.0000       0.818030        22.2597 
 166   0.0000       0.822821        22.3901 
 167   0.0000       0.832553        22.6549 
 168   0.0000       0.845041        22.9947 
 169   0.0000       0.850635        23.1470 
 170   0.0000       0.860344        23.4112 
 171   0.0000       0.868960        23.6456 
 172   0.0000       0.872702        23.7474 
 173   0.0000       0.884165        24.0594 
 174   0.0000       0.886706        24.1285 
 175   0.0000       0.898975        24.4623 
 176   0.0000       0.902033        24.5456 
 177   0.0000       0.917265        24.9600 
 178   0.0000       0.921025        25.0624 
 179   0.0000       0.921905        25.0863 
 180   0.0000       0.927087        25.2273 
 181   0.0000       0.935305        25.4509 
 182   0.0000       0.937584        25.5130 
 183   0.0000       0.943915        25.6852 
 184   0.0000       0.946688        25.7607 
 185   0.0000       0.957175        26.0461 
 186   0.0000       0.968608        26.3572 
 187   0.0000       0.971473        26.4351 
 188   0.0000       0.976857        26.5816 
 189   0.0000       0.991405        26.9775 
 190   0.0000       0.997058        27.1313 
 191   0.0000       1.005455        27.3598 
 192   0.0000       1.013783        27.5864 
 193   0.0000       1.016078        27.6489 
 194   0.0000       1.024718        27.8840 
 195   0.0000       1.026761        27.9396 
 196   0.0000       1.051763        28.6199 
 197   0.0000       1.054859        28.7042 
 198   0.0000       1.058269        28.7970 
 199   0.0000       1.066996        29.0344 
 200   0.0000       1.070167        29.1207 
 201   0.0000       1.089000        29.6332 
 202   0.0000       1.091638        29.7050 
 203   0.0000       1.099896        29.9297 
 204   0.0000       1.106937        30.1213 
 205   0.0000       1.110551        30.2196 
 206   0.0000       1.134849        30.8808 
 207   0.0000       1.148802        31.2605 
 208   0.0000       1.167795        31.7773 
 209   0.0000       1.176309        32.0090 
 210   0.0000       1.180390        32.1201 
 211   0.0000       1.192659        32.4539 
 212   0.0000       1.202136        32.7118 
 213   0.0000       1.209422        32.9100 
 214   0.0000       1.224273        33.3142 
 215   0.0000       1.243595        33.8399 
 216   0.0000       1.248524        33.9741 
 217   0.0000       1.259542        34.2739 
 218   0.0000       1.264706        34.4144 
 219   0.0000       1.277137        34.7527 
 220   0.0000       1.288249        35.0550 
 221   0.0000       1.310709        35.6662 
 222   0.0000       1.320019        35.9195 
 223   0.0000       1.341742        36.5107 
 224   0.0000       1.346506        36.6403 
 225   0.0000       1.360122        37.0108 
 226   0.0000       1.379150        37.5286 
 227   0.0000       1.384075        37.6626 
 228   0.0000       1.394969        37.9590 
 229   0.0000       1.404607        38.2213 
 230   0.0000       1.419144        38.6169 
 231   0.0000       1.425068        38.7781 
 232   0.0000       1.427310        38.8391 
 233   0.0000       1.433920        39.0189 
 234   0.0000       1.440737        39.2044 
 235   0.0000       1.451487        39.4970 
 236   0.0000       1.458240        39.6807 
 237   0.0000       1.473092        40.0849 
 238   0.0000       1.480828        40.2954 
 239   0.0000       1.499838        40.8127 
 240   0.0000       1.500435        40.8289 
 241   0.0000       1.516567        41.2679 
 242   0.0000       1.525317        41.5060 
 243   0.0000       1.526923        41.5497 
 244   0.0000       1.544061        42.0160 
 245   0.0000       1.556806        42.3628 
 246   0.0000       1.562134        42.5078 
 247   0.0000       1.572945        42.8020 
 248   0.0000       1.581571        43.0367 
 249   0.0000       1.590525        43.2804 
 250   0.0000       1.597258        43.4636 
 251   0.0000       1.605467        43.6870 
 252   0.0000       1.607621        43.7456 
 253   0.0000       1.616212        43.9794 
 254   0.0000       1.621115        44.1128 
 255   0.0000       1.634897        44.4878 
 256   0.0000       1.638583        44.5881 
 257   0.0000       1.645329        44.7717 
 258   0.0000       1.651872        44.9497 
 259   0.0000       1.670901        45.4675 
 260   0.0000       1.675097        45.5817 
 261   0.0000       1.687326        45.9145 
 262   0.0000       1.699062        46.2338 
 263   0.0000       1.703820        46.3633 
 264   0.0000       1.715423        46.6790 
 265   0.0000       1.720698        46.8226 
 266   0.0000       1.725127        46.9431 
 267   0.0000       1.734214        47.1904 
 268   0.0000       1.747910        47.5630 
 269   0.0000       1.752625        47.6914 
 270   0.0000       1.761026        47.9200 
 271   0.0000       1.764043        48.0021 
 272   0.0000       1.774539        48.2877 
 273   0.0000       1.783194        48.5232 
 274   0.0000       1.791729        48.7554 
 275   0.0000       1.805373        49.1267 
 276   0.0000       1.815471        49.4015 
 277   0.0000       1.826619        49.7048 
 278   0.0000       1.836658        49.9780 
 279   0.0000       1.857644        50.5491 
 280   0.0000       1.865185        50.7543 
 281   0.0000       1.883759        51.2597 
 282   0.0000       1.913499        52.0690 
 283   0.0000       1.918075        52.1935 
 284   0.0000       1.928859        52.4869 
 285   0.0000       1.942414        52.8558 
 286   0.0000       1.951729        53.1093 
 287   0.0000       1.967192        53.5300 
 288   0.0000       1.975106        53.7454 
 289   0.0000       2.018380        54.9229 
 290   0.0000       2.044106        55.6229 
 291   0.0000       2.047576        55.7174 
 292   0.0000       2.055699        55.9384 
 293   0.0000       2.063921        56.1622 
 294   0.0000       2.080219        56.6056 
 295   0.0000       2.101275        57.1786 
 296   0.0000       2.106460        57.3197 
 297   0.0000       2.121001        57.7154 
 298   0.0000       2.154181        58.6182 
 299   0.0000       2.167548        58.9820 
 300   0.0000       2.189805        59.5876 
 301   0.0000       2.210530        60.1516 
 302   0.0000       2.228601        60.6433 
 303   0.0000       2.236507        60.8584 
 304   0.0000       2.237187        60.8770 
 305   0.0000       2.250436        61.2375 
 306   0.0000       2.254896        61.3588 
 307   0.0000       2.261192        61.5302 
 308   0.0000       2.272471        61.8371 
 309   0.0000       2.293058        62.3973 
 310   0.0000       2.309185        62.8361 
 311   0.0000       2.313311        62.9484 
 312   0.0000       2.324217        63.2452 
 313   0.0000       2.328964        63.3743 
 314   0.0000       2.347220        63.8711 
 315   0.0000       2.353340        64.0376 
 316   0.0000       2.387779        64.9748 
 317   0.0000       2.407267        65.5051 
 318   0.0000       2.412902        65.6584 
 319   0.0000       2.429154        66.1007 
 320   0.0000       2.441431        66.4347 
 321   0.0000       2.453633        66.7667 
 322   0.0000       2.455905        66.8286 
 323   0.0000       2.469635        67.2022 
 324   0.0000       2.476821        67.3977 
 325   0.0000       2.489258        67.7362 
 326   0.0000       2.507219        68.2249 
 327   0.0000       2.516845        68.4868 
 328   0.0000       2.527442        68.7752 
 329   0.0000       2.537337        69.0445 
 330   0.0000       2.551792        69.4378 
 331   0.0000       2.567939        69.8772 
 332   0.0000       2.580069        70.2072 
 333   0.0000       2.589215        70.4561 
 334   0.0000       2.608210        70.9730 
 335   0.0000       2.621563        71.3364 
 336   0.0000       2.626108        71.4600 
 337   0.0000       2.644572        71.9625 
 338   0.0000       2.726339        74.1875 
 339   0.0000       2.764633        75.2295 
 340   0.0000       2.797228        76.1164 
 341   0.0000       2.873130        78.1819 
 342   0.0000       2.947752        80.2124 
 343   0.0000       2.966383        80.7194 
 344   0.0000       3.261432        88.7481 
 345   0.0000       4.985281       135.6564 
 346   0.0000       5.001490       136.0975 
 347   0.0000       5.006429       136.2319 
 348   0.0000       5.009723       136.3215 
 349   0.0000       5.011571       136.3718 
 350   0.0000       5.019440       136.5859 
 351   0.0000       5.032699       136.9467 
 352   0.0000       5.044109       137.2572 
 353   0.0000       5.048323       137.3719 
 354   0.0000       5.083991       138.3424 
 355   0.0000       5.104480       138.9000 
 356   0.0000       5.222310       142.1063 
 357   0.0000       5.231772       142.3638 
 358   0.0000       5.234550       142.4393 
 359   0.0000       5.271117       143.4344 
 360   0.0000       5.281396       143.7141 
 361   0.0000       5.291984       144.0022 
 362   0.0000       5.303516       144.3160 
 363   0.0000       5.310241       144.4990 
 364   0.0000       5.322414       144.8302 
 365   0.0000       5.356851       145.7673 
 366   0.0000       5.370039       146.1262 
 367   0.0000       5.392733       146.7437 
 368   0.0000       5.413937       147.3207 
 369   0.0000       5.483195       149.2053 
 370   0.0000       5.547135       150.9452 
 371   0.0000       5.568062       151.5147 
 372   0.0000       5.606885       152.5711 
 373   0.0000       5.623054       153.0111 
 374   0.0000       5.666262       154.1868 
 375   0.0000       5.707831       155.3180 
 376   0.0000       5.739602       156.1825 
 377   0.0000       5.802844       157.9034 
 378   0.0000       5.844599       159.0396 
 379   0.0000       5.871917       159.7830 
 380   0.0000       6.059184       164.8788 
 381   0.0000       6.323809       172.0796 
 382   0.0000      29.631217       806.3064 
 383   0.0000      29.788622       810.5896 
 384   0.0000      29.836468       811.8916 
 385   0.0000      29.921692       814.2106 
 386   0.0000      29.972918       815.6046 
 387   0.0000      29.983377       815.8892 
 388   0.0000      30.048833       817.6703 
 389   0.0000      30.069592       818.2352 
 390   0.0000      30.090666       818.8087 
 391   0.0000      30.111703       819.3811 
 392   0.0000      30.149031       820.3969 
 393   0.0000      30.213964       822.1638 
 394   0.0000      30.249555       823.1322 
 395   0.0000      30.278650       823.9240 
 396   0.0000      30.354490       825.9877 
 397   0.0000      30.549202       831.2860 
 398   0.0000      36.613252       996.2972 
 399   0.0000      36.629308       996.7341 
 400   0.0000      36.630586       996.7689 
 401   0.0000      36.633741       996.8548 
 402   0.0000      36.638210       996.9764 
 403   0.0000      36.659084       997.5444 
 404   0.0000      36.671284       997.8764 
 405   0.0000      36.674157       997.9545 
 406   0.0000      36.707030       998.8491 
 407   0.0000      36.717071       999.1223 
 408   0.0000      36.820737      1001.9432 
 409   0.0000      36.844976      1002.6028 
 410   0.0000      36.850521      1002.7537 
 411   0.0000      36.876129      1003.4505 
 412   0.0000      36.879151      1003.5327 
 413   0.0000      36.885209      1003.6976 
 414   0.0000      36.912572      1004.4421 
 415   0.0000      36.932788      1004.9923 
 416   0.0000      36.933738      1005.0181 
 417   0.0000      36.964801      1005.8634 
 418   0.0000      37.011481      1007.1336 

                 SPIN DOWN ORBITALS
  NO   OCC          E(Eh)            E(eV) 
   0   1.0000     -10.218502      -278.0596 
   1   1.0000     -10.208378      -277.7841 
   2   1.0000     -10.206780      -277.7406 
   3   1.0000     -10.202683      -277.6291 
   4   1.0000     -10.202335      -277.6197 
   5   1.0000     -10.197173      -277.4792 
   6   1.0000     -10.193844      -277.3886 
   7   1.0000     -10.191383      -277.3216 
   8   1.0000     -10.188127      -277.2330 
   9   1.0000     -10.186961      -277.2013 
  10   1.0000     -10.185310      -277.1564 
  11   1.0000     -10.182975      -277.0928 
  12   1.0000     -10.182601      -277.0827 
  13   1.0000     -10.182308      -277.0747 
  14   1.0000     -10.175985      -276.9026 
  15   1.0000     -10.173630      -276.8385 
  16   1.0000      -0.865120       -23.5411 
  17   1.0000      -0.810408       -22.0523 
  18   1.0000      -0.794973       -21.6323 
  19   1.0000      -0.772637       -21.0245 
  20   1.0000      -0.762384       -20.7455 
  21   1.0000      -0.730074       -19.8663 
  22   1.0000      -0.719872       -19.5887 
  23   1.0000      -0.681853       -18.5542 
  24   1.0000      -0.661701       -18.0058 
  25   1.0000      -0.617663       -16.8075 
  26   1.0000      -0.608637       -16.5619 
  27   1.0000      -0.589388       -16.0381 
  28   1.0000      -0.575089       -15.6490 
  29   1.0000      -0.563379       -15.3303 
  30   1.0000      -0.524378       -14.2691 
  31   1.0000      -0.492417       -13.3994 
  32   1.0000      -0.487803       -13.2738 
  33   1.0000      -0.469107       -12.7651 
  34   1.0000      -0.455362       -12.3910 
  35   1.0000      -0.447371       -12.1736 
  36   1.0000      -0.427092       -11.6218 
  37   1.0000      -0.419492       -11.4149 
  38   1.0000      -0.418613       -11.3910 
  39   1.0000      -0.415803       -11.3146 
  40   1.0000      -0.409188       -11.1346 
  41   1.0000      -0.397043       -10.8041 
  42   1.0000      -0.384357       -10.4589 
  43   1.0000      -0.377831       -10.2813 
  44   1.0000      -0.371697       -10.1144 
  45   1.0000      -0.365442        -9.9442 
  46   1.0000      -0.350869        -9.5476 
  47   1.0000      -0.347653        -9.4601 
  48   1.0000      -0.337955        -9.1962 
  49   1.0000      -0.333885        -9.0855 
  50   1.0000      -0.327577        -8.9138 
  51   1.0000      -0.322074        -8.7641 
  52   1.0000      -0.321055        -8.7363 
  53   1.0000      -0.320118        -8.7109 
  54   1.0000      -0.302146        -8.2218 
  55   1.0000      -0.273835        -7.4514 
  56   1.0000      -0.258372        -7.0306 
  57   1.0000      -0.226170        -6.1544 
  58   0.0000      -0.083394        -2.2693 
  59   0.0000      -0.022998        -0.6258 
  60   0.0000       0.016979         0.4620 
  61   0.0000       0.021131         0.5750 
  62   0.0000       0.023675         0.6442 
  63   0.0000       0.025788         0.7017 
  64   0.0000       0.037821         1.0292 
  65   0.0000       0.039064         1.0630 
  66   0.0000       0.043753         1.1906 
  67   0.0000       0.046452         1.2640 
  68   0.0000       0.051863         1.4113 
  69   0.0000       0.061922         1.6850 
  70   0.0000       0.073729         2.0063 
  71   0.0000       0.077016         2.0957 
  72   0.0000       0.090363         2.4589 
  73   0.0000       0.096458         2.6248 
  74   0.0000       0.112444         3.0598 
  75   0.0000       0.121534         3.3071 
  76   0.0000       0.131994         3.5917 
  77   0.0000       0.143567         3.9067 
  78   0.0000       0.154432         4.2023 
  79   0.0000       0.159567         4.3420 
  80   0.0000       0.170384         4.6364 
  81   0.0000       0.176431         4.8009 
  82   0.0000       0.182611         4.9691 
  83   0.0000       0.185698         5.0531 
  84   0.0000       0.192817         5.2468 
  85   0.0000       0.196512         5.3474 
  86   0.0000       0.198209         5.3935 
  87   0.0000       0.199588         5.4311 
  88   0.0000       0.202604         5.5131 
  89   0.0000       0.214442         5.8353 
  90   0.0000       0.216468         5.8904 
  91   0.0000       0.217847         5.9279 
  92   0.0000       0.219985         5.9861 
  93   0.0000       0.225720         6.1422 
  94   0.0000       0.230411         6.2698 
  95   0.0000       0.237350         6.4586 
  96   0.0000       0.239790         6.5250 
  97   0.0000       0.247184         6.7262 
  98   0.0000       0.253007         6.8847 
  99   0.0000       0.261447         7.1143 
 100   0.0000       0.268833         7.3153 
 101   0.0000       0.270255         7.3540 
 102   0.0000       0.279567         7.6074 
 103   0.0000       0.284521         7.7422 
 104   0.0000       0.286981         7.8092 
 105   0.0000       0.288450         7.8491 
 106   0.0000       0.293762         7.9937 
 107   0.0000       0.294685         8.0188 
 108   0.0000       0.300250         8.1702 
 109   0.0000       0.305745         8.3197 
 110   0.0000       0.309842         8.4312 
 111   0.0000       0.316561         8.6140 
 112   0.0000       0.325189         8.8488 
 113   0.0000       0.331686         9.0256 
 114   0.0000       0.337477         9.1832 
 115   0.0000       0.344454         9.3731 
 116   0.0000       0.347675         9.4607 
 117   0.0000       0.354812         9.6549 
 118   0.0000       0.358215         9.7475 
 119   0.0000       0.365438         9.9441 
 120   0.0000       0.366920         9.9844 
 121   0.0000       0.370592        10.0843 
 122   0.0000       0.376728        10.2513 
 123   0.0000       0.391587        10.6556 
 124   0.0000       0.401307        10.9201 
 125   0.0000       0.403502        10.9798 
 126   0.0000       0.412326        11.2200 
 127   0.0000       0.416486        11.3331 
 128   0.0000       0.430218        11.7068 
 129   0.0000       0.431540        11.7428 
 130   0.0000       0.440068        11.9749 
 131   0.0000       0.445280        12.1167 
 132   0.0000       0.449207        12.2235 
 133   0.0000       0.451900        12.2968 
 134   0.0000       0.465096        12.6559 
 135   0.0000       0.473514        12.8850 
 136   0.0000       0.478557        13.0222 
 137   0.0000       0.485052        13.1989 
 138   0.0000       0.491447        13.3730 
 139   0.0000       0.498891        13.5755 
 140   0.0000       0.503054        13.6888 
 141   0.0000       0.506029        13.7698 
 142   0.0000       0.515682        14.0324 
 143   0.0000       0.533069        14.5055 
 144   0.0000       0.542274        14.7560 
 145   0.0000       0.548845        14.9348 
 146   0.0000       0.559722        15.2308 
 147   0.0000       0.563188        15.3251 
 148   0.0000       0.574865        15.6429 
 149   0.0000       0.585201        15.9241 
 150   0.0000       0.593673        16.1547 
 151   0.0000       0.597028        16.2460 
 152   0.0000       0.606655        16.5079 
 153   0.0000       0.616097        16.7649 
 154   0.0000       0.624783        17.0012 
 155   0.0000       0.645395        17.5621 
 156   0.0000       0.663060        18.0428 
 157   0.0000       0.676182        18.3998 
 158   0.0000       0.692121        18.8336 
 159   0.0000       0.720509        19.6060 
 160   0.0000       0.767140        20.8749 
 161   0.0000       0.771476        20.9929 
 162   0.0000       0.785835        21.3837 
 163   0.0000       0.788946        21.4683 
 164   0.0000       0.805738        21.9252 
 165   0.0000       0.819470        22.2989 
 166   0.0000       0.824828        22.4447 
 167   0.0000       0.834250        22.7011 
 168   0.0000       0.845448        23.0058 
 169   0.0000       0.852567        23.1995 
 170   0.0000       0.861372        23.4391 
 171   0.0000       0.870081        23.6761 
 172   0.0000       0.872738        23.7484 
 173   0.0000       0.886519        24.1234 
 174   0.0000       0.889338        24.2001 
 175   0.0000       0.902436        24.5565 
 176   0.0000       0.904065        24.6009 
 177   0.0000       0.920231        25.0408 
 178   0.0000       0.921724        25.0814 
 179   0.0000       0.924246        25.1500 
 180   0.0000       0.930362        25.3164 
 181   0.0000       0.937113        25.5001 
 182   0.0000       0.938349        25.5338 
 183   0.0000       0.945043        25.7159 
 184   0.0000       0.948567        25.8118 
 185   0.0000       0.960501        26.1366 
 186   0.0000       0.969274        26.3753 
 187   0.0000       0.975867        26.5547 
 188   0.0000       0.979667        26.6581 
 189   0.0000       0.992323        27.0025 
 190   0.0000       0.999662        27.2022 
 191   0.0000       1.010170        27.4881 
 192   0.0000       1.015644        27.6371 
 193   0.0000       1.022025        27.8107 
 194   0.0000       1.025550        27.9066 
 195   0.0000       1.028377        27.9836 
 196   0.0000       1.056082        28.7374 
 197   0.0000       1.057102        28.7652 
 198   0.0000       1.061900        28.8958 
 199   0.0000       1.067970        29.0610 
 200   0.0000       1.073066        29.1996 
 201   0.0000       1.091241        29.6942 
 202   0.0000       1.093064        29.7438 
 203   0.0000       1.105209        30.0743 
 204   0.0000       1.108822        30.1726 
 205   0.0000       1.110985        30.2314 
 206   0.0000       1.136829        30.9347 
 207   0.0000       1.149409        31.2770 
 208   0.0000       1.170234        31.8437 
 209   0.0000       1.177030        32.0286 
 210   0.0000       1.181448        32.1488 
 211   0.0000       1.194760        32.5111 
 212   0.0000       1.202462        32.7206 
 213   0.0000       1.209827        32.9211 
 214   0.0000       1.224887        33.3309 
 215   0.0000       1.244960        33.8771 
 216   0.0000       1.250024        34.0149 
 217   0.0000       1.261674        34.3319 
 218   0.0000       1.266309        34.4580 
 219   0.0000       1.279330        34.8123 
 220   0.0000       1.290417        35.1140 
 221   0.0000       1.311451        35.6864 
 222   0.0000       1.322064        35.9752 
 223   0.0000       1.344221        36.5781 
 224   0.0000       1.348554        36.6960 
 225   0.0000       1.360797        37.0292 
 226   0.0000       1.383246        37.6400 
 227   0.0000       1.386486        37.7282 
 228   0.0000       1.396430        37.9988 
 229   0.0000       1.405347        38.2414 
 230   0.0000       1.421252        38.6742 
 231   0.0000       1.426138        38.8072 
 232   0.0000       1.428819        38.8801 
 233   0.0000       1.434281        39.0288 
 234   0.0000       1.441992        39.2386 
 235   0.0000       1.452033        39.5118 
 236   0.0000       1.458651        39.6919 
 237   0.0000       1.473478        40.0954 
 238   0.0000       1.483665        40.3726 
 239   0.0000       1.500170        40.8217 
 240   0.0000       1.502123        40.8749 
 241   0.0000       1.518674        41.3252 
 242   0.0000       1.525991        41.5243 
 243   0.0000       1.528126        41.5824 
 244   0.0000       1.544481        42.0275 
 245   0.0000       1.557700        42.3872 
 246   0.0000       1.563030        42.5322 
 247   0.0000       1.574371        42.8408 
 248   0.0000       1.585559        43.1453 
 249   0.0000       1.591300        43.3015 
 250   0.0000       1.598889        43.5080 
 251   0.0000       1.605958        43.7003 
 252   0.0000       1.608798        43.7776 
 253   0.0000       1.618874        44.0518 
 254   0.0000       1.623024        44.1647 
 255   0.0000       1.635552        44.5056 
 256   0.0000       1.640596        44.6429 
 257   0.0000       1.646164        44.7944 
 258   0.0000       1.653212        44.9862 
 259   0.0000       1.675974        45.6056 
 260   0.0000       1.677015        45.6339 
 261   0.0000       1.688367        45.9428 
 262   0.0000       1.699978        46.2588 
 263   0.0000       1.705212        46.4012 
 264   0.0000       1.717225        46.7281 
 265   0.0000       1.723449        46.8974 
 266   0.0000       1.725969        46.9660 
 267   0.0000       1.735669        47.2299 
 268   0.0000       1.752126        47.6778 
 269   0.0000       1.754482        47.7419 
 270   0.0000       1.763230        47.9799 
 271   0.0000       1.767841        48.1054 
 272   0.0000       1.776322        48.3362 
 273   0.0000       1.784575        48.5607 
 274   0.0000       1.798638        48.9434 
 275   0.0000       1.810381        49.2630 
 276   0.0000       1.818913        49.4951 
 277   0.0000       1.832470        49.8640 
 278   0.0000       1.840058        50.0705 
 279   0.0000       1.858636        50.5761 
 280   0.0000       1.868781        50.8521 
 281   0.0000       1.885337        51.3026 
 282   0.0000       1.914798        52.1043 
 283   0.0000       1.920135        52.2495 
 284   0.0000       1.935784        52.6754 
 285   0.0000       1.943478        52.8847 
 286   0.0000       1.952142        53.1205 
 287   0.0000       1.969298        53.5873 
 288   0.0000       1.983888        53.9843 
 289   0.0000       2.021166        54.9987 
 290   0.0000       2.044717        55.6396 
 291   0.0000       2.049260        55.7632 
 292   0.0000       2.056408        55.9577 
 293   0.0000       2.065109        56.1945 
 294   0.0000       2.081495        56.6404 
 295   0.0000       2.102385        57.2088 
 296   0.0000       2.107452        57.3467 
 297   0.0000       2.123842        57.7927 
 298   0.0000       2.154781        58.6346 
 299   0.0000       2.169801        59.0433 
 300   0.0000       2.190723        59.6126 
 301   0.0000       2.213745        60.2391 
 302   0.0000       2.229323        60.6630 
 303   0.0000       2.239019        60.9268 
 304   0.0000       2.239692        60.9451 
 305   0.0000       2.250841        61.2485 
 306   0.0000       2.256040        61.3900 
 307   0.0000       2.261996        61.5520 
 308   0.0000       2.274264        61.8859 
 309   0.0000       2.295336        62.4593 
 310   0.0000       2.310155        62.8625 
 311   0.0000       2.314214        62.9730 
 312   0.0000       2.324460        63.2518 
 313   0.0000       2.329610        63.3919 
 314   0.0000       2.348557        63.9075 
 315   0.0000       2.353650        64.0461 
 316   0.0000       2.390303        65.0435 
 317   0.0000       2.407849        65.5209 
 318   0.0000       2.413113        65.6641 
 319   0.0000       2.429637        66.1138 
 320   0.0000       2.441839        66.4458 
 321   0.0000       2.454403        66.7877 
 322   0.0000       2.456122        66.8345 
 323   0.0000       2.469775        67.2060 
 324   0.0000       2.476914        67.4002 
 325   0.0000       2.489530        67.7435 
 326   0.0000       2.507815        68.2411 
 327   0.0000       2.517652        68.5088 
 328   0.0000       2.527812        68.7853 
 329   0.0000       2.538161        69.0669 
 330   0.0000       2.552784        69.4648 
 331   0.0000       2.568509        69.8927 
 332   0.0000       2.581463        70.2452 
 333   0.0000       2.590505        70.4912 
 334   0.0000       2.608587        70.9833 
 335   0.0000       2.622177        71.3531 
 336   0.0000       2.626905        71.4817 
 337   0.0000       2.645592        71.9902 
 338   0.0000       2.727683        74.2240 
 339   0.0000       2.765944        75.2652 
 340   0.0000       2.798281        76.1451 
 341   0.0000       2.874355        78.2152 
 342   0.0000       2.949788        80.2678 
 343   0.0000       2.965658        80.6996 
 344   0.0000       3.263122        88.7941 
 345   0.0000       4.985601       135.6651 
 346   0.0000       5.001960       136.1102 
 347   0.0000       5.006731       136.2401 
 348   0.0000       5.009951       136.3277 
 349   0.0000       5.013021       136.4112 
 350   0.0000       5.020418       136.6125 
 351   0.0000       5.032786       136.9491 
 352   0.0000       5.044622       137.2711 
 353   0.0000       5.049061       137.3919 
 354   0.0000       5.081287       138.2689 
 355   0.0000       5.104973       138.9134 
 356   0.0000       5.223269       142.1324 
 357   0.0000       5.232057       142.3715 
 358   0.0000       5.234618       142.4412 
 359   0.0000       5.271268       143.4385 
 360   0.0000       5.281688       143.7220 
 361   0.0000       5.293672       144.0481 
 362   0.0000       5.303600       144.3183 
 363   0.0000       5.310912       144.5173 
 364   0.0000       5.321273       144.7992 
 365   0.0000       5.357081       145.7736 
 366   0.0000       5.370087       146.1275 
[...]
 A(ORB)          0.0000               0.0000               0.0001    A(PC) =   0.0000
 A(DIA)          0.0001               0.0000               0.0000    A(PC) =   0.0000
             ----------           ----------           ----------
 A(Tot)         -0.1122              -0.1287               0.4243    A(iso)=    0.0612
 Orientation: 
  X           0.9777318           -0.1929219            0.0825937
  Y          -0.0667217            0.0873780            0.9939383
  Z          -0.1989693           -0.9773158            0.0725601

Notes:  (1) The A matrix conforms to the "SAI" spin Hamiltonian convention.
        (2) Tensor is right-handed.

 -----------------------------------------------------------
 Nucleus  34H : A:ISTP=    1 I=  0.5 P=533.5514 MHz/au**3
                Q:ISTP=    2 I=  1.0 Q=  0.0029 barn     
 -----------------------------------------------------------
 Solving for nuclear perturbation:
Forming RHS of the CP-SCF equations         ... 
Calc. nucleus orbit integrals (SHARK)       ... done

------------------------------------------------------------------------------
                           ORCA CP-SCF CALCULATION
------------------------------------------------------------------------------

Input orbitals are from        ... EPRII.gbw
Input Perturbation             ... EPRII.pin.tmp
Wavefunction output            ... EPRII.pout.tmp
Perturbation mode              ... Imaginary perturbation
Solver                         ... POPLE
Max. number of iterations      ... 64
Convergence tolerance          ... 1.000e-03
Integral handling              ... Direct
DFT GridXC                     ... 1
COSX GridX                     ... 1
COSX IntAccX                   ... 3.067
COSX Algorithm                 ... Auto
Number of perturbations        ... 3
Number of operators            ... 2
Orbital ranges used for CP-SCF:
 Operator 0:  Orbitals   0... 58  to  59...418
 Operator 1:  Orbitals   0... 57  to  58...418
Variables per perturbation     ... 42178
DFT calculation                         ... on
XC functional terms                     ... off
Hybrid DFT                              ... on
   Exchange mixing (SCF)                ...  0.200
   Exchange mixing (CP-SCF)             ...  0.200
   GGA exch. scaling(SCF)               ...  0.720
   GGA exch. scaling (CP-SCF)           ...  0.720
   GGA corr. scaling (SCF)              ...  0.810
   GGA corr. scaling (CP-SCF)           ...  0.810

CP-SCF GRID
-----------

General Integration Accuracy     IntAcc      ... 3.467
Radial Grid Type                 RadialGrid  ... OptM3 with GC (2021)
Angular Grid (max. ang.)         AngularGrid ... 1 (Lebedev-50)
Angular grid pruning method      GridPruning ... 4 (adaptive)
Weight generation scheme         WeightScheme... Becke
Basis function cutoff            BFCut       ... 1.0000e-10
Integration weight cutoff        WCut        ... 1.0000e-14
Angular grids for H and He will be reduced by one unit
Partially contracted basis set               ... off
Rotationally invariant grid construction     ... off

Total number of grid points                  ...    22895
Total number of batches                      ...      373
Average number of points per batch           ...       61
Average number of grid points per atom       ...      619

CP-SCF GRIDX
------------

General Integration Accuracy     IntAcc      ... 3.067
Radial Grid Type                 RadialGrid  ... OptM3 with GC (2021)
Angular Grid (max. ang.)         AngularGrid ... 1 (Lebedev-50)
Angular grid pruning method      GridPruning ... 4 (adaptive)
Weight generation scheme         WeightScheme... Becke
Basis function cutoff            BFCut       ... 1.0000e-10
Integration weight cutoff        WCut        ... 1.0000e-14
Angular grids for H and He will be reduced by one unit
Partially contracted basis set               ... on
Rotationally invariant grid construction     ... off

Total number of grid points                  ...    10842
Total number of batches                      ...      192
Average number of points per batch           ...       56
Average number of grid points per atom       ...      293

Memory available               ... 902.8 MB
Memory needed per perturbation ...  10.3 MB
Perturbations treated per batch... 3
Number of batches              ... 1
     CP-SCF ITERATION   0:   9.8821e-02 (   1.1 sec   0/  3 done)
     CP-SCF ITERATION   1:   2.2267e-03 (   1.1 sec   0/  3 done)
     CP-SCF ITERATION   2:   1.7697e-04 (   1.1 sec   3/  3 done)
                    *** THE CP-SCF HAS CONVERGED ***

Forming final perturbed densities           ... done
Transforming perturbed density to AO basis  ... done

 Raw HFC matrix (all values in MHz): 
 -----------------------------------
                 2.7952               0.3444               0.1296
                 0.3443               5.1058              -0.1289
                 0.1296              -0.1290               3.6185

 A(FC)           3.8401               3.8401               3.8401
 A(SD)          -1.1192              -0.2053               1.3245
 A(ORB+DIA)     -0.0001               0.0001              -0.0008    A(PC) =  -0.0003
 A(ORB)          0.0000              -0.0001              -0.0009    A(PC) =  -0.0003
 A(DIA)         -0.0001               0.0002               0.0001    A(PC) =   0.0001
             ----------           ----------           ----------
 A(Tot)          2.7208               3.6349               5.1638    A(iso)=    3.8398
 Orientation: 
  X          -0.9753266            0.1708956            0.1397595
  Y           0.1496301            0.0462470            0.9876599
  Z           0.1623233            0.9842032           -0.0706770

Notes:  (1) The A matrix conforms to the "SAI" spin Hamiltonian convention.
        (2) Tensor is right-handed.

 -----------------------------------------------------------
 Nucleus  35H : A:ISTP=    1 I=  0.5 P=533.5514 MHz/au**3
                Q:ISTP=    2 I=  1.0 Q=  0.0029 barn     
 -----------------------------------------------------------
 Solving for nuclear perturbation:
Forming RHS of the CP-SCF equations         ... 
Calc. nucleus orbit integrals (SHARK)       ... done

------------------------------------------------------------------------------
                           ORCA CP-SCF CALCULATION
------------------------------------------------------------------------------

Input orbitals are from        ... EPRII.gbw
Input Perturbation             ... EPRII.pin.tmp
Wavefunction output            ... EPRII.pout.tmp
Perturbation mode              ... Imaginary perturbation
Solver                         ... POPLE
Max. number of iterations      ... 64
Convergence tolerance          ... 1.000e-03
Integral handling              ... Direct
DFT GridXC                     ... 1
COSX GridX                     ... 1
COSX IntAccX                   ... 3.067
COSX Algorithm                 ... Auto
Number of perturbations        ... 3
Number of operators            ... 2
Orbital ranges used for CP-SCF:
 Operator 0:  Orbitals   0... 58  to  59...418
 Operator 1:  Orbitals   0... 57  to  58...418
Variables per perturbation     ... 42178
DFT calculation                         ... on
XC functional terms                     ... off
Hybrid DFT                              ... on
   Exchange mixing (SCF)                ...  0.200
   Exchange mixing (CP-SCF)             ...  0.200
   GGA exch. scaling(SCF)               ...  0.720
   GGA exch. scaling (CP-SCF)           ...  0.720
   GGA corr. scaling (SCF)              ...  0.810
   GGA corr. scaling (CP-SCF)           ...  0.810

CP-SCF GRID
-----------

General Integration Accuracy     IntAcc      ... 3.467
Radial Grid Type                 RadialGrid  ... OptM3 with GC (2021)
Angular Grid (max. ang.)         AngularGrid ... 1 (Lebedev-50)
Angular grid pruning method      GridPruning ... 4 (adaptive)
Weight generation scheme         WeightScheme... Becke
Basis function cutoff            BFCut       ... 1.0000e-10
Integration weight cutoff        WCut        ... 1.0000e-14
Angular grids for H and He will be reduced by one unit
Partially contracted basis set               ... off
Rotationally invariant grid construction     ... off

Total number of grid points                  ...    22895
Total number of batches                      ...      373
Average number of points per batch           ...       61
Average number of grid points per atom       ...      619

CP-SCF GRIDX
------------

General Integration Accuracy     IntAcc      ... 3.067
Radial Grid Type                 RadialGrid  ... OptM3 with GC (2021)
Angular Grid (max. ang.)         AngularGrid ... 1 (Lebedev-50)
Angular grid pruning method      GridPruning ... 4 (adaptive)
Weight generation scheme         WeightScheme... Becke
Basis function cutoff            BFCut       ... 1.0000e-10
Integration weight cutoff        WCut        ... 1.0000e-14
Angular grids for H and He will be reduced by one unit
Partially contracted basis set               ... on
Rotationally invariant grid construction     ... off

Total number of grid points                  ...    10842
Total number of batches                      ...      192
Average number of points per batch           ...       56
Average number of grid points per atom       ...      293

Memory available               ... 902.4 MB
Memory needed per perturbation ...  10.3 MB
Perturbations treated per batch... 3
Number of batches              ... 1
     CP-SCF ITERATION   0:   3.6839e-02 (   1.1 sec   0/  3 done)
     CP-SCF ITERATION   1:   6.2621e-04 (   1.1 sec   3/  3 done)
                    *** THE CP-SCF HAS CONVERGED ***

Forming final perturbed densities           ... done
Transforming perturbed density to AO basis  ... done

 Raw HFC matrix (all values in MHz): 
 -----------------------------------
                 1.4073              -0.3946               0.4542
                -0.3948               0.3919              -0.1481
                 0.4541              -0.1480               0.4891

 A(FC)           0.7627               0.7627               0.7627
 A(SD)          -0.5071              -0.4569               0.9640
 A(ORB+DIA)     -0.0000              -0.0000               0.0003    A(PC) =   0.0001
 A(ORB)         -0.0001              -0.0000               0.0002    A(PC) =   0.0000
 A(DIA)          0.0000               0.0000               0.0001    A(PC) =   0.0000
             ----------           ----------           ----------
 A(Tot)          0.2556               0.3058               1.7270    A(iso)=    0.7628
 Orientation: 
  X           0.3651960           -0.2946789            0.8830607
  Y           0.9225532            0.2415316           -0.3009288
  Z          -0.1246097            0.9245685            0.3600633

Notes:  (1) The A matrix conforms to the "SAI" spin Hamiltonian convention.
        (2) Tensor is right-handed.

 -----------------------------------------------------------
 Nucleus  36H : A:ISTP=    1 I=  0.5 P=533.5514 MHz/au**3
                Q:ISTP=    2 I=  1.0 Q=  0.0029 barn     
 -----------------------------------------------------------
 Solving for nuclear perturbation:
Forming RHS of the CP-SCF equations         ... 
Calc. nucleus orbit integrals (SHARK)       ... done

------------------------------------------------------------------------------
                           ORCA CP-SCF CALCULATION
------------------------------------------------------------------------------

Input orbitals are from        ... EPRII.gbw
Input Perturbation             ... EPRII.pin.tmp
Wavefunction output            ... EPRII.pout.tmp
Perturbation mode              ... Imaginary perturbation
Solver                         ... POPLE
Max. number of iterations      ... 64
Convergence tolerance          ... 1.000e-03
Integral handling              ... Direct
DFT GridXC                     ... 1
COSX GridX                     ... 1
COSX IntAccX                   ... 3.067
COSX Algorithm                 ... Auto
Number of perturbations        ... 3
Number of operators            ... 2
Orbital ranges used for CP-SCF:
 Operator 0:  Orbitals   0... 58  to  59...418
 Operator 1:  Orbitals   0... 57  to  58...418
Variables per perturbation     ... 42178
DFT calculation                         ... on
XC functional terms                     ... off
Hybrid DFT                              ... on
   Exchange mixing (SCF)                ...  0.200
   Exchange mixing (CP-SCF)             ...  0.200
   GGA exch. scaling(SCF)               ...  0.720
   GGA exch. scaling (CP-SCF)           ...  0.720
   GGA corr. scaling (SCF)              ...  0.810
   GGA corr. scaling (CP-SCF)           ...  0.810

CP-SCF GRID
-----------

General Integration Accuracy     IntAcc      ... 3.467
Radial Grid Type                 RadialGrid  ... OptM3 with GC (2021)
Angular Grid (max. ang.)         AngularGrid ... 1 (Lebedev-50)
Angular grid pruning method      GridPruning ... 4 (adaptive)
Weight generation scheme         WeightScheme... Becke
Basis function cutoff            BFCut       ... 1.0000e-10
Integration weight cutoff        WCut        ... 1.0000e-14
Angular grids for H and He will be reduced by one unit
Partially contracted basis set               ... off
Rotationally invariant grid construction     ... off

Total number of grid points                  ...    22895
Total number of batches                      ...      373
Average number of points per batch           ...       61
Average number of grid points per atom       ...      619

CP-SCF GRIDX
------------

General Integration Accuracy     IntAcc      ... 3.067
Radial Grid Type                 RadialGrid  ... OptM3 with GC (2021)
Angular Grid (max. ang.)         AngularGrid ... 1 (Lebedev-50)
Angular grid pruning method      GridPruning ... 4 (adaptive)
Weight generation scheme         WeightScheme... Becke
Basis function cutoff            BFCut       ... 1.0000e-10
Integration weight cutoff        WCut        ... 1.0000e-14
Angular grids for H and He will be reduced by one unit
Partially contracted basis set               ... on
Rotationally invariant grid construction     ... off

Total number of grid points                  ...    10842
Total number of batches                      ...      192
Average number of points per batch           ...       56
Average number of grid points per atom       ...      293

Memory available               ... 901.9 MB
Memory needed per perturbation ...  10.3 MB
Perturbations treated per batch... 3
Number of batches              ... 1
     CP-SCF ITERATION   0:   3.6915e-02 (   1.2 sec   0/  3 done)
     CP-SCF ITERATION   1:   5.9123e-04 (   1.1 sec   3/  3 done)
                    *** THE CP-SCF HAS CONVERGED ***

Forming final perturbed densities           ... done
Transforming perturbed density to AO basis  ... done

 Raw HFC matrix (all values in MHz): 
 -----------------------------------
                -0.1239               0.0919              -0.0070
                 0.0920               0.2340              -0.0314
                -0.0071              -0.0314              -0.1406

 A(FC)          -0.0102              -0.0102              -0.0102
 A(SD)          -0.1329              -0.1361               0.2689
 A(ORB+DIA)      0.0000               0.0001               0.0001    A(PC) =   0.0001
 A(ORB)          0.0000               0.0000               0.0001    A(PC) =   0.0000
 A(DIA)          0.0000               0.0000               0.0000    A(PC) =   0.0000
             ----------           ----------           ----------
 A(Tot)         -0.1431              -0.1462               0.2588    A(iso)=   -0.0102
 Orientation: 
  X           0.1836198            0.9546980            0.2341698
  Y           0.0371035           -0.2447817            0.9688680
  Z           0.9822969           -0.1692148           -0.0803694

Notes:  (1) The A matrix conforms to the "SAI" spin Hamiltonian convention.
        (2) Tensor is right-handed.


--------------------------------------------------------------------------------
----------------------------------------------------------------------------
                           ORCA EULER ANGLE PROGRAM
----------------------------------------------------------------------------

Only g-tensor available        -->  using g-tensor as reference tensor

Reference tensor               ...  g

g-tensor ordering              ...  |g_min> --> |gx>
                                    |g_mid> --> |gy>
                                    |g_max> --> |gz>

A- and EFG-tensor ordering     ...  the axes |Ax>, |Qx>, |Ay>, etc. are assigned
                                    such that the Euler rotation is minimal. You
                                    can find the respective eigenvalues as Ax,
                                    EFGx, Ay, etc. in the tables below.
                                    The relation of |Ax>, |Ay>,  etc. to Amin, Amid, etc.
                                    (as printed in the ORCA EPR/NMR CALCULATION Output)
                                    is obtained in the detailed printout.

Euler rotation around          ...  z - y - z
   First rotation              -->  by alpha around z
   Second rotation             -->  by beta around y'
   Third rotation              -->  by gamma around z''
   Positive / Negative angle   -->  clockwise / counterclockwise rotation

Plot EFG-tensors                    (-)
Plot HFC-tensors                    (-)
Detailed Printout                   (-)

-------------------------------------------------------------------------
          Euler rotation of hyperfine tensor to g-tensor
-------------------------------------------------------------------------

-------------------------------------------------------------------
 Atom  |   Alpha    Beta    Gamma   |   Ax       Ay       Az 
       |          [degrees]         |           [MHz]         
-------------------------------------------------------------------
  7H      -86.5     44.4     91.9     -18.66   -21.81    -7.81
  8H       88.0     42.6    -83.8       4.41     5.53    10.20
 10H       87.4     11.4    -84.6     -49.06   -75.02   -20.13
 11H       87.4     40.1    -84.8     -48.94   -19.54   -74.07
 13H     -131.4     33.6    100.3       3.97     4.18     8.42
 14H     -113.6     23.6    116.7       6.21     7.63    13.02
 16H       -3.3     43.0     36.6      -3.24    -1.36     3.52
 17H      170.1     28.3   -130.1       2.11    -1.73    -1.21
 19H      -53.5     12.7     24.9      -0.75    -0.59     1.27
 20H      -30.4     25.5     66.4      -0.24    -0.16     1.36
 22H     -133.5     60.0    135.4      27.14    31.33    27.83
 23H       33.7     53.2    -61.6      27.64    28.35    31.84
 25H      101.7     18.9    -86.1      -1.11     1.09    -1.00
 26H       60.5     19.9    -68.7      -1.12     1.09    -1.01
 28H      -23.5     32.3     15.8      -0.11     0.91    -0.16
 29H     -155.8     28.6    172.1      -0.11     0.92    -0.15
 31H       40.3     10.1    -43.6      -0.13     0.43    -0.11
 32H      100.5      7.4    -89.3      -0.13     0.42    -0.11
 34H       60.8      2.9    -57.0       3.63     5.16     2.72
 35H      -21.3     32.5     21.3       0.31     0.26     1.73
 36H      -78.6      3.0     82.8      -0.14     0.26    -0.15
-------------------------------------------------------------------


Maximum memory used throughout the entire EPRNMR-calculation: 164.3 MB

Timings for individual modules:

Sum of individual times         ...     1657.944 sec (=  27.632 min)
GTO integral calculation        ...        5.029 sec (=   0.084 min)   0.3 %
Spin-Orbit-Coupling Matrices    ...        8.399 sec (=   0.140 min)   0.5 %
SCF iterations                  ...       22.638 sec (=   0.377 min)   1.4 %
EPR/NMR calculation             ...     1621.878 sec (=  27.031 min)  97.8 %
                             ****ORCA TERMINATED NORMALLY****
TOTAL RUN TIME: 0 days 0 hours 27 minutes 42 seconds 462 msec
