
                                 *****************
                                 * O   R   C   A *
                                 *****************

                                            #,                                       
                                            ###                                      
                                            ####                                     
                                            #####                                    
                                            ######                                   
                                           ########,                                 
                                     ,,################,,,,,                         
                               ,,#################################,,                 
                          ,,##########################################,,             
                       ,#########################################, ''#####,          
                    ,#############################################,,   '####,        
                  ,##################################################,,,,####,       
                ,###########''''           ''''###############################       
              ,#####''   ,,,,##########,,,,          '''####'''          '####       
            ,##' ,,,,###########################,,,                        '##       
           ' ,,###''''                  '''############,,,                           
         ,,##''                                '''############,,,,        ,,,,,,###''
      ,#''                                            '''#######################'''  
     '                                                          ''''####''''         
             ,#######,   #######,   ,#######,      ##                                
            ,#'     '#,  ##    ##  ,#'     '#,    #''#        ######   ,####,        
            ##       ##  ##   ,#'  ##            #'  '#       #        #'  '#        
            ##       ##  #######   ##           ,######,      #####,   #    #        
            '#,     ,#'  ##    ##  '#,     ,#' ,#      #,         ##   #,  ,#        
             '#######'   ##     ##  '#######'  #'      '#     #####' # '####'        



                  #######################################################
                  #                        -***-                        #
                  #          Department of theory and spectroscopy      #
                  #    Directorship and core code : Frank Neese         #
                  #        Max Planck Institute fuer Kohlenforschung    #
                  #                Kaiser Wilhelm Platz 1               #
                  #                 D-45470 Muelheim/Ruhr               #
                  #                      Germany                        #
                  #                                                     #
                  #                  All rights reserved                #
                  #                        -***-                        #
                  #######################################################


                         Program Version 5.0.4 -  RELEASE  -


 With contributions from (in alphabetic order):
   Daniel Aravena         : Magnetic Suceptibility
   Michael Atanasov       : Ab Initio Ligand Field Theory (pilot matlab implementation)
   Alexander A. Auer      : GIAO ZORA, VPT2 properties, NMR spectrum
   Ute Becker             : Parallelization
   Giovanni Bistoni       : ED, misc. LED, open-shell LED, HFLD
   Martin Brehm           : Molecular dynamics
   Dmytro Bykov           : SCF Hessian
   Vijay G. Chilkuri      : MRCI spin determinant printing, contributions to CSF-ICE
   Dipayan Datta          : RHF DLPNO-CCSD density
   Achintya Kumar Dutta   : EOM-CC, STEOM-CC
   Dmitry Ganyushin       : Spin-Orbit,Spin-Spin,Magnetic field MRCI
   Miquel Garcia          : C-PCM and meta-GGA Hessian, CC/C-PCM, Gaussian charge scheme
   Yang Guo               : DLPNO-NEVPT2, F12-NEVPT2, CIM, IAO-localization
   Andreas Hansen         : Spin unrestricted coupled pair/coupled cluster methods
   Benjamin Helmich-Paris : MC-RPA, TRAH-SCF, COSX integrals
   Lee Huntington         : MR-EOM, pCC
   Robert Izsak           : Overlap fitted RIJCOSX, COSX-SCS-MP3, EOM
   Marcus Kettner         : VPT2
   Christian Kollmar      : KDIIS, OOCD, Brueckner-CCSD(T), CCSD density, CASPT2, CASPT2-K
   Simone Kossmann        : Meta GGA functionals, TD-DFT gradient, OOMP2, MP2 Hessian
   Martin Krupicka        : Initial AUTO-CI
   Lucas Lang             : DCDCAS
   Marvin Lechner         : AUTO-CI (C++ implementation), FIC-MRCC
   Dagmar Lenk            : GEPOL surface, SMD
   Dimitrios Liakos       : Extrapolation schemes; Compound Job, initial MDCI parallelization
   Dimitrios Manganas     : Further ROCIS development; embedding schemes
   Dimitrios Pantazis     : SARC Basis sets
   Anastasios Papadopoulos: AUTO-CI, single reference methods and gradients
   Taras Petrenko         : DFT Hessian,TD-DFT gradient, ASA, ECA, R-Raman, ABS, FL, XAS/XES, NRVS
   Peter Pinski           : DLPNO-MP2, DLPNO-MP2 Gradient
   Christoph Reimann      : Effective Core Potentials
   Marius Retegan         : Local ZFS, SOC
   Christoph Riplinger    : Optimizer, TS searches, QM/MM, DLPNO-CCSD(T), (RO)-DLPNO pert. Triples
   Tobias Risthaus        : Range-separated hybrids, TD-DFT gradient, RPA, STAB
   Michael Roemelt        : Original ROCIS implementation
   Masaaki Saitow         : Open-shell DLPNO-CCSD energy and density
   Barbara Sandhoefer     : DKH picture change effects
   Avijit Sen             : IP-ROCIS
   Kantharuban Sivalingam : CASSCF convergence, NEVPT2, FIC-MRCI
   Bernardo de Souza      : ESD, SOC TD-DFT
   Georgi Stoychev        : AutoAux, RI-MP2 NMR, DLPNO-MP2 response
   Willem Van den Heuvel  : Paramagnetic NMR
   Boris Wezisla          : Elementary symmetry handling
   Frank Wennmohs         : Technical directorship


 We gratefully acknowledge several colleagues who have allowed us to
 interface, adapt or use parts of their codes:
   Stefan Grimme, W. Hujo, H. Kruse, P. Pracht,  : VdW corrections, initial TS optimization,
                  C. Bannwarth, S. Ehlert          DFT functionals, gCP, sTDA/sTD-DF
   Ed Valeev, F. Pavosevic, A. Kumar             : LibInt (2-el integral package), F12 methods
   Garnet Chan, S. Sharma, J. Yang, R. Olivares  : DMRG
   Ulf Ekstrom                                   : XCFun DFT Library
   Mihaly Kallay                                 : mrcc  (arbitrary order and MRCC methods)
   Jiri Pittner, Ondrej Demel                    : Mk-CCSD
   Frank Weinhold                                : gennbo (NPA and NBO analysis)
   Christopher J. Cramer and Donald G. Truhlar   : smd solvation model
   Lars Goerigk                                  : TD-DFT with DH, B97 family of functionals
   V. Asgeirsson, H. Jonsson                     : NEB implementation
   FAccTs GmbH                                   : IRC, NEB, NEB-TS, DLPNO-Multilevel, CI-OPT
                                                   MM, QMMM, 2- and 3-layer-ONIOM, Crystal-QMMM,
                                                   LR-CPCM, SF, NACMEs, symmetry and pop. for TD-DFT,
                                                   nearIR, NL-DFT gradient (VV10), updates on ESD,
                                                   ML-optimized integration grids
   S Lehtola, MJT Oliveira, MAL Marques          : LibXC Library
   Liviu Ungur et al                             : ANISO software


 Your calculation uses the libint2 library for the computation of 2-el integrals
 For citations please refer to: http://libint.valeyev.net

 Your ORCA version has been built with support for libXC version: 5.1.0
 For citations please refer to: https://tddft.org/programs/libxc/

 This ORCA versions uses:
   CBLAS   interface :  Fast vector & matrix operations
   LAPACKE interface :  Fast linear algebra routines
   SCALAPACK package :  Parallel linear algebra routines
   Shared memory     :  Shared parallel matrices
   BLAS/LAPACK       :  OpenBLAS 0.3.15  USE64BITINT DYNAMIC_ARCH NO_AFFINITY SkylakeX SINGLE_THREADED
        Core in use  :  SkylakeX
   Copyright (c) 2011-2014, The OpenBLAS Project




***************************************
The coordinates will be read from file: opt.xyz
***************************************


================================================================================

----- Orbital basis set information -----
Your calculation utilizes the basis: EPR-II
   V. Barone, in Recent Advances in Density Functional Methods, Part 1 (ed. D. P. Chong), World Scientific, Singapore, 1995, p. 287.

----- AuxJ basis set information -----
Your calculation utilizes the AutoAux generation procedure.
  G. L. Stoychev, A. A. Auer, F. Neese, J. Chem. Theory Comput. 13, 554 (2017)

----- AuxC basis set information -----
Your calculation utilizes the AutoAux generation procedure.
  G. L. Stoychev, A. A. Auer, F. Neese, J. Chem. Theory Comput. 13, 554 (2017)

----- AuxJK basis set information -----
Your calculation utilizes the AutoAux generation procedure.
  G. L. Stoychev, A. A. Auer, F. Neese, J. Chem. Theory Comput. 13, 554 (2017)

================================================================================
                                        WARNINGS
                       Please study these warnings very carefully!
================================================================================


WARNING: your system is open-shell and RHF/RKS was chosen
  ===> : WILL SWITCH to UHF/UKS


INFO   : the flag for use of the SHARK integral package has been found!

================================================================================
                                       INPUT FILE
================================================================================
NAME = EPRII.inp
|  1> ! B3LYP EPR-II AUTOAUX
|  2> %pal nprocs 16 end
|  3> *XYZFile 0 2 opt.xyz
|  4> %EPRNMR
|  5>         GTENSOR   TRUE
|  6>         NUCLEI    = ALL H {SHIFT, AISO, ADIP, AORB}
|  7>         ORI       GIAO
|  8> END
|  9> 
| 10>                          ****END OF INPUT****
================================================================================

                       ****************************
                       * Single Point Calculation *
                       ****************************

---------------------------------
CARTESIAN COORDINATES (ANGSTROEM)
---------------------------------
  C     -2.631597    0.129889    0.152946
  C      1.575864   -0.218018   -0.504992
  C      0.963822    1.083546   -0.471921
  C     -0.443340    1.138551   -0.248119
  C     -1.220279   -0.005180   -0.065902
  C     -0.611010   -1.294596   -0.103795
  C      0.773999   -1.347005   -0.323995
  H     -0.932113    2.114973   -0.219804
  H      1.262338   -2.323049   -0.360688
  C      1.682287    2.282286   -0.654363
  H      2.755459    2.297223   -0.838416
  H      1.162943    3.241730   -0.622224
  C      3.065834   -0.388546   -0.698656
  H      3.262023   -1.404533   -1.082470
  H      3.432977    0.306369   -1.474054
  C      3.887515   -0.182955    0.591465
  H      3.688811    0.825725    0.993912
  H      3.528649   -0.892624    1.358202
  C      5.390342   -0.369448    0.371431
  H      5.781137    0.351469   -0.367554
  H      5.618742   -1.381978   -0.004350
  C     -1.464202   -2.531527    0.084086
  H     -2.003034   -2.436934    1.045488
  H     -2.265137   -2.516675   -0.678829
  C     -0.750622   -3.885261    0.036886
  H     -0.229468   -4.002281   -0.931186
  H      0.033199   -3.924469    0.815700
  C     -1.711359   -5.064693    0.232430
  H     -2.238010   -4.948281    1.197733
  H     -2.495639   -5.026358   -0.546048
  C     -1.012747   -6.426102    0.189580
  H     -0.246895   -6.508811    0.980041
  H     -0.505961   -6.586065   -0.777902
  C     -3.826626    0.249482    0.342032
  H     -4.879280    0.361416    0.513224
  H      5.954180   -0.226136    1.307646
  H     -1.728336   -7.252292    0.331363

----------------------------
CARTESIAN COORDINATES (A.U.)
----------------------------
  NO LB      ZA    FRAG     MASS         X           Y           Z
   0 C     6.0000    0    12.011   -4.972997    0.245455    0.289025
   1 C     6.0000    0    12.011    2.977951   -0.411995   -0.954296
   2 C     6.0000    0    12.011    1.821360    2.047605   -0.891801
   3 C     6.0000    0    12.011   -0.837792    2.151550   -0.468878
   4 C     6.0000    0    12.011   -2.305994   -0.009789   -0.124537
   5 C     6.0000    0    12.011   -1.154641   -2.446432   -0.196145
   6 C     6.0000    0    12.011    1.462646   -2.545470   -0.612261
   7 H     1.0000    0     1.008   -1.761437    3.996720   -0.415368
   8 H     1.0000    0     1.008    2.385473   -4.389926   -0.681601
   9 C     6.0000    0    12.011    3.179061    4.312895   -1.236567
  10 H     1.0000    0     1.008    5.207062    4.341122   -1.584377
  11 H     1.0000    0     1.008    2.197643    6.125981   -1.175832
  12 C     6.0000    0    12.011    5.793587   -0.734246   -1.320269
  13 H     1.0000    0     1.008    6.164330   -2.654183   -2.045573
  14 H     1.0000    0     1.008    6.487387    0.578953   -2.785559
  15 C     6.0000    0    12.011    7.346338   -0.345736    1.117707
  16 H     1.0000    0     1.008    6.970843    1.560395    1.878222
  17 H     1.0000    0     1.008    6.668180   -1.686814    2.566630
  18 C     6.0000    0    12.011   10.186270   -0.698156    0.701903
  19 H     1.0000    0     1.008   10.924767    0.664181   -0.694576
  20 H     1.0000    0     1.008   10.617884   -2.611559   -0.008220
  21 C     6.0000    0    12.011   -2.766941   -4.783893    0.158899
  22 H     1.0000    0     1.008   -3.785186   -4.605138    1.975686
  23 H     1.0000    0     1.008   -4.280488   -4.755826   -1.282801
  24 C     6.0000    0    12.011   -1.418470   -7.342079    0.069704
  25 H     1.0000    0     1.008   -0.433631   -7.563214   -1.759686
  26 H     1.0000    0     1.008    0.062738   -7.416172    1.541450
  27 C     6.0000    0    12.011   -3.234000   -9.570882    0.439229
  28 H     1.0000    0     1.008   -4.229225   -9.350895    2.263388
  29 H     1.0000    0     1.008   -4.716075   -9.498440   -1.031882
  30 C     6.0000    0    12.011   -1.913814  -12.143574    0.358254
  31 H     1.0000    0     1.008   -0.466565  -12.299870    1.852010
  32 H     1.0000    0     1.008   -0.956128  -12.445860   -1.470022
  33 C     6.0000    0    12.011   -7.231274    0.471453    0.646348
  34 H     1.0000    0     1.008   -9.220504    0.682977    0.969853
  35 H     1.0000    0     1.008   11.251769   -0.427335    2.471093
  36 H     1.0000    0     1.008   -3.266081  -13.704845    0.626186

--------------------------------
INTERNAL COORDINATES (ANGSTROEM)
--------------------------------
 C      0   0   0     0.000000000000     0.00000000     0.00000000
 C      1   0   0     4.272779435977     0.00000000     0.00000000
 C      2   1   0     1.438665364702    60.25611533     0.00000000
 C      3   2   1     1.425909955027   117.27985933     0.03056544
 C      4   3   2     1.394617996884   122.59142877     0.00000000
 C      5   4   3     1.426618075074   119.98942380   359.80738789
 C      2   1   3     1.396552108681    58.69928977   180.20089569
 H      4   3   2     1.092290782554   118.69476616   180.07450551
 H      7   2   1     1.092009065491   117.48005890   179.77496584
 C      3   2   1     1.409415733623   123.34163715   180.34056982
 H     10   3   2     1.088942817265   122.40656763     0.31108613
 H     10   3   2     1.091459767040   120.08473860   179.78721641
 C      2   1   3     1.512150120827   177.66932669   143.65206630
 H     13   2   7     1.103644831562   108.87542942    23.48041639
 H     13   2   7     1.104057719813   110.28123973   139.41768004
 C     13   2   7     1.543320706672   113.73569286   262.26377449
 H     16  13   2     1.104030754152   109.30558255   302.18129664
 H     16  13   2     1.104671644864   108.76417815    57.47544640
 C     16  13   2     1.530256370807   112.73280384   179.63630008
 H     19  16  13     1.103875839750   111.36717896    60.34862434
 H     19  16  13     1.103899331665   111.34143478   300.59408759
 C      6   5   4     1.514343105447   119.62648733   180.48504428
 H     22   6   5     1.106156347871   108.20573503   304.09262205
 H     22   6   5     1.106235176143   108.14286371    56.41421033
 C     22   6   5     1.531019144681   117.11695442   180.17068255
 H     25  22   6     1.105648136158   109.89308124   301.94491832
 H     25  22   6     1.105651246714   109.88026936    58.44334784
 C     25  22   6     1.533725208941   112.58561711   180.24750891
 H     28  25  22     1.105767807906   109.18900891   302.47583204
 H     28  25  22     1.105709478380   109.14051315    57.74857142
 C     28  25  22     1.530794590614   113.23248136   180.07138713
 H     31  28  25     1.103719938677   111.30088794    59.92707409
 H     31  28  25     1.103830607285   111.28105466   300.22757938
 C      1   2   3     1.215792146495   179.01985546   351.11928114
 H     34   1   5     1.072342109159   179.57594182     0.77152932
 H     19  16  13     1.102247628085   111.37006533   180.48184891
 H     31  28  25     1.102161137344   111.51578224   180.08412230

---------------------------
INTERNAL COORDINATES (A.U.)
---------------------------
 C      0   0   0     0.000000000000     0.00000000     0.00000000
 C      1   0   0     8.074382964647     0.00000000     0.00000000
 C      2   1   0     2.718683537644    60.25611533     0.00000000
 C      3   2   1     2.694579306633   117.27985933     0.03056544
 C      4   3   2     2.635446075549   122.59142877     0.00000000
 C      5   4   3     2.695917459592   119.98942380   359.80738789
 C      2   1   3     2.639101017158    58.69928977   180.20089569
 H      4   3   2     2.064130437634   118.69476616   180.07450551
 H      7   2   1     2.063598069537   117.48005890   179.77496584
 C      3   2   1     2.663409745388   123.34163715   180.34056982
 H     10   3   2     2.057803700132   122.40656763     0.31108613
 H     10   3   2     2.062560045900   120.08473860   179.78721641
 C      2   1   3     2.857549601739   177.66932669   143.65206630
 H     13   2   7     2.085586480770   108.87542942    23.48041639
 H     13   2   7     2.086366726488   110.28123973   139.41768004
 C     13   2   7     2.916453472420   113.73569286   262.26377449
 H     16  13   2     2.086315768774   109.30558255   302.18129664
 H     16  13   2     2.087526876701   108.76417815    57.47544640
 C     16  13   2     2.891765455514   112.73280384   179.63630008
 H     19  16  13     2.086023022980   111.36717896    60.34862434
 H     19  16  13     2.086067416266   111.34143478   300.59408759
 C      6   5   4     2.861693742086   119.62648733   180.48504428
 H     22   6   5     2.090332558774   108.20573503   304.09262205
 H     22   6   5     2.090481522620   108.14286371    56.41421033
 C     22   6   5     2.893206889237   117.11695442   180.17068255
 H     25  22   6     2.089372177819   109.89308124   301.94491832
 H     25  22   6     2.089378055919   109.88026936    58.44334784
 C     25  22   6     2.898320609589   112.58561711   180.24750891
 H     28  25  22     2.089598324648   109.18900891   302.47583204
 H     28  25  22     2.089488097819   109.14051315    57.74857142
 C     28  25  22     2.892782543549   113.23248136   180.07138713
 H     31  28  25     2.085728412647   111.30088794    59.92707409
 H     31  28  25     2.085937546008   111.28105466   300.22757938
 C      1   2   3     2.297514192648   179.01985546   351.11928114
 H     34   1   5     2.026432908181   179.57594182     0.77152932
 H     19  16  13     2.082946148845   111.37006533   180.48184891
 H     31  28  25     2.082782705032   111.51578224   180.08412230

---------------------
BASIS SET INFORMATION
---------------------
There are 2 groups of distinct atoms

 Group   1 Type C   : 10s5p1d contracted to 6s2p1d pattern {511111/41/1}
 Group   2 Type H   : 6s1p contracted to 4s1p pattern {3111/1}

Atom   0C    basis set group =>   1
Atom   1C    basis set group =>   1
Atom   2C    basis set group =>   1
Atom   3C    basis set group =>   1
Atom   4C    basis set group =>   1
Atom   5C    basis set group =>   1
Atom   6C    basis set group =>   1
Atom   7H    basis set group =>   2
Atom   8H    basis set group =>   2
Atom   9C    basis set group =>   1
Atom  10H    basis set group =>   2
Atom  11H    basis set group =>   2
Atom  12C    basis set group =>   1
Atom  13H    basis set group =>   2
Atom  14H    basis set group =>   2
Atom  15C    basis set group =>   1
Atom  16H    basis set group =>   2
Atom  17H    basis set group =>   2
Atom  18C    basis set group =>   1
Atom  19H    basis set group =>   2
Atom  20H    basis set group =>   2
Atom  21C    basis set group =>   1
Atom  22H    basis set group =>   2
Atom  23H    basis set group =>   2
Atom  24C    basis set group =>   1
Atom  25H    basis set group =>   2
Atom  26H    basis set group =>   2
Atom  27C    basis set group =>   1
Atom  28H    basis set group =>   2
Atom  29H    basis set group =>   2
Atom  30C    basis set group =>   1
Atom  31H    basis set group =>   2
Atom  32H    basis set group =>   2
Atom  33C    basis set group =>   1
Atom  34H    basis set group =>   2
Atom  35H    basis set group =>   2
Atom  36H    basis set group =>   2
---------------------------------
AUXILIARY/J BASIS SET INFORMATION
---------------------------------
There are 2 groups of distinct atoms

 Group   1 Type C   : 17s13p12d2f contracted to 17s13p12d2f pattern {11111111111111111/1111111111111/111111111111/11}
 Group   2 Type H   : 15s6p1d contracted to 15s6p1d pattern {111111111111111/111111/1}

Atom   0C    basis set group =>   1
Atom   1C    basis set group =>   1
Atom   2C    basis set group =>   1
Atom   3C    basis set group =>   1
Atom   4C    basis set group =>   1
Atom   5C    basis set group =>   1
Atom   6C    basis set group =>   1
Atom   7H    basis set group =>   2
Atom   8H    basis set group =>   2
Atom   9C    basis set group =>   1
Atom  10H    basis set group =>   2
Atom  11H    basis set group =>   2
Atom  12C    basis set group =>   1
Atom  13H    basis set group =>   2
Atom  14H    basis set group =>   2
Atom  15C    basis set group =>   1
Atom  16H    basis set group =>   2
Atom  17H    basis set group =>   2
Atom  18C    basis set group =>   1
Atom  19H    basis set group =>   2
Atom  20H    basis set group =>   2
Atom  21C    basis set group =>   1
Atom  22H    basis set group =>   2
Atom  23H    basis set group =>   2
Atom  24C    basis set group =>   1
Atom  25H    basis set group =>   2
Atom  26H    basis set group =>   2
Atom  27C    basis set group =>   1
Atom  28H    basis set group =>   2
Atom  29H    basis set group =>   2
Atom  30C    basis set group =>   1
Atom  31H    basis set group =>   2
Atom  32H    basis set group =>   2
Atom  33C    basis set group =>   1
Atom  34H    basis set group =>   2
Atom  35H    basis set group =>   2
Atom  36H    basis set group =>   2
---------------------------------
AUXILIARY/C BASIS SET INFORMATION
---------------------------------
There are 2 groups of distinct atoms

 Group   1 Type C   : 17s13p12d2f contracted to 17s13p12d2f pattern {11111111111111111/1111111111111/111111111111/11}
 Group   2 Type H   : 15s6p1d contracted to 15s6p1d pattern {111111111111111/111111/1}

Atom   0C    basis set group =>   1
Atom   1C    basis set group =>   1
Atom   2C    basis set group =>   1
Atom   3C    basis set group =>   1
Atom   4C    basis set group =>   1
Atom   5C    basis set group =>   1
Atom   6C    basis set group =>   1
Atom   7H    basis set group =>   2
Atom   8H    basis set group =>   2
Atom   9C    basis set group =>   1
Atom  10H    basis set group =>   2
Atom  11H    basis set group =>   2
Atom  12C    basis set group =>   1
Atom  13H    basis set group =>   2
Atom  14H    basis set group =>   2
Atom  15C    basis set group =>   1
Atom  16H    basis set group =>   2
Atom  17H    basis set group =>   2
Atom  18C    basis set group =>   1
Atom  19H    basis set group =>   2
Atom  20H    basis set group =>   2
Atom  21C    basis set group =>   1
Atom  22H    basis set group =>   2
Atom  23H    basis set group =>   2
Atom  24C    basis set group =>   1
Atom  25H    basis set group =>   2
Atom  26H    basis set group =>   2
Atom  27C    basis set group =>   1
Atom  28H    basis set group =>   2
Atom  29H    basis set group =>   2
Atom  30C    basis set group =>   1
Atom  31H    basis set group =>   2
Atom  32H    basis set group =>   2
Atom  33C    basis set group =>   1
Atom  34H    basis set group =>   2
Atom  35H    basis set group =>   2
Atom  36H    basis set group =>   2
----------------------------------
AUXILIARY/JK BASIS SET INFORMATION
----------------------------------
There are 2 groups of distinct atoms

 Group   1 Type C   : 17s13p12d2f contracted to 17s13p12d2f pattern {11111111111111111/1111111111111/111111111111/11}
 Group   2 Type H   : 15s6p1d contracted to 15s6p1d pattern {111111111111111/111111/1}

Atom   0C    basis set group =>   1
Atom   1C    basis set group =>   1
Atom   2C    basis set group =>   1
Atom   3C    basis set group =>   1
Atom   4C    basis set group =>   1
Atom   5C    basis set group =>   1
Atom   6C    basis set group =>   1
Atom   7H    basis set group =>   2
Atom   8H    basis set group =>   2
Atom   9C    basis set group =>   1
Atom  10H    basis set group =>   2
Atom  11H    basis set group =>   2
Atom  12C    basis set group =>   1
Atom  13H    basis set group =>   2
Atom  14H    basis set group =>   2
Atom  15C    basis set group =>   1
Atom  16H    basis set group =>   2
Atom  17H    basis set group =>   2
Atom  18C    basis set group =>   1
Atom  19H    basis set group =>   2
Atom  20H    basis set group =>   2
Atom  21C    basis set group =>   1
Atom  22H    basis set group =>   2
Atom  23H    basis set group =>   2
Atom  24C    basis set group =>   1
Atom  25H    basis set group =>   2
Atom  26H    basis set group =>   2
Atom  27C    basis set group =>   1
Atom  28H    basis set group =>   2
Atom  29H    basis set group =>   2
Atom  30C    basis set group =>   1
Atom  31H    basis set group =>   2
Atom  32H    basis set group =>   2
Atom  33C    basis set group =>   1
Atom  34H    basis set group =>   2
Atom  35H    basis set group =>   2
Atom  36H    basis set group =>   2


           ************************************************************
           *        Program running with 16 parallel MPI-processes    *
           *              working on a common directory               *
           ************************************************************
------------------------------------------------------------------------------
                           ORCA GTO INTEGRAL CALCULATION
                           -- RI-GTO INTEGRALS CHOSEN --
------------------------------------------------------------------------------
------------------------------------------------------------------------------
                   ___                                                        
                  /   \      - P O W E R E D   B Y -                         
                 /     \                                                     
                 |  |  |   _    _      __       _____    __    __             
                 |  |  |  | |  | |    /  \     |  _  \  |  |  /  |          
                  \  \/   | |  | |   /    \    | | | |  |  | /  /          
                 / \  \   | |__| |  /  /\  \   | |_| |  |  |/  /          
                |  |  |   |  __  | /  /__\  \  |    /   |      \           
                |  |  |   | |  | | |   __   |  |    \   |  |\   \          
                \     /   | |  | | |  |  |  |  | |\  \  |  | \   \       
                 \___/    |_|  |_| |__|  |__|  |_| \__\ |__|  \__/        
                                                                              
                      - O R C A' S   B I G   F R I E N D -                    
                                      &                                       
                       - I N T E G R A L  F E E D E R -                       
                                                                              
 v1 FN, 2020, v2 2021                                                         
------------------------------------------------------------------------------


Reading SHARK input file EPRII.SHARKINP.tmp ... ok
----------------------
SHARK INTEGRAL PACKAGE
----------------------

Number of atoms                             ...     37
Number of basis functions                   ...    419
Number of shells                            ...    249
Maximum angular momentum                    ...      2
Integral batch strategy                     ... SHARK/LIBINT Hybrid
RI-J (if used) integral strategy            ... SPLIT-RIJ (Revised 2003 algorithm where possible)
Printlevel                                  ...      1
Contraction scheme used                     ... SEGMENTED contraction
Coulomb Range Separation                    ... NOT USED
Exchange Range Separation                   ... NOT USED
Finite Nucleus Model                        ... NOT USED
Auxiliary Coulomb fitting basis             ... AVAILABLE
   # of basis functions in Aux-J            ...   2878
   # of shells in Aux-J                     ...   1166
   Maximum angular momentum in Aux-J        ...      3
Auxiliary J/K fitting basis                 ... AVAILABLE
   # of basis functions in Aux-JK           ...   2878
   # of shells in Aux-JK                    ...   1166
   Maximum angular momentum in Aux-JK       ...      3
Auxiliary Correlation fitting basis         ... AVAILABLE
   # of basis functions in Aux-C            ...   2878
   # of shells in Aux-C                     ...   1166
   Maximum angular momentum in Aux-C        ...      3
Auxiliary 'external' fitting basis          ... NOT available
Integral threshold                          ...     1.000000e-10
Primitive cut-off                           ...     1.000000e-11
Primitive pair pre-selection threshold      ...     1.000000e-11

Calculating pre-screening integrals         ... done (  0.0 sec) Dimension = 249
Organizing shell pair data                  ... done (  0.1 sec)
Shell pair information
Total number of shell pairs                 ...     31125
Shell pairs after pre-screening             ...     19058
Total number of primitive shell pairs       ...     81725
Primitive shell pairs kept                  ...     36166
          la=0 lb=0:   8822 shell pairs
          la=1 lb=0:   6578 shell pairs
          la=1 lb=1:   1137 shell pairs
          la=2 lb=0:   1774 shell pairs
          la=2 lb=1:    645 shell pairs
          la=2 lb=2:    102 shell pairs

Calculating one electron integrals          ... done (  0.0 sec)
Calculating RI/J V-Matrix + Cholesky decomp.... done (  0.6 sec)
Calculating RI/JK V-Matrix + Cholesky decomp... done (  0.5 sec)
Calculating RI/C V-Matrix + Cholesky decomp.... done (  0.5 sec)
Calculating Nuclear repulsion               ... done (  0.0 sec) ENN=   1004.377141573651 Eh

SHARK setup successfully completed in   2.0 seconds

Maximum memory used throughout the entire GTOINT-calculation: 35.3 MB


           ************************************************************
           *        Program running with 16 parallel MPI-processes    *
           *              working on a common directory               *
           ************************************************************
-------------------------------------------------------------------------------
                                 ORCA SCF
-------------------------------------------------------------------------------

------------
SCF SETTINGS
------------
Hamiltonian:
 Density Functional     Method          .... DFT(GTOs)
 Exchange Functional    Exchange        .... B88
   X-Alpha parameter    XAlpha          ....  0.666667
   Becke's b parameter  XBeta           ....  0.004200
 Correlation Functional Correlation     .... LYP
 LDA part of GGA corr.  LDAOpt          .... VWN-5
 Gradients option       PostSCFGGA      .... off
 Hybrid DFT is turned on
   Fraction HF Exchange ScalHFX         ....  0.200000
   Scaling of DF-GGA-X  ScalDFX         ....  0.720000
   Scaling of DF-GGA-C  ScalDFC         ....  0.810000
   Scaling of DF-LDA-C  ScalLDAC        ....  1.000000
   Perturbative correction              ....  0.000000
   Density functional embedding theory  .... OFF
   NL short-range parameter             ....  4.800000
 RI-approximation to the Coulomb term is turned on
   Number of AuxJ basis functions       .... 2878
   RIJ-COSX (HFX calculated with COS-X)).... on


General Settings:
 Integral files         IntName         .... EPRII
 Hartree-Fock type      HFTyp           .... UHF
 Total Charge           Charge          ....    0
 Multiplicity           Mult            ....    2
 Number of Electrons    NEL             ....  117
 Basis Dimension        Dim             ....  419
 Nuclear Repulsion      ENuc            ....   1004.3771415737 Eh

Convergence Acceleration:
 DIIS                   CNVDIIS         .... on
   Start iteration      DIISMaxIt       ....    12
   Startup error        DIISStart       ....  0.200000
   # of expansion vecs  DIISMaxEq       ....     5
   Bias factor          DIISBfac        ....   1.050
   Max. coefficient     DIISMaxC        ....  10.000
 Trust-Rad. Augm. Hess. CNVTRAH         .... auto
   Auto Start mean grad. ratio tolernc. ....  1.125000
   Auto Start start iteration           ....    20
   Auto Start num. interpolation iter.  ....    10
   Max. Number of Micro iterations      ....    16
   Max. Number of Macro iterations      .... Maxiter - #DIIS iter
   Number of Davidson start vectors     ....     2
   Converg. threshold I  (grad. norm)   ....   5.000e-05
   Converg. threshold II (energy diff.) ....   1.000e-06
   Grad. Scal. Fac. for Micro threshold ....   0.100
   Minimum threshold for Micro iter.    ....   0.010
   NR start threshold (gradient norm)   ....   0.001
   Initial trust radius                 ....   0.400
   Minimum AH scaling param. (alpha)    ....   1.000
   Maximum AH scaling param. (alpha)    .... 1000.000
   Orbital update algorithm             .... Taylor
   White noise on init. David. guess    .... on
   Maximum white noise                  ....   0.010
   Quad. conv. algorithm                .... NR
 SOSCF                  CNVSOSCF        .... off
 Level Shifting         CNVShift        .... on
   Level shift para.    LevelShift      ....    0.2500
   Turn off err/grad.   ShiftErr        ....    0.0010
 Zerner damping         CNVZerner       .... off
 Static damping         CNVDamp         .... on
   Fraction old density DampFac         ....    0.7000
   Max. Damping (<1)    DampMax         ....    0.9800
   Min. Damping (>=0)   DampMin         ....    0.0000
   Turn off err/grad.   DampErr         ....    0.1000
 Fernandez-Rico         CNVRico         .... off

SCF Procedure:
 Maximum # iterations   MaxIter         ....   125
 SCF integral mode      SCFMode         .... Direct
   Integral package                     .... SHARK and LIBINT hybrid scheme
 Reset frequency        DirectResetFreq ....    20
 Integral Threshold     Thresh          ....  1.000e-10 Eh
 Primitive CutOff       TCut            ....  1.000e-11 Eh

Convergence Tolerance:
 Convergence Check Mode ConvCheckMode   .... Total+1el-Energy
 Convergence forced     ConvForced      .... 0
 Energy Change          TolE            ....  1.000e-06 Eh
 1-El. energy change                    ....  1.000e-03 Eh
 DIIS Error             TolErr          ....  1.000e-06


Diagonalization of the overlap matrix:
Smallest eigenvalue                        ... 1.429e-04
Time for diagonalization                   ...    0.034 sec
Threshold for overlap eigenvalues          ... 1.000e-08
Number of eigenvalues below threshold      ... 0
Time for construction of square roots      ...    0.036 sec
Total time needed                          ...    0.070 sec

Time for model grid setup =    0.230 sec

------------------------------
INITIAL GUESS: MODEL POTENTIAL
------------------------------
Loading Hartree-Fock densities                     ... done
Calculating cut-offs                               ... done
Initializing the effective Hamiltonian             ... done
Setting up the integral package (SHARK)            ... done
Starting the Coulomb interaction                   ... done (   0.2 sec)
Reading the grid                                   ... done
Mapping shells                                     ... done
Starting the XC term evaluation                    ... done (   0.1 sec)
  promolecular density results
     # of electrons  =    116.995809942
     EX              =    -88.401886940
     EC              =     -3.814424240
     EX+EC           =    -92.216311180
Transforming the Hamiltonian                       ... done (   0.0 sec)
Diagonalizing the Hamiltonian                      ... done (   0.0 sec)
Back transforming the eigenvectors                 ... done (   0.0 sec)
Now organizing SCF variables                       ... done
                      ------------------
                      INITIAL GUESS DONE (   0.8 sec)
                      ------------------
-------------------
DFT GRID GENERATION
-------------------

General Integration Accuracy     IntAcc      ... 4.388
Radial Grid Type                 RadialGrid  ... OptM3 with GC (2021)
Angular Grid (max. ang.)         AngularGrid ... 4 (Lebedev-302)
Angular grid pruning method      GridPruning ... 4 (adaptive)
Weight generation scheme         WeightScheme... Becke
Basis function cutoff            BFCut       ... 1.0000e-10
Integration weight cutoff        WCut        ... 1.0000e-14
Angular grids for H and He will be reduced by one unit
Partially contracted basis set               ... off
Rotationally invariant grid construction     ... off

Total number of grid points                  ...   162627
Total number of batches                      ...     2559
Average number of points per batch           ...       63
Average number of grid points per atom       ...     4395
Time for grid setup =    0.902 sec

--------------------
COSX GRID GENERATION
--------------------

GRIDX 1
-------
General Integration Accuracy     IntAcc      ... 3.816
Radial Grid Type                 RadialGrid  ... OptM3 with GC (2021)
Angular Grid (max. ang.)         AngularGrid ... 1 (Lebedev-50)
Angular grid pruning method      GridPruning ... 4 (adaptive)
Weight generation scheme         WeightScheme... Becke
Basis function cutoff            BFCut       ... 1.0000e-10
Integration weight cutoff        WCut        ... 1.0000e-14
Angular grids for H and He will be reduced by one unit
Partially contracted basis set               ... on
Rotationally invariant grid construction     ... off

Total number of grid points                  ...    20774
Total number of batches                      ...      346
Average number of points per batch           ...       60
Average number of grid points per atom       ...      561
UseSFitting                                  ... on

GRIDX 2
-------
General Integration Accuracy     IntAcc      ... 4.020
Radial Grid Type                 RadialGrid  ... OptM3 with GC (2021)
Angular Grid (max. ang.)         AngularGrid ... 2 (Lebedev-110)
Angular grid pruning method      GridPruning ... 4 (adaptive)
Weight generation scheme         WeightScheme... Becke
Basis function cutoff            BFCut       ... 1.0000e-10
Integration weight cutoff        WCut        ... 1.0000e-14
Angular grids for H and He will be reduced by one unit
Partially contracted basis set               ... on
Rotationally invariant grid construction     ... off

Total number of grid points                  ...    43752
Total number of batches                      ...      701
Average number of points per batch           ...       62
Average number of grid points per atom       ...     1182
UseSFitting                                  ... on

GRIDX 3
-------
General Integration Accuracy     IntAcc      ... 4.338
Radial Grid Type                 RadialGrid  ... OptM3 with GC (2021)
Angular Grid (max. ang.)         AngularGrid ... 3 (Lebedev-194)
Angular grid pruning method      GridPruning ... 4 (adaptive)
Weight generation scheme         WeightScheme... Becke
Basis function cutoff            BFCut       ... 1.0000e-10
Integration weight cutoff        WCut        ... 1.0000e-14
Angular grids for H and He will be reduced by one unit
Partially contracted basis set               ... on
Rotationally invariant grid construction     ... off

Total number of grid points                  ...    95333
Total number of batches                      ...     1508
Average number of points per batch           ...       63
Average number of grid points per atom       ...     2577
UseSFitting                                  ... on

Time for X-Grid setup             =    1.653 sec

--------------
SCF ITERATIONS
--------------
ITER       Energy         Delta-E        Max-DP      RMS-DP      [F,P]     Damp
               ***  Starting incremental Fock matrix formation  ***
  0   -621.5083982439   0.000000000000 0.04997110  0.00091563  0.0796173 0.7000
  1   -621.6916054152  -0.183207171296 0.03265270  0.00067679  0.0426150 0.7000
                               ***Turning on DIIS***
  2   -621.7729593961  -0.081353980937 0.08864147  0.00137901  0.0165308 0.0000
  3   -621.8857499734  -0.112790577336 0.02495070  0.00039668  0.0233780 0.0000
  4   -621.9181577704  -0.032407796969 0.02289402  0.00019409  0.0062604 0.0000
  5   -621.9197594281  -0.001601657721 0.01327159  0.00009620  0.0033873 0.0000
  6   -621.9200361336  -0.000276705497 0.00523388  0.00004209  0.0021668 0.0000
  7   -621.9201458965  -0.000109762928 0.00270681  0.00002251  0.0015494 0.0000
  8   -621.9202027286  -0.000056832014 0.00353371  0.00002851  0.0009175 0.0000
               *** Restarting incremental Fock matrix formation ***
                                   *** Resetting DIIS ***
  9   -621.9203022024  -0.000099473840 0.00174247  0.00001722  0.0005455 0.0000
 10   -621.9203016457   0.000000556673 0.00074877  0.00000559  0.0009643 0.0000
 11   -621.9203081028  -0.000006457122 0.00047128  0.00000285  0.0002730 0.0000
 12   -621.9203090310  -0.000000928185 0.00046297  0.00000302  0.0002374 0.0000
 13   -621.9203098083  -0.000000777312 0.00028600  0.00000188  0.0001288 0.0000
 14   -621.9203100698  -0.000000261503 0.00016853  0.00000114  0.0000432 0.0000
                 **** Energy Check signals convergence ****

               *****************************************************
               *                     SUCCESS                       *
               *           SCF CONVERGED AFTER  15 CYCLES          *
               *****************************************************

Old exchange energy                            =    -18.047442150 Eh
New exchange energy                            =    -18.047452229 Eh
Exchange energy change after final integration =     -0.000010079 Eh
Total energy after final integration           =   -621.920320244 Eh
Final COS-X integration done in                =     4.944 sec

----------------
TOTAL SCF ENERGY
----------------

Total Energy       :         -621.92032024 Eh          -16923.31228 eV

Components:
Nuclear Repulsion  :         1004.37714157 Eh           27330.49148 eV
Electronic Energy  :        -1626.29746182 Eh          -44253.80376 eV
One Electron Energy:        -2830.86337111 Eh          -77031.70854 eV
Two Electron Energy:         1204.56590930 Eh           32777.90479 eV
Max COSX asymmetry :            0.00000173 Eh               0.00005 eV

Virial components:
Potential Energy   :        -1238.86860828 Eh          -33711.32868 eV
Kinetic Energy     :          616.94828804 Eh           16788.01640 eV
Virial Ratio       :            2.00805907


DFT components:
N(Alpha)           :       59.000031685347 electrons
N(Beta)            :       58.000026685489 electrons
N(Total)           :      117.000058370837 electrons
E(X)               :      -71.556656415037 Eh       
E(C)               :       -4.509907467315 Eh       
E(XC)              :      -76.066563882352 Eh       
DFET-embed. en.    :        0.000000000000 Eh       

---------------
SCF CONVERGENCE
---------------

  Last Energy change         ...   -9.5851e-08  Tolerance :   1.0000e-06
  Last MAX-Density change    ...    0.0000e+00  Tolerance :   1.0000e-05
  Last RMS-Density change    ...    0.0000e+00  Tolerance :   1.0000e-06
  Last DIIS Error            ...    1.2315e-05  Tolerance :   1.0000e-06

             **** THE GBW FILE WAS UPDATED (EPRII.gbw) ****
             **** DENSITY EPRII.scfp WAS UPDATED ****
             **** ENERGY FILE WAS UPDATED (EPRII.en.tmp) ****
----------------------
UHF SPIN CONTAMINATION
----------------------

Warning: in a DFT calculation there is little theoretical justification to 
         calculate <S**2> as in Hartree-Fock theory. We will do it anyways
         but you should keep in mind that the values have only limited relevance

Expectation value of <S**2>     :     0.785259
Ideal value S*(S+1) for S=0.5   :     0.750000
Deviation                       :     0.035259

             **** THE GBW FILE WAS UPDATED (EPRII.gbw) ****
             **** DENSITY EPRII.scfp WAS UPDATED ****
----------------
ORBITAL ENERGIES
----------------
                 SPIN UP ORBITALS
  NO   OCC          E(Eh)            E(eV) 
   0   1.0000     -10.216884      -278.0156 
   1   1.0000     -10.210572      -277.8438 
   2   1.0000     -10.206364      -277.7293 
   3   1.0000     -10.205814      -277.7143 
   4   1.0000     -10.202760      -277.6312 
   5   1.0000     -10.200512      -277.5700 
   6   1.0000     -10.193218      -277.3716 
   7   1.0000     -10.192897      -277.3628 
   8   1.0000     -10.189756      -277.2774 
   9   1.0000     -10.187896      -277.2267 
  10   1.0000     -10.186747      -277.1955 
  11   1.0000     -10.185580      -277.1637 
  12   1.0000     -10.182602      -277.0827 
  13   1.0000     -10.182306      -277.0746 
  14   1.0000     -10.175998      -276.9030 
  15   1.0000     -10.173626      -276.8384 
  16   1.0000      -0.868836       -23.6422 
  17   1.0000      -0.813602       -22.1392 
  18   1.0000      -0.795904       -21.6577 
  19   1.0000      -0.775768       -21.1097 
  20   1.0000      -0.763964       -20.7885 
  21   1.0000      -0.731996       -19.9186 
  22   1.0000      -0.723617       -19.6906 
  23   1.0000      -0.684012       -18.6129 
  24   1.0000      -0.669001       -18.2044 
  25   1.0000      -0.623840       -16.9755 
  26   1.0000      -0.611243       -16.6328 
  27   1.0000      -0.591062       -16.0836 
  28   1.0000      -0.575962       -15.6727 
  29   1.0000      -0.564814       -15.3694 
  30   1.0000      -0.526265       -14.3204 
  31   1.0000      -0.494024       -13.4431 
  32   1.0000      -0.489749       -13.3268 
  33   1.0000      -0.470030       -12.7902 
  34   1.0000      -0.457536       -12.4502 
  35   1.0000      -0.447977       -12.1901 
  36   1.0000      -0.428501       -11.6601 
  37   1.0000      -0.421649       -11.4737 
  38   1.0000      -0.420717       -11.4483 
  39   1.0000      -0.417982       -11.3739 
  40   1.0000      -0.411169       -11.1885 
  41   1.0000      -0.400320       -10.8932 
  42   1.0000      -0.387247       -10.5375 
  43   1.0000      -0.380178       -10.3452 
  44   1.0000      -0.374482       -10.1902 
  45   1.0000      -0.366595        -9.9756 
  46   1.0000      -0.351983        -9.5780 
  47   1.0000      -0.350869        -9.5476 
  48   1.0000      -0.339399        -9.2355 
  49   1.0000      -0.334580        -9.1044 
  50   1.0000      -0.328214        -8.9312 
  51   1.0000      -0.322839        -8.7849 
  52   1.0000      -0.321873        -8.7586 
  53   1.0000      -0.321023        -8.7355 
  54   1.0000      -0.306701        -8.3458 
  55   1.0000      -0.276219        -7.5163 
  56   1.0000      -0.273933        -7.4541 
  57   1.0000      -0.234278        -6.3750 
  58   1.0000      -0.178367        -4.8536 
  59   0.0000      -0.033295        -0.9060 
  60   0.0000       0.006977         0.1898 
  61   0.0000       0.016895         0.4597 
  62   0.0000       0.023245         0.6325 
  63   0.0000       0.025183         0.6853 
  64   0.0000       0.036793         1.0012 
  65   0.0000       0.038950         1.0599 
  66   0.0000       0.043223         1.1762 
  67   0.0000       0.046064         1.2535 
  68   0.0000       0.049612         1.3500 
  69   0.0000       0.061221         1.6659 
  70   0.0000       0.073580         2.0022 
  71   0.0000       0.076369         2.0781 
  72   0.0000       0.086654         2.3580 
  73   0.0000       0.095747         2.6054 
  74   0.0000       0.111810         3.0425 
  75   0.0000       0.120976         3.2919 
  76   0.0000       0.130843         3.5604 
  77   0.0000       0.142746         3.8843 
  78   0.0000       0.151646         4.1265 
  79   0.0000       0.157678         4.2906 
  80   0.0000       0.168848         4.5946 
  81   0.0000       0.175515         4.7760 
  82   0.0000       0.182144         4.9564 
  83   0.0000       0.184706         5.0261 
  84   0.0000       0.192128         5.2281 
  85   0.0000       0.195293         5.3142 
  86   0.0000       0.197253         5.3675 
  87   0.0000       0.199329         5.4240 
  88   0.0000       0.201492         5.4829 
  89   0.0000       0.213620         5.8129 
  90   0.0000       0.214466         5.8359 
  91   0.0000       0.217290         5.9127 
  92   0.0000       0.218504         5.9458 
  93   0.0000       0.225237         6.1290 
  94   0.0000       0.228358         6.2139 
  95   0.0000       0.236152         6.4260 
  96   0.0000       0.239175         6.5083 
  97   0.0000       0.245622         6.6837 
  98   0.0000       0.252252         6.8641 
  99   0.0000       0.260366         7.0849 
 100   0.0000       0.266606         7.2547 
 101   0.0000       0.268140         7.2965 
 102   0.0000       0.279324         7.6008 
 103   0.0000       0.282516         7.6876 
 104   0.0000       0.285416         7.7666 
 105   0.0000       0.287524         7.8239 
 106   0.0000       0.291184         7.9235 
 107   0.0000       0.293878         7.9968 
 108   0.0000       0.298766         8.1298 
 109   0.0000       0.303599         8.2613 
 110   0.0000       0.308553         8.3961 
 111   0.0000       0.315367         8.5816 
 112   0.0000       0.322919         8.7871 
 113   0.0000       0.330777         9.0009 
 114   0.0000       0.332790         9.0557 
 115   0.0000       0.339516         9.2387 
 116   0.0000       0.346832         9.4378 
 117   0.0000       0.352764         9.5992 
 118   0.0000       0.356212         9.6930 
 119   0.0000       0.361440         9.8353 
 120   0.0000       0.364977         9.9315 
 121   0.0000       0.369786        10.0624 
 122   0.0000       0.373505        10.1636 
 123   0.0000       0.381310        10.3760 
 124   0.0000       0.399026        10.8581 
 125   0.0000       0.402627        10.9560 
 126   0.0000       0.410941        11.1823 
 127   0.0000       0.414558        11.2807 
 128   0.0000       0.424231        11.5439 
 129   0.0000       0.429689        11.6924 
 130   0.0000       0.437942        11.9170 
 131   0.0000       0.444166        12.0864 
 132   0.0000       0.446689        12.1550 
 133   0.0000       0.450623        12.2621 
 134   0.0000       0.464449        12.6383 
 135   0.0000       0.472729        12.8636 
 136   0.0000       0.476797        12.9743 
 137   0.0000       0.485275        13.2050 
 138   0.0000       0.490008        13.3338 
 139   0.0000       0.499218        13.5844 
 140   0.0000       0.500856        13.6290 
 141   0.0000       0.503930        13.7126 
 142   0.0000       0.511769        13.9260 
 143   0.0000       0.531652        14.4670 
 144   0.0000       0.540869        14.7178 
 145   0.0000       0.546819        14.8797 
 146   0.0000       0.557323        15.1655 
 147   0.0000       0.562494        15.3063 
 148   0.0000       0.573969        15.6185 
 149   0.0000       0.585087        15.9210 
 150   0.0000       0.592710        16.1285 
 151   0.0000       0.595710        16.2101 
 152   0.0000       0.604973        16.4621 
 153   0.0000       0.615182        16.7400 
 154   0.0000       0.622149        16.9295 
 155   0.0000       0.639373        17.3982 
 156   0.0000       0.661366        17.9967 
 157   0.0000       0.674485        18.3537 
 158   0.0000       0.690670        18.7941 
 159   0.0000       0.719075        19.5670 
 160   0.0000       0.765764        20.8375 
 161   0.0000       0.770687        20.9715 
 162   0.0000       0.782505        21.2930 
 163   0.0000       0.787432        21.4271 
 164   0.0000       0.805091        21.9076 
 165   0.0000       0.818031        22.2598 
 166   0.0000       0.822820        22.3901 
 167   0.0000       0.832553        22.6549 
 168   0.0000       0.845042        22.9948 
 169   0.0000       0.850636        23.1470 
 170   0.0000       0.860346        23.4112 
 171   0.0000       0.868960        23.6456 
 172   0.0000       0.872703        23.7475 
 173   0.0000       0.884163        24.0593 
 174   0.0000       0.886704        24.1284 
 175   0.0000       0.898974        24.4623 
 176   0.0000       0.902032        24.5455 
 177   0.0000       0.917264        24.9600 
 178   0.0000       0.921024        25.0623 
 179   0.0000       0.921908        25.0864 
 180   0.0000       0.927087        25.2273 
 181   0.0000       0.935304        25.4509 
 182   0.0000       0.937575        25.5127 
 183   0.0000       0.943916        25.6853 
 184   0.0000       0.946687        25.7607 
 185   0.0000       0.957175        26.0460 
 186   0.0000       0.968608        26.3572 
 187   0.0000       0.971472        26.4351 
 188   0.0000       0.976860        26.5817 
 189   0.0000       0.991393        26.9772 
 190   0.0000       0.997049        27.1311 
 191   0.0000       1.005453        27.3598 
 192   0.0000       1.013778        27.5863 
 193   0.0000       1.016076        27.6488 
 194   0.0000       1.024715        27.8839 
 195   0.0000       1.026761        27.9396 
 196   0.0000       1.051762        28.6199 
 197   0.0000       1.054859        28.7042 
 198   0.0000       1.058269        28.7970 
 199   0.0000       1.066992        29.0343 
 200   0.0000       1.070170        29.1208 
 201   0.0000       1.088999        29.6332 
 202   0.0000       1.091636        29.7049 
 203   0.0000       1.099897        29.9297 
 204   0.0000       1.106938        30.1213 
 205   0.0000       1.110551        30.2196 
 206   0.0000       1.134848        30.8808 
 207   0.0000       1.148801        31.2605 
 208   0.0000       1.167795        31.7773 
 209   0.0000       1.176309        32.0090 
 210   0.0000       1.180389        32.1200 
 211   0.0000       1.192664        32.4540 
 212   0.0000       1.202137        32.7118 
 213   0.0000       1.209421        32.9100 
 214   0.0000       1.224289        33.3146 
 215   0.0000       1.243594        33.8399 
 216   0.0000       1.248525        33.9741 
 217   0.0000       1.259540        34.2738 
 218   0.0000       1.264701        34.4143 
 219   0.0000       1.277136        34.7526 
 220   0.0000       1.288248        35.0550 
 221   0.0000       1.310707        35.6662 
 222   0.0000       1.320009        35.9193 
 223   0.0000       1.341730        36.5103 
 224   0.0000       1.346503        36.6402 
 225   0.0000       1.360129        37.0110 
 226   0.0000       1.379150        37.5286 
 227   0.0000       1.384068        37.6624 
 228   0.0000       1.394968        37.9590 
 229   0.0000       1.404604        38.2212 
 230   0.0000       1.419139        38.6167 
 231   0.0000       1.425065        38.7780 
 232   0.0000       1.427310        38.8391 
 233   0.0000       1.433916        39.0188 
 234   0.0000       1.440736        39.2044 
 235   0.0000       1.451487        39.4970 
 236   0.0000       1.458241        39.6807 
 237   0.0000       1.473091        40.0848 
 238   0.0000       1.480827        40.2954 
 239   0.0000       1.499838        40.8127 
 240   0.0000       1.500434        40.8289 
 241   0.0000       1.516567        41.2679 
 242   0.0000       1.525317        41.5060 
 243   0.0000       1.526923        41.5497 
 244   0.0000       1.544061        42.0160 
 245   0.0000       1.556807        42.3629 
 246   0.0000       1.562135        42.5078 
 247   0.0000       1.572944        42.8020 
 248   0.0000       1.581564        43.0365 
 249   0.0000       1.590525        43.2804 
 250   0.0000       1.597259        43.4636 
 251   0.0000       1.605467        43.6870 
 252   0.0000       1.607620        43.7456 
 253   0.0000       1.616213        43.9794 
 254   0.0000       1.621116        44.1128 
 255   0.0000       1.634897        44.4878 
 256   0.0000       1.638583        44.5881 
 257   0.0000       1.645330        44.7717 
 258   0.0000       1.651871        44.9497 
 259   0.0000       1.670900        45.4675 
 260   0.0000       1.675097        45.5817 
 261   0.0000       1.687327        45.9145 
 262   0.0000       1.699062        46.2338 
 263   0.0000       1.703819        46.3633 
 264   0.0000       1.715423        46.6790 
 265   0.0000       1.720698        46.8226 
 266   0.0000       1.725127        46.9431 
 267   0.0000       1.734214        47.1904 
 268   0.0000       1.747909        47.5630 
 269   0.0000       1.752624        47.6913 
 270   0.0000       1.761026        47.9199 
 271   0.0000       1.764043        48.0020 
 272   0.0000       1.774539        48.2877 
 273   0.0000       1.783194        48.5232 
 274   0.0000       1.791728        48.7554 
 275   0.0000       1.805371        49.1266 
 276   0.0000       1.815468        49.4014 
 277   0.0000       1.826620        49.7049 
 278   0.0000       1.836657        49.9780 
 279   0.0000       1.857645        50.5491 
 280   0.0000       1.865185        50.7543 
 281   0.0000       1.883759        51.2597 
 282   0.0000       1.913497        52.0689 
 283   0.0000       1.918075        52.1935 
 284   0.0000       1.928858        52.4869 
 285   0.0000       1.942415        52.8558 
 286   0.0000       1.951728        53.1092 
 287   0.0000       1.967191        53.5300 
 288   0.0000       1.975105        53.7453 
 289   0.0000       2.018381        54.9229 
 290   0.0000       2.044106        55.6230 
 291   0.0000       2.047577        55.7174 
 292   0.0000       2.055699        55.9384 
 293   0.0000       2.063921        56.1621 
 294   0.0000       2.080219        56.6056 
 295   0.0000       2.101277        57.1786 
 296   0.0000       2.106462        57.3197 
 297   0.0000       2.121001        57.7154 
 298   0.0000       2.154180        58.6182 
 299   0.0000       2.167546        58.9819 
 300   0.0000       2.189803        59.5876 
 301   0.0000       2.210529        60.1515 
 302   0.0000       2.228600        60.6433 
 303   0.0000       2.236507        60.8584 
 304   0.0000       2.237188        60.8770 
 305   0.0000       2.250435        61.2375 
 306   0.0000       2.254895        61.3588 
 307   0.0000       2.261192        61.5302 
 308   0.0000       2.272470        61.8371 
 309   0.0000       2.293058        62.3973 
 310   0.0000       2.309184        62.8361 
 311   0.0000       2.313311        62.9484 
 312   0.0000       2.324217        63.2452 
 313   0.0000       2.328963        63.3743 
 314   0.0000       2.347220        63.8711 
 315   0.0000       2.353340        64.0376 
 316   0.0000       2.387779        64.9748 
 317   0.0000       2.407267        65.5051 
 318   0.0000       2.412902        65.6584 
 319   0.0000       2.429155        66.1007 
 320   0.0000       2.441431        66.4347 
 321   0.0000       2.453633        66.7667 
 322   0.0000       2.455905        66.8286 
 323   0.0000       2.469634        67.2022 
 324   0.0000       2.476822        67.3977 
 325   0.0000       2.489257        67.7361 
 326   0.0000       2.507219        68.2249 
 327   0.0000       2.516847        68.4869 
 328   0.0000       2.527441        68.7752 
 329   0.0000       2.537338        69.0445 
 330   0.0000       2.551791        69.4378 
 331   0.0000       2.567940        69.8772 
 332   0.0000       2.580067        70.2072 
 333   0.0000       2.589214        70.4561 
 334   0.0000       2.608210        70.9730 
 335   0.0000       2.621563        71.3364 
 336   0.0000       2.626108        71.4600 
 337   0.0000       2.644573        71.9625 
 338   0.0000       2.726339        74.1875 
 339   0.0000       2.764633        75.2295 
 340   0.0000       2.797230        76.1165 
 341   0.0000       2.873130        78.1818 
 342   0.0000       2.947752        80.2124 
 343   0.0000       2.966375        80.7192 
 344   0.0000       3.261432        88.7481 
 345   0.0000       4.985282       135.6564 
 346   0.0000       5.001490       136.0975 
 347   0.0000       5.006429       136.2319 
 348   0.0000       5.009724       136.3215 
 349   0.0000       5.011572       136.3718 
 350   0.0000       5.019441       136.5859 
 351   0.0000       5.032699       136.9467 
 352   0.0000       5.044109       137.2572 
 353   0.0000       5.048323       137.3719 
 354   0.0000       5.083990       138.3424 
 355   0.0000       5.104479       138.8999 
 356   0.0000       5.222310       142.1063 
 357   0.0000       5.231773       142.3638 
 358   0.0000       5.234552       142.4394 
 359   0.0000       5.271117       143.4344 
 360   0.0000       5.281395       143.7141 
 361   0.0000       5.291985       144.0022 
 362   0.0000       5.303517       144.3160 
 363   0.0000       5.310242       144.4990 
 364   0.0000       5.322414       144.8303 
 365   0.0000       5.356851       145.7673 
 366   0.0000       5.370040       146.1262 
 367   0.0000       5.392734       146.7438 
 368   0.0000       5.413937       147.3207 
 369   0.0000       5.483195       149.2053 
 370   0.0000       5.547134       150.9452 
 371   0.0000       5.568062       151.5147 
 372   0.0000       5.606885       152.5711 
 373   0.0000       5.623055       153.0111 
 374   0.0000       5.666262       154.1868 
 375   0.0000       5.707831       155.3180 
 376   0.0000       5.739602       156.1825 
 377   0.0000       5.802841       157.9033 
 378   0.0000       5.844596       159.0395 
 379   0.0000       5.871917       159.7830 
 380   0.0000       6.059181       164.8787 
 381   0.0000       6.323805       172.0795 
 382   0.0000      29.631216       806.3064 
 383   0.0000      29.788622       810.5896 
 384   0.0000      29.836468       811.8916 
 385   0.0000      29.921693       814.2106 
 386   0.0000      29.972920       815.6046 
 387   0.0000      29.983377       815.8892 
 388   0.0000      30.048833       817.6703 
 389   0.0000      30.069591       818.2352 
 390   0.0000      30.090669       818.8087 
 391   0.0000      30.111703       819.3811 
 392   0.0000      30.149030       820.3968 
 393   0.0000      30.213960       822.1636 
 394   0.0000      30.249554       823.1322 
 395   0.0000      30.278650       823.9239 
 396   0.0000      30.354486       825.9876 
 397   0.0000      30.549198       831.2859 
 398   0.0000      36.613253       996.2973 
 399   0.0000      36.629309       996.7342 
 400   0.0000      36.630587       996.7689 
 401   0.0000      36.633742       996.8548 
 402   0.0000      36.638212       996.9764 
 403   0.0000      36.659084       997.5444 
 404   0.0000      36.671285       997.8764 
 405   0.0000      36.674156       997.9545 
 406   0.0000      36.707031       998.8491 
 407   0.0000      36.717071       999.1223 
 408   0.0000      36.820739      1001.9432 
 409   0.0000      36.844976      1002.6028 
 410   0.0000      36.850522      1002.7537 
 411   0.0000      36.876133      1003.4506 
 412   0.0000      36.879152      1003.5327 
 413   0.0000      36.885209      1003.6976 
 414   0.0000      36.912573      1004.4422 
 415   0.0000      36.932789      1004.9923 
 416   0.0000      36.933740      1005.0182 
 417   0.0000      36.964801      1005.8634 
 418   0.0000      37.011483      1007.1337 

                 SPIN DOWN ORBITALS
  NO   OCC          E(Eh)            E(eV) 
   0   1.0000     -10.218505      -278.0597 
   1   1.0000     -10.208370      -277.7839 
   2   1.0000     -10.206792      -277.7409 
   3   1.0000     -10.202685      -277.6292 
   4   1.0000     -10.202348      -277.6200 
   5   1.0000     -10.197166      -277.4790 
   6   1.0000     -10.193845      -277.3886 
   7   1.0000     -10.191386      -277.3217 
   8   1.0000     -10.188127      -277.2330 
   9   1.0000     -10.186963      -277.2014 
  10   1.0000     -10.185310      -277.1564 
  11   1.0000     -10.182968      -277.0927 
  12   1.0000     -10.182600      -277.0826 
  13   1.0000     -10.182307      -277.0746 
  14   1.0000     -10.175985      -276.9026 
  15   1.0000     -10.173628      -276.8385 
  16   1.0000      -0.865122       -23.5412 
  17   1.0000      -0.810410       -22.0524 
  18   1.0000      -0.794973       -21.6323 
  19   1.0000      -0.772637       -21.0245 
  20   1.0000      -0.762386       -20.7456 
  21   1.0000      -0.730076       -19.8664 
  22   1.0000      -0.719872       -19.5887 
  23   1.0000      -0.681854       -18.5542 
  24   1.0000      -0.661701       -18.0058 
  25   1.0000      -0.617662       -16.8074 
  26   1.0000      -0.608638       -16.5619 
  27   1.0000      -0.589388       -16.0381 
  28   1.0000      -0.575090       -15.6490 
  29   1.0000      -0.563381       -15.3304 
  30   1.0000      -0.524378       -14.2690 
  31   1.0000      -0.492418       -13.3994 
  32   1.0000      -0.487804       -13.2738 
  33   1.0000      -0.469108       -12.7651 
  34   1.0000      -0.455363       -12.3911 
  35   1.0000      -0.447372       -12.1736 
  36   1.0000      -0.427092       -11.6218 
  37   1.0000      -0.419491       -11.4149 
  38   1.0000      -0.418615       -11.3911 
  39   1.0000      -0.415803       -11.3146 
  40   1.0000      -0.409189       -11.1346 
  41   1.0000      -0.397043       -10.8041 
  42   1.0000      -0.384357       -10.4589 
  43   1.0000      -0.377832       -10.2813 
  44   1.0000      -0.371698       -10.1144 
  45   1.0000      -0.365443        -9.9442 
  46   1.0000      -0.350870        -9.5476 
  47   1.0000      -0.347653        -9.4601 
  48   1.0000      -0.337956        -9.1962 
  49   1.0000      -0.333885        -9.0855 
  50   1.0000      -0.327578        -8.9139 
  51   1.0000      -0.322074        -8.7641 
  52   1.0000      -0.321056        -8.7364 
  53   1.0000      -0.320119        -8.7109 
  54   1.0000      -0.302148        -8.2219 
  55   1.0000      -0.273837        -7.4515 
  56   1.0000      -0.258374        -7.0307 
  57   1.0000      -0.226169        -6.1544 
  58   0.0000      -0.083391        -2.2692 
  59   0.0000      -0.022998        -0.6258 
  60   0.0000       0.016978         0.4620 
  61   0.0000       0.021128         0.5749 
  62   0.0000       0.023675         0.6442 
  63   0.0000       0.025786         0.7017 
  64   0.0000       0.037817         1.0291 
  65   0.0000       0.039062         1.0629 
  66   0.0000       0.043749         1.1905 
  67   0.0000       0.046450         1.2640 
  68   0.0000       0.051863         1.4113 
  69   0.0000       0.061922         1.6850 
  70   0.0000       0.073722         2.0061 
  71   0.0000       0.077016         2.0957 
  72   0.0000       0.090360         2.4588 
  73   0.0000       0.096459         2.6248 
  74   0.0000       0.112435         3.0595 
  75   0.0000       0.121537         3.3072 
  76   0.0000       0.131980         3.5914 
  77   0.0000       0.143551         3.9062 
  78   0.0000       0.154430         4.2022 
  79   0.0000       0.159565         4.3420 
  80   0.0000       0.170380         4.6363 
  81   0.0000       0.176430         4.8009 
  82   0.0000       0.182609         4.9691 
  83   0.0000       0.185695         5.0530 
  84   0.0000       0.192817         5.2468 
  85   0.0000       0.196510         5.3473 
  86   0.0000       0.198210         5.3936 
  87   0.0000       0.199587         5.4310 
  88   0.0000       0.202603         5.5131 
  89   0.0000       0.214440         5.8352 
  90   0.0000       0.216468         5.8904 
  91   0.0000       0.217845         5.9279 
  92   0.0000       0.219986         5.9861 
  93   0.0000       0.225719         6.1421 
  94   0.0000       0.230405         6.2696 
  95   0.0000       0.237347         6.4586 
  96   0.0000       0.239788         6.5250 
  97   0.0000       0.247185         6.7262 
  98   0.0000       0.253008         6.8847 
  99   0.0000       0.261441         7.1142 
 100   0.0000       0.268827         7.3151 
 101   0.0000       0.270256         7.3540 
 102   0.0000       0.279553         7.6070 
 103   0.0000       0.284513         7.7420 
 104   0.0000       0.286977         7.8090 
 105   0.0000       0.288455         7.8493 
 106   0.0000       0.293759         7.9936 
 107   0.0000       0.294692         8.0190 
 108   0.0000       0.300238         8.1699 
 109   0.0000       0.305741         8.3196 
 110   0.0000       0.309844         8.4313 
 111   0.0000       0.316559         8.6140 
 112   0.0000       0.325198         8.8491 
 113   0.0000       0.331690         9.0258 
 114   0.0000       0.337477         9.1832 
 115   0.0000       0.344449         9.3729 
 116   0.0000       0.347675         9.4607 
 117   0.0000       0.354813         9.6550 
 118   0.0000       0.358217         9.7476 
 119   0.0000       0.365434         9.9440 
 120   0.0000       0.366925         9.9845 
 121   0.0000       0.370583        10.0841 
 122   0.0000       0.376724        10.2512 
 123   0.0000       0.391589        10.6557 
 124   0.0000       0.401306        10.9201 
 125   0.0000       0.403497        10.9797 
 126   0.0000       0.412325        11.2199 
 127   0.0000       0.416485        11.3331 
 128   0.0000       0.430221        11.7069 
 129   0.0000       0.431538        11.7428 
 130   0.0000       0.440060        11.9746 
 131   0.0000       0.445268        12.1164 
 132   0.0000       0.449197        12.2233 
 133   0.0000       0.451896        12.2967 
 134   0.0000       0.465091        12.6558 
 135   0.0000       0.473520        12.8851 
 136   0.0000       0.478567        13.0225 
 137   0.0000       0.485038        13.1986 
 138   0.0000       0.491441        13.3728 
 139   0.0000       0.498887        13.5754 
 140   0.0000       0.503058        13.6889 
 141   0.0000       0.506036        13.7700 
 142   0.0000       0.515684        14.0325 
 143   0.0000       0.533070        14.5056 
 144   0.0000       0.542263        14.7557 
 145   0.0000       0.548848        14.9349 
 146   0.0000       0.559698        15.2302 
 147   0.0000       0.563184        15.3250 
 148   0.0000       0.574869        15.6430 
 149   0.0000       0.585200        15.9241 
 150   0.0000       0.593674        16.1547 
 151   0.0000       0.597028        16.2460 
 152   0.0000       0.606653        16.5079 
 153   0.0000       0.616091        16.7647 
 154   0.0000       0.624783        17.0012 
 155   0.0000       0.645394        17.5621 
 156   0.0000       0.663057        18.0427 
 157   0.0000       0.676181        18.3998 
 158   0.0000       0.692119        18.8335 
 159   0.0000       0.720505        19.6059 
 160   0.0000       0.767141        20.8750 
 161   0.0000       0.771476        20.9929 
 162   0.0000       0.785837        21.3837 
 163   0.0000       0.788949        21.4684 
 164   0.0000       0.805738        21.9252 
 165   0.0000       0.819470        22.2989 
 166   0.0000       0.824825        22.4446 
 167   0.0000       0.834249        22.7011 
 168   0.0000       0.845448        23.0058 
 169   0.0000       0.852567        23.1995 
 170   0.0000       0.861372        23.4391 
 171   0.0000       0.870080        23.6761 
 172   0.0000       0.872731        23.7482 
 173   0.0000       0.886519        24.1234 
 174   0.0000       0.889337        24.2001 
 175   0.0000       0.902437        24.5565 
 176   0.0000       0.904065        24.6008 
 177   0.0000       0.920234        25.0408 
 178   0.0000       0.921725        25.0814 
 179   0.0000       0.924247        25.1500 
 180   0.0000       0.930362        25.3164 
 181   0.0000       0.937113        25.5001 
 182   0.0000       0.938346        25.5337 
 183   0.0000       0.945045        25.7160 
 184   0.0000       0.948565        25.8118 
 185   0.0000       0.960501        26.1366 
 186   0.0000       0.969273        26.3753 
 187   0.0000       0.975868        26.5547 
 188   0.0000       0.979661        26.6579 
 189   0.0000       0.992317        27.0023 
 190   0.0000       0.999662        27.2022 
 191   0.0000       1.010171        27.4881 
 192   0.0000       1.015642        27.6370 
 193   0.0000       1.022024        27.8107 
 194   0.0000       1.025549        27.9066 
 195   0.0000       1.028379        27.9836 
 196   0.0000       1.056082        28.7374 
 197   0.0000       1.057102        28.7652 
 198   0.0000       1.061901        28.8958 
 199   0.0000       1.067970        29.0609 
 200   0.0000       1.073065        29.1996 
 201   0.0000       1.091237        29.6941 
 202   0.0000       1.093059        29.7437 
 203   0.0000       1.105207        30.0742 
 204   0.0000       1.108822        30.1726 
 205   0.0000       1.110986        30.2315 
 206   0.0000       1.136830        30.9347 
 207   0.0000       1.149411        31.2771 
 208   0.0000       1.170236        31.8437 
 209   0.0000       1.177032        32.0287 
 210   0.0000       1.181455        32.1490 
 211   0.0000       1.194759        32.5110 
 212   0.0000       1.202460        32.7206 
 213   0.0000       1.209827        32.9211 
 214   0.0000       1.224893        33.3310 
 215   0.0000       1.244957        33.8770 
 216   0.0000       1.250024        34.0149 
 217   0.0000       1.261674        34.3319 
 218   0.0000       1.266310        34.4580 
 219   0.0000       1.279320        34.8121 
 220   0.0000       1.290414        35.1140 
 221   0.0000       1.311450        35.6864 
 222   0.0000       1.322072        35.9754 
 223   0.0000       1.344219        36.5781 
 224   0.0000       1.348553        36.6960 
 225   0.0000       1.360795        37.0291 
 226   0.0000       1.383250        37.6401 
 227   0.0000       1.386487        37.7282 
 228   0.0000       1.396430        37.9988 
 229   0.0000       1.405345        38.2414 
 230   0.0000       1.421250        38.6742 
 231   0.0000       1.426138        38.8072 
 232   0.0000       1.428818        38.8801 
 233   0.0000       1.434280        39.0287 
 234   0.0000       1.441991        39.2386 
 235   0.0000       1.452033        39.5118 
 236   0.0000       1.458651        39.6919 
 237   0.0000       1.473477        40.0953 
 238   0.0000       1.483665        40.3726 
 239   0.0000       1.500169        40.8217 
 240   0.0000       1.502122        40.8748 
 241   0.0000       1.518673        41.3252 
 242   0.0000       1.525991        41.5243 
 243   0.0000       1.528125        41.5824 
 244   0.0000       1.544480        42.0274 
 245   0.0000       1.557700        42.3872 
 246   0.0000       1.563029        42.5322 
 247   0.0000       1.574370        42.8408 
 248   0.0000       1.585555        43.1452 
 249   0.0000       1.591300        43.3015 
 250   0.0000       1.598889        43.5080 
 251   0.0000       1.605958        43.7003 
 252   0.0000       1.608798        43.7776 
 253   0.0000       1.618876        44.0519 
 254   0.0000       1.623024        44.1647 
 255   0.0000       1.635550        44.5056 
 256   0.0000       1.640595        44.6429 
 257   0.0000       1.646163        44.7944 
 258   0.0000       1.653210        44.9861 
 259   0.0000       1.675975        45.6056 
 260   0.0000       1.677015        45.6339 
 261   0.0000       1.688367        45.9428 
 262   0.0000       1.699977        46.2587 
 263   0.0000       1.705213        46.4012 
 264   0.0000       1.717224        46.7280 
 265   0.0000       1.723449        46.8974 
 266   0.0000       1.725968        46.9660 
 267   0.0000       1.735668        47.2299 
 268   0.0000       1.752125        47.6778 
 269   0.0000       1.754481        47.7418 
 270   0.0000       1.763230        47.9799 
 271   0.0000       1.767842        48.1054 
 272   0.0000       1.776321        48.3361 
 273   0.0000       1.784574        48.5607 
 274   0.0000       1.798638        48.9434 
 275   0.0000       1.810381        49.2630 
 276   0.0000       1.818911        49.4951 
 277   0.0000       1.832470        49.8641 
 278   0.0000       1.840058        50.0705 
 279   0.0000       1.858637        50.5761 
 280   0.0000       1.868782        50.8521 
 281   0.0000       1.885337        51.3026 
 282   0.0000       1.914796        52.1042 
 283   0.0000       1.920135        52.2495 
 284   0.0000       1.935783        52.6753 
 285   0.0000       1.943477        52.8847 
 286   0.0000       1.952142        53.1205 
 287   0.0000       1.969297        53.5873 
 288   0.0000       1.983888        53.9843 
 289   0.0000       2.021168        54.9988 
 290   0.0000       2.044717        55.6396 
 291   0.0000       2.049258        55.7632 
 292   0.0000       2.056407        55.9577 
 293   0.0000       2.065109        56.1945 
 294   0.0000       2.081495        56.6404 
 295   0.0000       2.102387        57.2089 
 296   0.0000       2.107450        57.3466 
 297   0.0000       2.123842        57.7927 
 298   0.0000       2.154779        58.6345 
 299   0.0000       2.169801        59.0433 
 300   0.0000       2.190723        59.6126 
 301   0.0000       2.213744        60.2390 
 302   0.0000       2.229321        60.6629 
 303   0.0000       2.239018        60.9268 
 304   0.0000       2.239691        60.9451 
 305   0.0000       2.250840        61.2485 
 306   0.0000       2.256039        61.3899 
 307   0.0000       2.261995        61.5520 
 308   0.0000       2.274263        61.8859 
 309   0.0000       2.295336        62.4593 
 310   0.0000       2.310153        62.8625 
 311   0.0000       2.314214        62.9730 
 312   0.0000       2.324461        63.2518 
 313   0.0000       2.329609        63.3919 
 314   0.0000       2.348556        63.9075 
 315   0.0000       2.353650        64.0461 
 316   0.0000       2.390304        65.0435 
 317   0.0000       2.407849        65.5209 
 318   0.0000       2.413113        65.6641 
 319   0.0000       2.429636        66.1138 
 320   0.0000       2.441839        66.4458 
 321   0.0000       2.454402        66.7877 
 322   0.0000       2.456123        66.8345 
 323   0.0000       2.469774        67.2060 
 324   0.0000       2.476915        67.4003 
 325   0.0000       2.489528        67.7435 
 326   0.0000       2.507815        68.2411 
 327   0.0000       2.517654        68.5089 
 328   0.0000       2.527812        68.7853 
 329   0.0000       2.538160        69.0668 
 330   0.0000       2.552784        69.4648 
 331   0.0000       2.568508        69.8927 
 332   0.0000       2.581462        70.2452 
 333   0.0000       2.590504        70.4912 
 334   0.0000       2.608587        70.9833 
 335   0.0000       2.622177        71.3531 
 336   0.0000       2.626905        71.4817 
 337   0.0000       2.645588        71.9901 
[...]
 A(ORB)          0.0000               0.0000               0.0001    A(PC) =   0.0000
 A(DIA)          0.0001               0.0000               0.0000    A(PC) =   0.0000
             ----------           ----------           ----------
 A(Tot)         -0.1122              -0.1287               0.4242    A(iso)=    0.0611
 Orientation: 
  X           0.9776863           -0.1931471            0.0826052
  Y          -0.0667139            0.0873905            0.9939377
  Z          -0.1991951           -0.9772702            0.0725549

Notes:  (1) The A matrix conforms to the "SAI" spin Hamiltonian convention.
        (2) Tensor is right-handed.

 -----------------------------------------------------------
 Nucleus  34H : A:ISTP=    1 I=  0.5 P=533.5514 MHz/au**3
                Q:ISTP=    2 I=  1.0 Q=  0.0029 barn     
 -----------------------------------------------------------
 Solving for nuclear perturbation:
Forming RHS of the CP-SCF equations         ... 
Calc. nucleus orbit integrals (SHARK)       ... done

------------------------------------------------------------------------------
                           ORCA CP-SCF CALCULATION
------------------------------------------------------------------------------

Input orbitals are from        ... EPRII.gbw
Input Perturbation             ... EPRII.pin.tmp
Wavefunction output            ... EPRII.pout.tmp
Perturbation mode              ... Imaginary perturbation
Solver                         ... POPLE
Max. number of iterations      ... 64
Convergence tolerance          ... 1.000e-03
Integral handling              ... Direct
DFT GridXC                     ... 1
COSX GridX                     ... 1
COSX IntAccX                   ... 3.067
COSX Algorithm                 ... Auto
Number of perturbations        ... 3
Number of operators            ... 2
Orbital ranges used for CP-SCF:
 Operator 0:  Orbitals   0... 58  to  59...418
 Operator 1:  Orbitals   0... 57  to  58...418
Variables per perturbation     ... 42178
DFT calculation                         ... on
XC functional terms                     ... off
Hybrid DFT                              ... on
   Exchange mixing (SCF)                ...  0.200
   Exchange mixing (CP-SCF)             ...  0.200
   GGA exch. scaling(SCF)               ...  0.720
   GGA exch. scaling (CP-SCF)           ...  0.720
   GGA corr. scaling (SCF)              ...  0.810
   GGA corr. scaling (CP-SCF)           ...  0.810

CP-SCF GRID
-----------

General Integration Accuracy     IntAcc      ... 3.467
Radial Grid Type                 RadialGrid  ... OptM3 with GC (2021)
Angular Grid (max. ang.)         AngularGrid ... 1 (Lebedev-50)
Angular grid pruning method      GridPruning ... 4 (adaptive)
Weight generation scheme         WeightScheme... Becke
Basis function cutoff            BFCut       ... 1.0000e-10
Integration weight cutoff        WCut        ... 1.0000e-14
Angular grids for H and He will be reduced by one unit
Partially contracted basis set               ... off
Rotationally invariant grid construction     ... off

Total number of grid points                  ...    22895
Total number of batches                      ...      373
Average number of points per batch           ...       61
Average number of grid points per atom       ...      619

CP-SCF GRIDX
------------

General Integration Accuracy     IntAcc      ... 3.067
Radial Grid Type                 RadialGrid  ... OptM3 with GC (2021)
Angular Grid (max. ang.)         AngularGrid ... 1 (Lebedev-50)
Angular grid pruning method      GridPruning ... 4 (adaptive)
Weight generation scheme         WeightScheme... Becke
Basis function cutoff            BFCut       ... 1.0000e-10
Integration weight cutoff        WCut        ... 1.0000e-14
Angular grids for H and He will be reduced by one unit
Partially contracted basis set               ... on
Rotationally invariant grid construction     ... off

Total number of grid points                  ...    10842
Total number of batches                      ...      192
Average number of points per batch           ...       56
Average number of grid points per atom       ...      293

Memory available               ... 902.6 MB
Memory needed per perturbation ...  10.3 MB
Perturbations treated per batch... 3
Number of batches              ... 1
     CP-SCF ITERATION   0:   9.8821e-02 (   1.1 sec   0/  3 done)
     CP-SCF ITERATION   1:   2.2267e-03 (   1.1 sec   0/  3 done)
     CP-SCF ITERATION   2:   1.7696e-04 (   1.1 sec   3/  3 done)
                    *** THE CP-SCF HAS CONVERGED ***

Forming final perturbed densities           ... done
Transforming perturbed density to AO basis  ... done

 Raw HFC matrix (all values in MHz): 
 -----------------------------------
                 2.7676               0.3434               0.1279
                 0.3433               5.0686              -0.1288
                 0.1279              -0.1288               3.5809

 A(FC)           3.8060               3.8060               3.8060
 A(SD)          -1.1123              -0.2090               1.3213
 A(ORB+DIA)     -0.0001               0.0001              -0.0008    A(PC) =  -0.0003
 A(ORB)          0.0000              -0.0001              -0.0009    A(PC) =  -0.0003
 A(DIA)         -0.0001               0.0002               0.0001    A(PC) =   0.0001
             ----------           ----------           ----------
 A(Tot)          2.6936               3.5971               5.1265    A(iso)=    3.8057
 Orientation: 
  X          -0.9752888            0.1709488            0.1399579
  Y           0.1498331            0.0462358            0.9876296
  Z           0.1623630            0.9841945           -0.0707071

Notes:  (1) The A matrix conforms to the "SAI" spin Hamiltonian convention.
        (2) Tensor is right-handed.

 -----------------------------------------------------------
 Nucleus  35H : A:ISTP=    1 I=  0.5 P=533.5514 MHz/au**3
                Q:ISTP=    2 I=  1.0 Q=  0.0029 barn     
 -----------------------------------------------------------
 Solving for nuclear perturbation:
Forming RHS of the CP-SCF equations         ... 
Calc. nucleus orbit integrals (SHARK)       ... done

------------------------------------------------------------------------------
                           ORCA CP-SCF CALCULATION
------------------------------------------------------------------------------

Input orbitals are from        ... EPRII.gbw
Input Perturbation             ... EPRII.pin.tmp
Wavefunction output            ... EPRII.pout.tmp
Perturbation mode              ... Imaginary perturbation
Solver                         ... POPLE
Max. number of iterations      ... 64
Convergence tolerance          ... 1.000e-03
Integral handling              ... Direct
DFT GridXC                     ... 1
COSX GridX                     ... 1
COSX IntAccX                   ... 3.067
COSX Algorithm                 ... Auto
Number of perturbations        ... 3
Number of operators            ... 2
Orbital ranges used for CP-SCF:
 Operator 0:  Orbitals   0... 58  to  59...418
 Operator 1:  Orbitals   0... 57  to  58...418
Variables per perturbation     ... 42178
DFT calculation                         ... on
XC functional terms                     ... off
Hybrid DFT                              ... on
   Exchange mixing (SCF)                ...  0.200
   Exchange mixing (CP-SCF)             ...  0.200
   GGA exch. scaling(SCF)               ...  0.720
   GGA exch. scaling (CP-SCF)           ...  0.720
   GGA corr. scaling (SCF)              ...  0.810
   GGA corr. scaling (CP-SCF)           ...  0.810

CP-SCF GRID
-----------

General Integration Accuracy     IntAcc      ... 3.467
Radial Grid Type                 RadialGrid  ... OptM3 with GC (2021)
Angular Grid (max. ang.)         AngularGrid ... 1 (Lebedev-50)
Angular grid pruning method      GridPruning ... 4 (adaptive)
Weight generation scheme         WeightScheme... Becke
Basis function cutoff            BFCut       ... 1.0000e-10
Integration weight cutoff        WCut        ... 1.0000e-14
Angular grids for H and He will be reduced by one unit
Partially contracted basis set               ... off
Rotationally invariant grid construction     ... off

Total number of grid points                  ...    22895
Total number of batches                      ...      373
Average number of points per batch           ...       61
Average number of grid points per atom       ...      619

CP-SCF GRIDX
------------

General Integration Accuracy     IntAcc      ... 3.067
Radial Grid Type                 RadialGrid  ... OptM3 with GC (2021)
Angular Grid (max. ang.)         AngularGrid ... 1 (Lebedev-50)
Angular grid pruning method      GridPruning ... 4 (adaptive)
Weight generation scheme         WeightScheme... Becke
Basis function cutoff            BFCut       ... 1.0000e-10
Integration weight cutoff        WCut        ... 1.0000e-14
Angular grids for H and He will be reduced by one unit
Partially contracted basis set               ... on
Rotationally invariant grid construction     ... off

Total number of grid points                  ...    10842
Total number of batches                      ...      192
Average number of points per batch           ...       56
Average number of grid points per atom       ...      293

Memory available               ... 902.1 MB
Memory needed per perturbation ...  10.3 MB
Perturbations treated per batch... 3
Number of batches              ... 1
     CP-SCF ITERATION   0:   3.6839e-02 (   1.1 sec   0/  3 done)
     CP-SCF ITERATION   1:   6.2620e-04 (   1.1 sec   3/  3 done)
                    *** THE CP-SCF HAS CONVERGED ***

Forming final perturbed densities           ... done
Transforming perturbed density to AO basis  ... done

 Raw HFC matrix (all values in MHz): 
 -----------------------------------
                 1.4071              -0.3946               0.4542
                -0.3948               0.3917              -0.1481
                 0.4541              -0.1480               0.4890

 A(FC)           0.7625               0.7625               0.7625
 A(SD)          -0.5071              -0.4569               0.9640
 A(ORB+DIA)     -0.0000              -0.0000               0.0003    A(PC) =   0.0001
 A(ORB)         -0.0001              -0.0000               0.0002    A(PC) =   0.0000
 A(DIA)          0.0000               0.0000               0.0001    A(PC) =   0.0000
             ----------           ----------           ----------
 A(Tot)          0.2554               0.3056               1.7268    A(iso)=    0.7626
 Orientation: 
  X           0.3652585           -0.2946343            0.8830497
  Y           0.9225121            0.2416630           -0.3009493
  Z          -0.1247305            0.9245483            0.3600731

Notes:  (1) The A matrix conforms to the "SAI" spin Hamiltonian convention.
        (2) Tensor is right-handed.

 -----------------------------------------------------------
 Nucleus  36H : A:ISTP=    1 I=  0.5 P=533.5514 MHz/au**3
                Q:ISTP=    2 I=  1.0 Q=  0.0029 barn     
 -----------------------------------------------------------
 Solving for nuclear perturbation:
Forming RHS of the CP-SCF equations         ... 
Calc. nucleus orbit integrals (SHARK)       ... done

------------------------------------------------------------------------------
                           ORCA CP-SCF CALCULATION
------------------------------------------------------------------------------

Input orbitals are from        ... EPRII.gbw
Input Perturbation             ... EPRII.pin.tmp
Wavefunction output            ... EPRII.pout.tmp
Perturbation mode              ... Imaginary perturbation
Solver                         ... POPLE
Max. number of iterations      ... 64
Convergence tolerance          ... 1.000e-03
Integral handling              ... Direct
DFT GridXC                     ... 1
COSX GridX                     ... 1
COSX IntAccX                   ... 3.067
COSX Algorithm                 ... Auto
Number of perturbations        ... 3
Number of operators            ... 2
Orbital ranges used for CP-SCF:
 Operator 0:  Orbitals   0... 58  to  59...418
 Operator 1:  Orbitals   0... 57  to  58...418
Variables per perturbation     ... 42178
DFT calculation                         ... on
XC functional terms                     ... off
Hybrid DFT                              ... on
   Exchange mixing (SCF)                ...  0.200
   Exchange mixing (CP-SCF)             ...  0.200
   GGA exch. scaling(SCF)               ...  0.720
   GGA exch. scaling (CP-SCF)           ...  0.720
   GGA corr. scaling (SCF)              ...  0.810
   GGA corr. scaling (CP-SCF)           ...  0.810

CP-SCF GRID
-----------

General Integration Accuracy     IntAcc      ... 3.467
Radial Grid Type                 RadialGrid  ... OptM3 with GC (2021)
Angular Grid (max. ang.)         AngularGrid ... 1 (Lebedev-50)
Angular grid pruning method      GridPruning ... 4 (adaptive)
Weight generation scheme         WeightScheme... Becke
Basis function cutoff            BFCut       ... 1.0000e-10
Integration weight cutoff        WCut        ... 1.0000e-14
Angular grids for H and He will be reduced by one unit
Partially contracted basis set               ... off
Rotationally invariant grid construction     ... off

Total number of grid points                  ...    22895
Total number of batches                      ...      373
Average number of points per batch           ...       61
Average number of grid points per atom       ...      619

CP-SCF GRIDX
------------

General Integration Accuracy     IntAcc      ... 3.067
Radial Grid Type                 RadialGrid  ... OptM3 with GC (2021)
Angular Grid (max. ang.)         AngularGrid ... 1 (Lebedev-50)
Angular grid pruning method      GridPruning ... 4 (adaptive)
Weight generation scheme         WeightScheme... Becke
Basis function cutoff            BFCut       ... 1.0000e-10
Integration weight cutoff        WCut        ... 1.0000e-14
Angular grids for H and He will be reduced by one unit
Partially contracted basis set               ... on
Rotationally invariant grid construction     ... off

Total number of grid points                  ...    10842
Total number of batches                      ...      192
Average number of points per batch           ...       56
Average number of grid points per atom       ...      293

Memory available               ... 901.7 MB
Memory needed per perturbation ...  10.3 MB
Perturbations treated per batch... 3
Number of batches              ... 1
     CP-SCF ITERATION   0:   3.6914e-02 (   1.1 sec   0/  3 done)
     CP-SCF ITERATION   1:   5.9125e-04 (   1.1 sec   3/  3 done)
                    *** THE CP-SCF HAS CONVERGED ***

Forming final perturbed densities           ... done
Transforming perturbed density to AO basis  ... done

 Raw HFC matrix (all values in MHz): 
 -----------------------------------
                -0.1239               0.0919              -0.0070
                 0.0920               0.2340              -0.0314
                -0.0071              -0.0314              -0.1405

 A(FC)          -0.0102              -0.0102              -0.0102
 A(SD)          -0.1329              -0.1360               0.2689
 A(ORB+DIA)      0.0000               0.0001               0.0001    A(PC) =   0.0001
 A(ORB)          0.0000               0.0000               0.0001    A(PC) =   0.0000
 A(DIA)          0.0000               0.0000               0.0000    A(PC) =   0.0000
             ----------           ----------           ----------
 A(Tot)         -0.1430              -0.1462               0.2588    A(iso)=   -0.0101
 Orientation: 
  X           0.1836923            0.9546829            0.2341743
  Y           0.0370846           -0.2447890            0.9688669
  Z           0.9822840           -0.1692891           -0.0803699

Notes:  (1) The A matrix conforms to the "SAI" spin Hamiltonian convention.
        (2) Tensor is right-handed.


--------------------------------------------------------------------------------
----------------------------------------------------------------------------
                           ORCA EULER ANGLE PROGRAM
----------------------------------------------------------------------------

Only g-tensor available        -->  using g-tensor as reference tensor

Reference tensor               ...  g

g-tensor ordering              ...  |g_min> --> |gx>
                                    |g_mid> --> |gy>
                                    |g_max> --> |gz>

A- and EFG-tensor ordering     ...  the axes |Ax>, |Qx>, |Ay>, etc. are assigned
                                    such that the Euler rotation is minimal. You
                                    can find the respective eigenvalues as Ax,
                                    EFGx, Ay, etc. in the tables below.
                                    The relation of |Ax>, |Ay>,  etc. to Amin, Amid, etc.
                                    (as printed in the ORCA EPR/NMR CALCULATION Output)
                                    is obtained in the detailed printout.

Euler rotation around          ...  z - y - z
   First rotation              -->  by alpha around z
   Second rotation             -->  by beta around y'
   Third rotation              -->  by gamma around z''
   Positive / Negative angle   -->  clockwise / counterclockwise rotation

Plot EFG-tensors                    (-)
Plot HFC-tensors                    (-)
Detailed Printout                   (-)

-------------------------------------------------------------------------
          Euler rotation of hyperfine tensor to g-tensor
-------------------------------------------------------------------------

-------------------------------------------------------------------
 Atom  |   Alpha    Beta    Gamma   |   Ax       Ay       Az 
       |          [degrees]         |           [MHz]         
-------------------------------------------------------------------
  7H       98.9     32.5    -93.2     -18.65   -21.80    -7.80
  8H      100.7     29.7    -96.0       4.41    10.19     5.53
 10H     -154.2      4.2    156.3     -49.07   -20.14   -75.03
 11H       98.5     27.0    -94.3     -48.95   -74.08   -19.54
 13H      -67.5     51.0     48.2       3.97     8.42     4.18
 14H     -103.9     34.8     94.4       6.21    13.02     7.63
 16H      157.6     38.2    159.5       3.52    -3.24    -1.36
 17H      166.5     42.6    173.1       2.12    -1.21    -1.73
 19H      -33.1     35.3     40.7      -0.75     1.27    -0.59
 20H     -125.8     46.9    149.1      -0.24     1.36    -0.16
 22H      125.5     46.1   -150.1      27.13    31.32    27.82
 23H       60.3     38.5    -25.3      27.63    31.83    28.34
 25H      160.8     17.6   -159.3      -1.11    -1.00     1.09
 26H       35.0      9.3    -26.5      -1.12    -1.01     1.09
 28H      -52.6     25.7     83.4      -0.11    -0.16     0.91
 29H     -147.7     28.5    122.1      -0.11    -0.15     0.92
 31H      -60.9      7.1     68.9      -0.13    -0.11     0.43
 32H     -154.7     13.5    156.2      -0.13    -0.11     0.42
 34H     -112.8     11.7    115.6       3.60     2.69     5.13
 35H      -69.1     24.8    100.6       0.31     1.73     0.26
 36H     -107.5     17.0    109.3      -0.14    -0.15     0.26
-------------------------------------------------------------------


Maximum memory used throughout the entire EPRNMR-calculation: 164.5 MB

Timings for individual modules:

Sum of individual times         ...     1733.730 sec (=  28.895 min)
GTO integral calculation        ...        4.999 sec (=   0.083 min)   0.3 %
Spin-Orbit-Coupling Matrices    ...        8.412 sec (=   0.140 min)   0.5 %
SCF iterations                  ...       79.617 sec (=   1.327 min)   4.6 %
EPR/NMR calculation             ...     1640.702 sec (=  27.345 min)  94.6 %
                             ****ORCA TERMINATED NORMALLY****
TOTAL RUN TIME: 0 days 0 hours 28 minutes 57 seconds 721 msec
