
                                 *****************
                                 * O   R   C   A *
                                 *****************

                                            #,                                       
                                            ###                                      
                                            ####                                     
                                            #####                                    
                                            ######                                   
                                           ########,                                 
                                     ,,################,,,,,                         
                               ,,#################################,,                 
                          ,,##########################################,,             
                       ,#########################################, ''#####,          
                    ,#############################################,,   '####,        
                  ,##################################################,,,,####,       
                ,###########''''           ''''###############################       
              ,#####''   ,,,,##########,,,,          '''####'''          '####       
            ,##' ,,,,###########################,,,                        '##       
           ' ,,###''''                  '''############,,,                           
         ,,##''                                '''############,,,,        ,,,,,,###''
      ,#''                                            '''#######################'''  
     '                                                          ''''####''''         
             ,#######,   #######,   ,#######,      ##                                
            ,#'     '#,  ##    ##  ,#'     '#,    #''#        ######   ,####,        
            ##       ##  ##   ,#'  ##            #'  '#       #        #'  '#        
            ##       ##  #######   ##           ,######,      #####,   #    #        
            '#,     ,#'  ##    ##  '#,     ,#' ,#      #,         ##   #,  ,#        
             '#######'   ##     ##  '#######'  #'      '#     #####' # '####'        



                  #######################################################
                  #                        -***-                        #
                  #          Department of theory and spectroscopy      #
                  #    Directorship and core code : Frank Neese         #
                  #        Max Planck Institute fuer Kohlenforschung    #
                  #                Kaiser Wilhelm Platz 1               #
                  #                 D-45470 Muelheim/Ruhr               #
                  #                      Germany                        #
                  #                                                     #
                  #                  All rights reserved                #
                  #                        -***-                        #
                  #######################################################


                         Program Version 5.0.4 -  RELEASE  -


 With contributions from (in alphabetic order):
   Daniel Aravena         : Magnetic Suceptibility
   Michael Atanasov       : Ab Initio Ligand Field Theory (pilot matlab implementation)
   Alexander A. Auer      : GIAO ZORA, VPT2 properties, NMR spectrum
   Ute Becker             : Parallelization
   Giovanni Bistoni       : ED, misc. LED, open-shell LED, HFLD
   Martin Brehm           : Molecular dynamics
   Dmytro Bykov           : SCF Hessian
   Vijay G. Chilkuri      : MRCI spin determinant printing, contributions to CSF-ICE
   Dipayan Datta          : RHF DLPNO-CCSD density
   Achintya Kumar Dutta   : EOM-CC, STEOM-CC
   Dmitry Ganyushin       : Spin-Orbit,Spin-Spin,Magnetic field MRCI
   Miquel Garcia          : C-PCM and meta-GGA Hessian, CC/C-PCM, Gaussian charge scheme
   Yang Guo               : DLPNO-NEVPT2, F12-NEVPT2, CIM, IAO-localization
   Andreas Hansen         : Spin unrestricted coupled pair/coupled cluster methods
   Benjamin Helmich-Paris : MC-RPA, TRAH-SCF, COSX integrals
   Lee Huntington         : MR-EOM, pCC
   Robert Izsak           : Overlap fitted RIJCOSX, COSX-SCS-MP3, EOM
   Marcus Kettner         : VPT2
   Christian Kollmar      : KDIIS, OOCD, Brueckner-CCSD(T), CCSD density, CASPT2, CASPT2-K
   Simone Kossmann        : Meta GGA functionals, TD-DFT gradient, OOMP2, MP2 Hessian
   Martin Krupicka        : Initial AUTO-CI
   Lucas Lang             : DCDCAS
   Marvin Lechner         : AUTO-CI (C++ implementation), FIC-MRCC
   Dagmar Lenk            : GEPOL surface, SMD
   Dimitrios Liakos       : Extrapolation schemes; Compound Job, initial MDCI parallelization
   Dimitrios Manganas     : Further ROCIS development; embedding schemes
   Dimitrios Pantazis     : SARC Basis sets
   Anastasios Papadopoulos: AUTO-CI, single reference methods and gradients
   Taras Petrenko         : DFT Hessian,TD-DFT gradient, ASA, ECA, R-Raman, ABS, FL, XAS/XES, NRVS
   Peter Pinski           : DLPNO-MP2, DLPNO-MP2 Gradient
   Christoph Reimann      : Effective Core Potentials
   Marius Retegan         : Local ZFS, SOC
   Christoph Riplinger    : Optimizer, TS searches, QM/MM, DLPNO-CCSD(T), (RO)-DLPNO pert. Triples
   Tobias Risthaus        : Range-separated hybrids, TD-DFT gradient, RPA, STAB
   Michael Roemelt        : Original ROCIS implementation
   Masaaki Saitow         : Open-shell DLPNO-CCSD energy and density
   Barbara Sandhoefer     : DKH picture change effects
   Avijit Sen             : IP-ROCIS
   Kantharuban Sivalingam : CASSCF convergence, NEVPT2, FIC-MRCI
   Bernardo de Souza      : ESD, SOC TD-DFT
   Georgi Stoychev        : AutoAux, RI-MP2 NMR, DLPNO-MP2 response
   Willem Van den Heuvel  : Paramagnetic NMR
   Boris Wezisla          : Elementary symmetry handling
   Frank Wennmohs         : Technical directorship


 We gratefully acknowledge several colleagues who have allowed us to
 interface, adapt or use parts of their codes:
   Stefan Grimme, W. Hujo, H. Kruse, P. Pracht,  : VdW corrections, initial TS optimization,
                  C. Bannwarth, S. Ehlert          DFT functionals, gCP, sTDA/sTD-DF
   Ed Valeev, F. Pavosevic, A. Kumar             : LibInt (2-el integral package), F12 methods
   Garnet Chan, S. Sharma, J. Yang, R. Olivares  : DMRG
   Ulf Ekstrom                                   : XCFun DFT Library
   Mihaly Kallay                                 : mrcc  (arbitrary order and MRCC methods)
   Jiri Pittner, Ondrej Demel                    : Mk-CCSD
   Frank Weinhold                                : gennbo (NPA and NBO analysis)
   Christopher J. Cramer and Donald G. Truhlar   : smd solvation model
   Lars Goerigk                                  : TD-DFT with DH, B97 family of functionals
   V. Asgeirsson, H. Jonsson                     : NEB implementation
   FAccTs GmbH                                   : IRC, NEB, NEB-TS, DLPNO-Multilevel, CI-OPT
                                                   MM, QMMM, 2- and 3-layer-ONIOM, Crystal-QMMM,
                                                   LR-CPCM, SF, NACMEs, symmetry and pop. for TD-DFT,
                                                   nearIR, NL-DFT gradient (VV10), updates on ESD,
                                                   ML-optimized integration grids
   S Lehtola, MJT Oliveira, MAL Marques          : LibXC Library
   Liviu Ungur et al                             : ANISO software


 Your calculation uses the libint2 library for the computation of 2-el integrals
 For citations please refer to: http://libint.valeyev.net

 Your ORCA version has been built with support for libXC version: 5.1.0
 For citations please refer to: https://tddft.org/programs/libxc/

 This ORCA versions uses:
   CBLAS   interface :  Fast vector & matrix operations
   LAPACKE interface :  Fast linear algebra routines
   SCALAPACK package :  Parallel linear algebra routines
   Shared memory     :  Shared parallel matrices
   BLAS/LAPACK       :  OpenBLAS 0.3.15  USE64BITINT DYNAMIC_ARCH NO_AFFINITY SkylakeX SINGLE_THREADED
        Core in use  :  SkylakeX
   Copyright (c) 2011-2014, The OpenBLAS Project




***************************************
The coordinates will be read from file: opt.xyz
***************************************


================================================================================

----- Orbital basis set information -----
Your calculation utilizes the basis: EPR-II
   V. Barone, in Recent Advances in Density Functional Methods, Part 1 (ed. D. P. Chong), World Scientific, Singapore, 1995, p. 287.

----- AuxJ basis set information -----
Your calculation utilizes the AutoAux generation procedure.
  G. L. Stoychev, A. A. Auer, F. Neese, J. Chem. Theory Comput. 13, 554 (2017)

----- AuxC basis set information -----
Your calculation utilizes the AutoAux generation procedure.
  G. L. Stoychev, A. A. Auer, F. Neese, J. Chem. Theory Comput. 13, 554 (2017)

----- AuxJK basis set information -----
Your calculation utilizes the AutoAux generation procedure.
  G. L. Stoychev, A. A. Auer, F. Neese, J. Chem. Theory Comput. 13, 554 (2017)

================================================================================
                                        WARNINGS
                       Please study these warnings very carefully!
================================================================================

WARNING: Old DensityContainer found on disk!
         Will remove this file - 
         If you want to keep old densities, please start your calculation with a different basename. 


WARNING: your system is open-shell and RHF/RKS was chosen
  ===> : WILL SWITCH to UHF/UKS


INFO   : the flag for use of the SHARK integral package has been found!

================================================================================
                                       INPUT FILE
================================================================================
NAME = EPRII_i.inp
|  1> ! B3LYP EPR-II AUTOAUX
|  2> %pal nprocs 16 end
|  3> *XYZFile 0 2 opt.xyz
|  4> %EPRNMR
|  5>         GTENSOR   TRUE
|  6>         NUCLEI    = ALL H {SHIFT, AISO, ADIP, AORB}
|  7>         ORI       GIAO
|  8> END
|  9> 
| 10>                          ****END OF INPUT****
================================================================================

                       ****************************
                       * Single Point Calculation *
                       ****************************

---------------------------------
CARTESIAN COORDINATES (ANGSTROEM)
---------------------------------
  C     -2.631597    0.129889    0.152946
  C      1.575864   -0.218018   -0.504992
  C      0.963822    1.083546   -0.471921
  C     -0.443340    1.138551   -0.248119
  C     -1.220279   -0.005180   -0.065902
  C     -0.611010   -1.294596   -0.103795
  C      0.773999   -1.347005   -0.323995
  H     -0.932113    2.114973   -0.219804
  H      1.262338   -2.323049   -0.360688
  C      1.682287    2.282286   -0.654363
  H      2.755459    2.297223   -0.838416
  H      1.162943    3.241730   -0.622224
  C      3.065834   -0.388546   -0.698656
  H      3.262023   -1.404533   -1.082470
  H      3.432977    0.306369   -1.474054
  C      3.887515   -0.182955    0.591465
  H      3.688811    0.825725    0.993912
  H      3.528649   -0.892624    1.358202
  C      5.390342   -0.369448    0.371431
  H      5.781137    0.351469   -0.367554
  H      5.618742   -1.381978   -0.004350
  C     -1.464202   -2.531527    0.084086
  H     -2.003034   -2.436934    1.045488
  H     -2.265137   -2.516675   -0.678829
  C     -0.750622   -3.885261    0.036886
  H     -0.229468   -4.002281   -0.931186
  H      0.033199   -3.924469    0.815700
  C     -1.711359   -5.064693    0.232430
  H     -2.238010   -4.948281    1.197733
  H     -2.495639   -5.026358   -0.546048
  C     -1.012747   -6.426102    0.189580
  H     -0.246895   -6.508811    0.980041
  H     -0.505961   -6.586065   -0.777902
  C     -3.826626    0.249482    0.342032
  H     -4.879280    0.361416    0.513224
  H      5.954180   -0.226136    1.307646
  H     -1.728336   -7.252292    0.331363

----------------------------
CARTESIAN COORDINATES (A.U.)
----------------------------
  NO LB      ZA    FRAG     MASS         X           Y           Z
   0 C     6.0000    0    12.011   -4.972997    0.245455    0.289025
   1 C     6.0000    0    12.011    2.977951   -0.411995   -0.954296
   2 C     6.0000    0    12.011    1.821360    2.047605   -0.891801
   3 C     6.0000    0    12.011   -0.837792    2.151550   -0.468878
   4 C     6.0000    0    12.011   -2.305994   -0.009789   -0.124537
   5 C     6.0000    0    12.011   -1.154641   -2.446432   -0.196145
   6 C     6.0000    0    12.011    1.462646   -2.545470   -0.612261
   7 H     1.0000    0     1.008   -1.761437    3.996720   -0.415368
   8 H     1.0000    0     1.008    2.385473   -4.389926   -0.681601
   9 C     6.0000    0    12.011    3.179061    4.312895   -1.236567
  10 H     1.0000    0     1.008    5.207062    4.341122   -1.584377
  11 H     1.0000    0     1.008    2.197643    6.125981   -1.175832
  12 C     6.0000    0    12.011    5.793587   -0.734246   -1.320269
  13 H     1.0000    0     1.008    6.164330   -2.654183   -2.045573
  14 H     1.0000    0     1.008    6.487387    0.578953   -2.785559
  15 C     6.0000    0    12.011    7.346338   -0.345736    1.117707
  16 H     1.0000    0     1.008    6.970843    1.560395    1.878222
  17 H     1.0000    0     1.008    6.668180   -1.686814    2.566630
  18 C     6.0000    0    12.011   10.186270   -0.698156    0.701903
  19 H     1.0000    0     1.008   10.924767    0.664181   -0.694576
  20 H     1.0000    0     1.008   10.617884   -2.611559   -0.008220
  21 C     6.0000    0    12.011   -2.766941   -4.783893    0.158899
  22 H     1.0000    0     1.008   -3.785186   -4.605138    1.975686
  23 H     1.0000    0     1.008   -4.280488   -4.755826   -1.282801
  24 C     6.0000    0    12.011   -1.418470   -7.342079    0.069704
  25 H     1.0000    0     1.008   -0.433631   -7.563214   -1.759686
  26 H     1.0000    0     1.008    0.062738   -7.416172    1.541450
  27 C     6.0000    0    12.011   -3.234000   -9.570882    0.439229
  28 H     1.0000    0     1.008   -4.229225   -9.350895    2.263388
  29 H     1.0000    0     1.008   -4.716075   -9.498440   -1.031882
  30 C     6.0000    0    12.011   -1.913814  -12.143574    0.358254
  31 H     1.0000    0     1.008   -0.466565  -12.299870    1.852010
  32 H     1.0000    0     1.008   -0.956128  -12.445860   -1.470022
  33 C     6.0000    0    12.011   -7.231274    0.471453    0.646348
  34 H     1.0000    0     1.008   -9.220504    0.682977    0.969853
  35 H     1.0000    0     1.008   11.251769   -0.427335    2.471093
  36 H     1.0000    0     1.008   -3.266081  -13.704845    0.626186

--------------------------------
INTERNAL COORDINATES (ANGSTROEM)
--------------------------------
 C      0   0   0     0.000000000000     0.00000000     0.00000000
 C      1   0   0     4.272779435977     0.00000000     0.00000000
 C      2   1   0     1.438665364702    60.25611533     0.00000000
 C      3   2   1     1.425909955027   117.27985933     0.03056544
 C      4   3   2     1.394617996884   122.59142877     0.00000000
 C      5   4   3     1.426618075074   119.98942380   359.80738789
 C      2   1   3     1.396552108681    58.69928977   180.20089569
 H      4   3   2     1.092290782554   118.69476616   180.07450551
 H      7   2   1     1.092009065491   117.48005890   179.77496584
 C      3   2   1     1.409415733623   123.34163715   180.34056982
 H     10   3   2     1.088942817265   122.40656763     0.31108613
 H     10   3   2     1.091459767040   120.08473860   179.78721641
 C      2   1   3     1.512150120827   177.66932669   143.65206630
 H     13   2   7     1.103644831562   108.87542942    23.48041639
 H     13   2   7     1.104057719813   110.28123973   139.41768004
 C     13   2   7     1.543320706672   113.73569286   262.26377449
 H     16  13   2     1.104030754152   109.30558255   302.18129664
 H     16  13   2     1.104671644864   108.76417815    57.47544640
 C     16  13   2     1.530256370807   112.73280384   179.63630008
 H     19  16  13     1.103875839750   111.36717896    60.34862434
 H     19  16  13     1.103899331665   111.34143478   300.59408759
 C      6   5   4     1.514343105447   119.62648733   180.48504428
 H     22   6   5     1.106156347871   108.20573503   304.09262205
 H     22   6   5     1.106235176143   108.14286371    56.41421033
 C     22   6   5     1.531019144681   117.11695442   180.17068255
 H     25  22   6     1.105648136158   109.89308124   301.94491832
 H     25  22   6     1.105651246714   109.88026936    58.44334784
 C     25  22   6     1.533725208941   112.58561711   180.24750891
 H     28  25  22     1.105767807906   109.18900891   302.47583204
 H     28  25  22     1.105709478380   109.14051315    57.74857142
 C     28  25  22     1.530794590614   113.23248136   180.07138713
 H     31  28  25     1.103719938677   111.30088794    59.92707409
 H     31  28  25     1.103830607285   111.28105466   300.22757938
 C      1   2   3     1.215792146495   179.01985546   351.11928114
 H     34   1   5     1.072342109159   179.57594182     0.77152932
 H     19  16  13     1.102247628085   111.37006533   180.48184891
 H     31  28  25     1.102161137344   111.51578224   180.08412230

---------------------------
INTERNAL COORDINATES (A.U.)
---------------------------
 C      0   0   0     0.000000000000     0.00000000     0.00000000
 C      1   0   0     8.074382964647     0.00000000     0.00000000
 C      2   1   0     2.718683537644    60.25611533     0.00000000
 C      3   2   1     2.694579306633   117.27985933     0.03056544
 C      4   3   2     2.635446075549   122.59142877     0.00000000
 C      5   4   3     2.695917459592   119.98942380   359.80738789
 C      2   1   3     2.639101017158    58.69928977   180.20089569
 H      4   3   2     2.064130437634   118.69476616   180.07450551
 H      7   2   1     2.063598069537   117.48005890   179.77496584
 C      3   2   1     2.663409745388   123.34163715   180.34056982
 H     10   3   2     2.057803700132   122.40656763     0.31108613
 H     10   3   2     2.062560045900   120.08473860   179.78721641
 C      2   1   3     2.857549601739   177.66932669   143.65206630
 H     13   2   7     2.085586480770   108.87542942    23.48041639
 H     13   2   7     2.086366726488   110.28123973   139.41768004
 C     13   2   7     2.916453472420   113.73569286   262.26377449
 H     16  13   2     2.086315768774   109.30558255   302.18129664
 H     16  13   2     2.087526876701   108.76417815    57.47544640
 C     16  13   2     2.891765455514   112.73280384   179.63630008
 H     19  16  13     2.086023022980   111.36717896    60.34862434
 H     19  16  13     2.086067416266   111.34143478   300.59408759
 C      6   5   4     2.861693742086   119.62648733   180.48504428
 H     22   6   5     2.090332558774   108.20573503   304.09262205
 H     22   6   5     2.090481522620   108.14286371    56.41421033
 C     22   6   5     2.893206889237   117.11695442   180.17068255
 H     25  22   6     2.089372177819   109.89308124   301.94491832
 H     25  22   6     2.089378055919   109.88026936    58.44334784
 C     25  22   6     2.898320609589   112.58561711   180.24750891
 H     28  25  22     2.089598324648   109.18900891   302.47583204
 H     28  25  22     2.089488097819   109.14051315    57.74857142
 C     28  25  22     2.892782543549   113.23248136   180.07138713
 H     31  28  25     2.085728412647   111.30088794    59.92707409
 H     31  28  25     2.085937546008   111.28105466   300.22757938
 C      1   2   3     2.297514192648   179.01985546   351.11928114
 H     34   1   5     2.026432908181   179.57594182     0.77152932
 H     19  16  13     2.082946148845   111.37006533   180.48184891
 H     31  28  25     2.082782705032   111.51578224   180.08412230

---------------------
BASIS SET INFORMATION
---------------------
There are 2 groups of distinct atoms

 Group   1 Type C   : 10s5p1d contracted to 6s2p1d pattern {511111/41/1}
 Group   2 Type H   : 6s1p contracted to 4s1p pattern {3111/1}

Atom   0C    basis set group =>   1
Atom   1C    basis set group =>   1
Atom   2C    basis set group =>   1
Atom   3C    basis set group =>   1
Atom   4C    basis set group =>   1
Atom   5C    basis set group =>   1
Atom   6C    basis set group =>   1
Atom   7H    basis set group =>   2
Atom   8H    basis set group =>   2
Atom   9C    basis set group =>   1
Atom  10H    basis set group =>   2
Atom  11H    basis set group =>   2
Atom  12C    basis set group =>   1
Atom  13H    basis set group =>   2
Atom  14H    basis set group =>   2
Atom  15C    basis set group =>   1
Atom  16H    basis set group =>   2
Atom  17H    basis set group =>   2
Atom  18C    basis set group =>   1
Atom  19H    basis set group =>   2
Atom  20H    basis set group =>   2
Atom  21C    basis set group =>   1
Atom  22H    basis set group =>   2
Atom  23H    basis set group =>   2
Atom  24C    basis set group =>   1
Atom  25H    basis set group =>   2
Atom  26H    basis set group =>   2
Atom  27C    basis set group =>   1
Atom  28H    basis set group =>   2
Atom  29H    basis set group =>   2
Atom  30C    basis set group =>   1
Atom  31H    basis set group =>   2
Atom  32H    basis set group =>   2
Atom  33C    basis set group =>   1
Atom  34H    basis set group =>   2
Atom  35H    basis set group =>   2
Atom  36H    basis set group =>   2
---------------------------------
AUXILIARY/J BASIS SET INFORMATION
---------------------------------
There are 2 groups of distinct atoms

 Group   1 Type C   : 17s13p12d2f contracted to 17s13p12d2f pattern {11111111111111111/1111111111111/111111111111/11}
 Group   2 Type H   : 15s6p1d contracted to 15s6p1d pattern {111111111111111/111111/1}

Atom   0C    basis set group =>   1
Atom   1C    basis set group =>   1
Atom   2C    basis set group =>   1
Atom   3C    basis set group =>   1
Atom   4C    basis set group =>   1
Atom   5C    basis set group =>   1
Atom   6C    basis set group =>   1
Atom   7H    basis set group =>   2
Atom   8H    basis set group =>   2
Atom   9C    basis set group =>   1
Atom  10H    basis set group =>   2
Atom  11H    basis set group =>   2
Atom  12C    basis set group =>   1
Atom  13H    basis set group =>   2
Atom  14H    basis set group =>   2
Atom  15C    basis set group =>   1
Atom  16H    basis set group =>   2
Atom  17H    basis set group =>   2
Atom  18C    basis set group =>   1
Atom  19H    basis set group =>   2
Atom  20H    basis set group =>   2
Atom  21C    basis set group =>   1
Atom  22H    basis set group =>   2
Atom  23H    basis set group =>   2
Atom  24C    basis set group =>   1
Atom  25H    basis set group =>   2
Atom  26H    basis set group =>   2
Atom  27C    basis set group =>   1
Atom  28H    basis set group =>   2
Atom  29H    basis set group =>   2
Atom  30C    basis set group =>   1
Atom  31H    basis set group =>   2
Atom  32H    basis set group =>   2
Atom  33C    basis set group =>   1
Atom  34H    basis set group =>   2
Atom  35H    basis set group =>   2
Atom  36H    basis set group =>   2
---------------------------------
AUXILIARY/C BASIS SET INFORMATION
---------------------------------
There are 2 groups of distinct atoms

 Group   1 Type C   : 17s13p12d2f contracted to 17s13p12d2f pattern {11111111111111111/1111111111111/111111111111/11}
 Group   2 Type H   : 15s6p1d contracted to 15s6p1d pattern {111111111111111/111111/1}

Atom   0C    basis set group =>   1
Atom   1C    basis set group =>   1
Atom   2C    basis set group =>   1
Atom   3C    basis set group =>   1
Atom   4C    basis set group =>   1
Atom   5C    basis set group =>   1
Atom   6C    basis set group =>   1
Atom   7H    basis set group =>   2
Atom   8H    basis set group =>   2
Atom   9C    basis set group =>   1
Atom  10H    basis set group =>   2
Atom  11H    basis set group =>   2
Atom  12C    basis set group =>   1
Atom  13H    basis set group =>   2
Atom  14H    basis set group =>   2
Atom  15C    basis set group =>   1
Atom  16H    basis set group =>   2
Atom  17H    basis set group =>   2
Atom  18C    basis set group =>   1
Atom  19H    basis set group =>   2
Atom  20H    basis set group =>   2
Atom  21C    basis set group =>   1
Atom  22H    basis set group =>   2
Atom  23H    basis set group =>   2
Atom  24C    basis set group =>   1
Atom  25H    basis set group =>   2
Atom  26H    basis set group =>   2
Atom  27C    basis set group =>   1
Atom  28H    basis set group =>   2
Atom  29H    basis set group =>   2
Atom  30C    basis set group =>   1
Atom  31H    basis set group =>   2
Atom  32H    basis set group =>   2
Atom  33C    basis set group =>   1
Atom  34H    basis set group =>   2
Atom  35H    basis set group =>   2
Atom  36H    basis set group =>   2
----------------------------------
AUXILIARY/JK BASIS SET INFORMATION
----------------------------------
There are 2 groups of distinct atoms

 Group   1 Type C   : 17s13p12d2f contracted to 17s13p12d2f pattern {11111111111111111/1111111111111/111111111111/11}
 Group   2 Type H   : 15s6p1d contracted to 15s6p1d pattern {111111111111111/111111/1}

Atom   0C    basis set group =>   1
Atom   1C    basis set group =>   1
Atom   2C    basis set group =>   1
Atom   3C    basis set group =>   1
Atom   4C    basis set group =>   1
Atom   5C    basis set group =>   1
Atom   6C    basis set group =>   1
Atom   7H    basis set group =>   2
Atom   8H    basis set group =>   2
Atom   9C    basis set group =>   1
Atom  10H    basis set group =>   2
Atom  11H    basis set group =>   2
Atom  12C    basis set group =>   1
Atom  13H    basis set group =>   2
Atom  14H    basis set group =>   2
Atom  15C    basis set group =>   1
Atom  16H    basis set group =>   2
Atom  17H    basis set group =>   2
Atom  18C    basis set group =>   1
Atom  19H    basis set group =>   2
Atom  20H    basis set group =>   2
Atom  21C    basis set group =>   1
Atom  22H    basis set group =>   2
Atom  23H    basis set group =>   2
Atom  24C    basis set group =>   1
Atom  25H    basis set group =>   2
Atom  26H    basis set group =>   2
Atom  27C    basis set group =>   1
Atom  28H    basis set group =>   2
Atom  29H    basis set group =>   2
Atom  30C    basis set group =>   1
Atom  31H    basis set group =>   2
Atom  32H    basis set group =>   2
Atom  33C    basis set group =>   1
Atom  34H    basis set group =>   2
Atom  35H    basis set group =>   2
Atom  36H    basis set group =>   2

Checking for AutoStart:
The File: EPRII_i.gbw exists
Trying to determine its content:
     ... Fine, the file contains calculation information
     ... Fine, the calculation information was read
     ... Fine, the file contains a basis set
     ... Fine, the basis set was read
     ... Fine, the file contains a geometry
     ... Fine, the geometry was read
     ... Fine, the file contains a set of orbitals
     ... Fine, the orbitals can be read
     => possible old guess file was deleted
     => GBW file was renamed to GES file
     => GES file is set as startup file
     => Guess is set to MORead
     ... now leaving AutoStart



           ************************************************************
           *        Program running with 16 parallel MPI-processes    *
           *              working on a common directory               *
           ************************************************************
------------------------------------------------------------------------------
                           ORCA GTO INTEGRAL CALCULATION
                           -- RI-GTO INTEGRALS CHOSEN --
------------------------------------------------------------------------------
------------------------------------------------------------------------------
                   ___                                                        
                  /   \      - P O W E R E D   B Y -                         
                 /     \                                                     
                 |  |  |   _    _      __       _____    __    __             
                 |  |  |  | |  | |    /  \     |  _  \  |  |  /  |          
                  \  \/   | |  | |   /    \    | | | |  |  | /  /          
                 / \  \   | |__| |  /  /\  \   | |_| |  |  |/  /          
                |  |  |   |  __  | /  /__\  \  |    /   |      \           
                |  |  |   | |  | | |   __   |  |    \   |  |\   \          
                \     /   | |  | | |  |  |  |  | |\  \  |  | \   \       
                 \___/    |_|  |_| |__|  |__|  |_| \__\ |__|  \__/        
                                                                              
                      - O R C A' S   B I G   F R I E N D -                    
                                      &                                       
                       - I N T E G R A L  F E E D E R -                       
                                                                              
 v1 FN, 2020, v2 2021                                                         
------------------------------------------------------------------------------


Reading SHARK input file EPRII_i.SHARKINP.tmp ... ok
----------------------
SHARK INTEGRAL PACKAGE
----------------------

Number of atoms                             ...     37
Number of basis functions                   ...    419
Number of shells                            ...    249
Maximum angular momentum                    ...      2
Integral batch strategy                     ... SHARK/LIBINT Hybrid
RI-J (if used) integral strategy            ... SPLIT-RIJ (Revised 2003 algorithm where possible)
Printlevel                                  ...      1
Contraction scheme used                     ... SEGMENTED contraction
Coulomb Range Separation                    ... NOT USED
Exchange Range Separation                   ... NOT USED
Finite Nucleus Model                        ... NOT USED
Auxiliary Coulomb fitting basis             ... AVAILABLE
   # of basis functions in Aux-J            ...   2878
   # of shells in Aux-J                     ...   1166
   Maximum angular momentum in Aux-J        ...      3
Auxiliary J/K fitting basis                 ... AVAILABLE
   # of basis functions in Aux-JK           ...   2878
   # of shells in Aux-JK                    ...   1166
   Maximum angular momentum in Aux-JK       ...      3
Auxiliary Correlation fitting basis         ... AVAILABLE
   # of basis functions in Aux-C            ...   2878
   # of shells in Aux-C                     ...   1166
   Maximum angular momentum in Aux-C        ...      3
Auxiliary 'external' fitting basis          ... NOT available
Integral threshold                          ...     1.000000e-10
Primitive cut-off                           ...     1.000000e-11
Primitive pair pre-selection threshold      ...     1.000000e-11

Calculating pre-screening integrals         ... done (  0.0 sec) Dimension = 249
Organizing shell pair data                  ... done (  0.1 sec)
Shell pair information
Total number of shell pairs                 ...     31125
Shell pairs after pre-screening             ...     19058
Total number of primitive shell pairs       ...     81725
Primitive shell pairs kept                  ...     36166
          la=0 lb=0:   8822 shell pairs
          la=1 lb=0:   6578 shell pairs
          la=1 lb=1:   1137 shell pairs
          la=2 lb=0:   1774 shell pairs
          la=2 lb=1:    645 shell pairs
          la=2 lb=2:    102 shell pairs

Calculating one electron integrals          ... done (  0.0 sec)
Calculating RI/J V-Matrix + Cholesky decomp.... done (  0.6 sec)
Calculating RI/JK V-Matrix + Cholesky decomp... done (  0.5 sec)
Calculating RI/C V-Matrix + Cholesky decomp.... done (  0.5 sec)
Calculating Nuclear repulsion               ... done (  0.0 sec) ENN=   1004.377141573651 Eh

SHARK setup successfully completed in   2.4 seconds

Maximum memory used throughout the entire GTOINT-calculation: 35.3 MB


           ************************************************************
           *        Program running with 16 parallel MPI-processes    *
           *              working on a common directory               *
           ************************************************************
-------------------------------------------------------------------------------
                                 ORCA SCF
-------------------------------------------------------------------------------

------------
SCF SETTINGS
------------
Hamiltonian:
 Density Functional     Method          .... DFT(GTOs)
 Exchange Functional    Exchange        .... B88
   X-Alpha parameter    XAlpha          ....  0.666667
   Becke's b parameter  XBeta           ....  0.004200
 Correlation Functional Correlation     .... LYP
 LDA part of GGA corr.  LDAOpt          .... VWN-5
 Gradients option       PostSCFGGA      .... off
 Hybrid DFT is turned on
   Fraction HF Exchange ScalHFX         ....  0.200000
   Scaling of DF-GGA-X  ScalDFX         ....  0.720000
   Scaling of DF-GGA-C  ScalDFC         ....  0.810000
   Scaling of DF-LDA-C  ScalLDAC        ....  1.000000
   Perturbative correction              ....  0.000000
   Density functional embedding theory  .... OFF
   NL short-range parameter             ....  4.800000
 RI-approximation to the Coulomb term is turned on
   Number of AuxJ basis functions       .... 2878
   RIJ-COSX (HFX calculated with COS-X)).... on


General Settings:
 Integral files         IntName         .... EPRII_i
 Hartree-Fock type      HFTyp           .... UHF
 Total Charge           Charge          ....    0
 Multiplicity           Mult            ....    2
 Number of Electrons    NEL             ....  117
 Basis Dimension        Dim             ....  419
 Nuclear Repulsion      ENuc            ....   1004.3771415737 Eh

Convergence Acceleration:
 DIIS                   CNVDIIS         .... on
   Start iteration      DIISMaxIt       ....    12
   Startup error        DIISStart       ....  0.200000
   # of expansion vecs  DIISMaxEq       ....     5
   Bias factor          DIISBfac        ....   1.050
   Max. coefficient     DIISMaxC        ....  10.000
 Trust-Rad. Augm. Hess. CNVTRAH         .... auto
   Auto Start mean grad. ratio tolernc. ....  1.125000
   Auto Start start iteration           ....     1
   Auto Start num. interpolation iter.  ....    10
   Max. Number of Micro iterations      ....    16
   Max. Number of Macro iterations      .... Maxiter - #DIIS iter
   Number of Davidson start vectors     ....     2
   Converg. threshold I  (grad. norm)   ....   5.000e-05
   Converg. threshold II (energy diff.) ....   1.000e-06
   Grad. Scal. Fac. for Micro threshold ....   0.100
   Minimum threshold for Micro iter.    ....   0.010
   NR start threshold (gradient norm)   ....   0.001
   Initial trust radius                 ....   0.400
   Minimum AH scaling param. (alpha)    ....   1.000
   Maximum AH scaling param. (alpha)    .... 1000.000
   Orbital update algorithm             .... Taylor
   White noise on init. David. guess    .... on
   Maximum white noise                  ....   0.010
   Quad. conv. algorithm                .... NR
 SOSCF                  CNVSOSCF        .... off
 Level Shifting         CNVShift        .... on
   Level shift para.    LevelShift      ....    0.2500
   Turn off err/grad.   ShiftErr        ....    0.0010
 Zerner damping         CNVZerner       .... off
 Static damping         CNVDamp         .... on
   Fraction old density DampFac         ....    0.7000
   Max. Damping (<1)    DampMax         ....    0.9800
   Min. Damping (>=0)   DampMin         ....    0.0000
   Turn off err/grad.   DampErr         ....    0.1000
 Fernandez-Rico         CNVRico         .... off

SCF Procedure:
 Maximum # iterations   MaxIter         ....   125
 SCF integral mode      SCFMode         .... Direct
   Integral package                     .... SHARK and LIBINT hybrid scheme
 Reset frequency        DirectResetFreq ....    20
 Integral Threshold     Thresh          ....  1.000e-10 Eh
 Primitive CutOff       TCut            ....  1.000e-11 Eh

Convergence Tolerance:
 Convergence Check Mode ConvCheckMode   .... Total+1el-Energy
 Convergence forced     ConvForced      .... 0
 Energy Change          TolE            ....  1.000e-06 Eh
 1-El. energy change                    ....  1.000e-03 Eh
 DIIS Error             TolErr          ....  1.000e-06


Diagonalization of the overlap matrix:
Smallest eigenvalue                        ... 1.429e-04
Time for diagonalization                   ...    0.077 sec
Threshold for overlap eigenvalues          ... 1.000e-08
Number of eigenvalues below threshold      ... 0
Time for construction of square roots      ...    0.040 sec
Total time needed                          ...    0.118 sec

---------------------
INITIAL GUESS: MOREAD
---------------------
Guess MOs are being read from file: EPRII_i.ges
Input Geometry matches current geometry (good)
Input basis set matches current basis set (good)
MOs were renormalized
MOs were reorthogonalized (Cholesky)
                      ------------------
                      INITIAL GUESS DONE (   0.1 sec)
                      ------------------
-------------------
DFT GRID GENERATION
-------------------

General Integration Accuracy     IntAcc      ... 4.388
Radial Grid Type                 RadialGrid  ... OptM3 with GC (2021)
Angular Grid (max. ang.)         AngularGrid ... 4 (Lebedev-302)
Angular grid pruning method      GridPruning ... 4 (adaptive)
Weight generation scheme         WeightScheme... Becke
Basis function cutoff            BFCut       ... 1.0000e-10
Integration weight cutoff        WCut        ... 1.0000e-14
Angular grids for H and He will be reduced by one unit
Partially contracted basis set               ... off
Rotationally invariant grid construction     ... off

Total number of grid points                  ...   162627
Total number of batches                      ...     2559
Average number of points per batch           ...       63
Average number of grid points per atom       ...     4395
Time for grid setup =    0.876 sec

--------------------
COSX GRID GENERATION
--------------------

GRIDX 1
-------
General Integration Accuracy     IntAcc      ... 3.816
Radial Grid Type                 RadialGrid  ... OptM3 with GC (2021)
Angular Grid (max. ang.)         AngularGrid ... 1 (Lebedev-50)
Angular grid pruning method      GridPruning ... 4 (adaptive)
Weight generation scheme         WeightScheme... Becke
Basis function cutoff            BFCut       ... 1.0000e-10
Integration weight cutoff        WCut        ... 1.0000e-14
Angular grids for H and He will be reduced by one unit
Partially contracted basis set               ... on
Rotationally invariant grid construction     ... off

Total number of grid points                  ...    20774
Total number of batches                      ...      346
Average number of points per batch           ...       60
Average number of grid points per atom       ...      561
UseSFitting                                  ... on

GRIDX 2
-------
General Integration Accuracy     IntAcc      ... 4.020
Radial Grid Type                 RadialGrid  ... OptM3 with GC (2021)
Angular Grid (max. ang.)         AngularGrid ... 2 (Lebedev-110)
Angular grid pruning method      GridPruning ... 4 (adaptive)
Weight generation scheme         WeightScheme... Becke
Basis function cutoff            BFCut       ... 1.0000e-10
Integration weight cutoff        WCut        ... 1.0000e-14
Angular grids for H and He will be reduced by one unit
Partially contracted basis set               ... on
Rotationally invariant grid construction     ... off

Total number of grid points                  ...    43752
Total number of batches                      ...      701
Average number of points per batch           ...       62
Average number of grid points per atom       ...     1182
UseSFitting                                  ... on

GRIDX 3
-------
General Integration Accuracy     IntAcc      ... 4.338
Radial Grid Type                 RadialGrid  ... OptM3 with GC (2021)
Angular Grid (max. ang.)         AngularGrid ... 3 (Lebedev-194)
Angular grid pruning method      GridPruning ... 4 (adaptive)
Weight generation scheme         WeightScheme... Becke
Basis function cutoff            BFCut       ... 1.0000e-10
Integration weight cutoff        WCut        ... 1.0000e-14
Angular grids for H and He will be reduced by one unit
Partially contracted basis set               ... on
Rotationally invariant grid construction     ... off

Total number of grid points                  ...    95333
Total number of batches                      ...     1508
Average number of points per batch           ...       63
Average number of grid points per atom       ...     2577
UseSFitting                                  ... on

Time for X-Grid setup             =    1.661 sec

--------------
SCF ITERATIONS
--------------
ITER       Energy         Delta-E        Max-DP      RMS-DP      [F,P]     Damp
               ***  Starting incremental Fock matrix formation  ***
  0   -621.9203101711   0.000000000000 0.00003085  0.00000032  0.0000123 0.7000
                 **** Energy Check signals convergence ****

               *****************************************************
               *                     SUCCESS                       *
               *           SCF CONVERGED AFTER   1 CYCLES          *
               *****************************************************

Old exchange energy                            =    -18.047440865 Eh
New exchange energy                            =    -18.047450404 Eh
Exchange energy change after final integration =     -0.000009539 Eh
Total energy after final integration           =   -621.920319589 Eh
Final COS-X integration done in                =     4.804 sec

----------------
TOTAL SCF ENERGY
----------------

Total Energy       :         -621.92031959 Eh          -16923.31226 eV

Components:
Nuclear Repulsion  :         1004.37714157 Eh           27330.49148 eV
Electronic Energy  :        -1626.29746116 Eh          -44253.80374 eV
One Electron Energy:        -2830.86329435 Eh          -77031.70646 eV
Two Electron Energy:         1204.56583319 Eh           32777.90272 eV
Max COSX asymmetry :            0.00000173 Eh               0.00005 eV

Virial components:
Potential Energy   :        -1238.86855097 Eh          -33711.32712 eV
Kinetic Energy     :          616.94823138 Eh           16788.01486 eV
Virial Ratio       :            2.00805917


DFT components:
N(Alpha)           :       59.000031689268 electrons
N(Beta)            :       58.000026676850 electrons
N(Total)           :      117.000058366118 electrons
E(X)               :      -71.556653550527 Eh       
E(C)               :       -4.509907325682 Eh       
E(XC)              :      -76.066560876210 Eh       
DFET-embed. en.    :        0.000000000000 Eh       

---------------
SCF CONVERGENCE
---------------

  Last Energy change         ...    1.2096e-07  Tolerance :   1.0000e-06
  Last MAX-Density change    ...    8.7387e-06  Tolerance :   1.0000e-05
  Last RMS-Density change    ...    9.2406e-08  Tolerance :   1.0000e-06
  Last DIIS Error            ...    1.1784e-05  Tolerance :   1.0000e-06

             **** THE GBW FILE WAS UPDATED (EPRII_i.gbw) ****
             **** DENSITY EPRII_i.scfp WAS UPDATED ****
             **** ENERGY FILE WAS UPDATED (EPRII_i.en.tmp) ****
----------------------
UHF SPIN CONTAMINATION
----------------------

Warning: in a DFT calculation there is little theoretical justification to 
         calculate <S**2> as in Hartree-Fock theory. We will do it anyways
         but you should keep in mind that the values have only limited relevance

Expectation value of <S**2>     :     0.785264
Ideal value S*(S+1) for S=0.5   :     0.750000
Deviation                       :     0.035264

             **** THE GBW FILE WAS UPDATED (EPRII_i.gbw) ****
             **** DENSITY EPRII_i.scfp WAS UPDATED ****
----------------
ORBITAL ENERGIES
----------------
                 SPIN UP ORBITALS
  NO   OCC          E(Eh)            E(eV) 
   0   1.0000     -10.216928      -278.0167 
   1   1.0000     -10.210585      -277.8441 
   2   1.0000     -10.206373      -277.7295 
   3   1.0000     -10.205803      -277.7140 
   4   1.0000     -10.202737      -277.6306 
   5   1.0000     -10.200464      -277.5687 
   6   1.0000     -10.193198      -277.3710 
   7   1.0000     -10.192896      -277.3628 
   8   1.0000     -10.189767      -277.2777 
   9   1.0000     -10.187896      -277.2267 
  10   1.0000     -10.186746      -277.1955 
  11   1.0000     -10.185553      -277.1630 
  12   1.0000     -10.182596      -277.0825 
  13   1.0000     -10.182308      -277.0747 
  14   1.0000     -10.175997      -276.9030 
  15   1.0000     -10.173649      -276.8391 
  16   1.0000      -0.868838       -23.6423 
  17   1.0000      -0.813603       -22.1393 
  18   1.0000      -0.795902       -21.6576 
  19   1.0000      -0.775762       -21.1096 
  20   1.0000      -0.763962       -20.7885 
  21   1.0000      -0.731991       -19.9185 
  22   1.0000      -0.723614       -19.6905 
  23   1.0000      -0.684012       -18.6129 
  24   1.0000      -0.669001       -18.2044 
  25   1.0000      -0.623840       -16.9755 
  26   1.0000      -0.611241       -16.6327 
  27   1.0000      -0.591062       -16.0836 
  28   1.0000      -0.575961       -15.6727 
  29   1.0000      -0.564816       -15.3694 
  30   1.0000      -0.526262       -14.3203 
  31   1.0000      -0.494021       -13.4430 
  32   1.0000      -0.489749       -13.3268 
  33   1.0000      -0.470032       -12.7902 
  34   1.0000      -0.457534       -12.4501 
  35   1.0000      -0.447972       -12.1899 
  36   1.0000      -0.428500       -11.6601 
  37   1.0000      -0.421654       -11.4738 
  38   1.0000      -0.420718       -11.4483 
  39   1.0000      -0.417982       -11.3739 
  40   1.0000      -0.411167       -11.1884 
  41   1.0000      -0.400318       -10.8932 
  42   1.0000      -0.387243       -10.5374 
  43   1.0000      -0.380179       -10.3452 
  44   1.0000      -0.374482       -10.1902 
  45   1.0000      -0.366597        -9.9756 
  46   1.0000      -0.351983        -9.5779 
  47   1.0000      -0.350869        -9.5476 
  48   1.0000      -0.339395        -9.2354 
  49   1.0000      -0.334580        -9.1044 
  50   1.0000      -0.328211        -8.9311 
  51   1.0000      -0.322841        -8.7849 
  52   1.0000      -0.321875        -8.7587 
  53   1.0000      -0.321024        -8.7355 
  54   1.0000      -0.306696        -8.3456 
  55   1.0000      -0.276220        -7.5163 
  56   1.0000      -0.273924        -7.4539 
  57   1.0000      -0.234272        -6.3749 
  58   1.0000      -0.178363        -4.8535 
  59   0.0000      -0.033293        -0.9060 
  60   0.0000       0.006976         0.1898 
  61   0.0000       0.016896         0.4598 
  62   0.0000       0.023245         0.6325 
  63   0.0000       0.025185         0.6853 
  64   0.0000       0.036801         1.0014 
  65   0.0000       0.038950         1.0599 
  66   0.0000       0.043225         1.1762 
  67   0.0000       0.046064         1.2535 
  68   0.0000       0.049614         1.3501 
  69   0.0000       0.061221         1.6659 
  70   0.0000       0.073586         2.0024 
  71   0.0000       0.076366         2.0780 
  72   0.0000       0.086657         2.3581 
  73   0.0000       0.095750         2.6055 
  74   0.0000       0.111824         3.0429 
  75   0.0000       0.120982         3.2921 
  76   0.0000       0.130861         3.5609 
  77   0.0000       0.142769         3.8849 
  78   0.0000       0.151648         4.1265 
  79   0.0000       0.157679         4.2907 
  80   0.0000       0.168851         4.5947 
  81   0.0000       0.175520         4.7761 
  82   0.0000       0.182143         4.9564 
  83   0.0000       0.184708         5.0262 
  84   0.0000       0.192127         5.2281 
  85   0.0000       0.195296         5.3143 
  86   0.0000       0.197252         5.3675 
  87   0.0000       0.199329         5.4240 
  88   0.0000       0.201493         5.4829 
  89   0.0000       0.213621         5.8129 
  90   0.0000       0.214469         5.8360 
  91   0.0000       0.217293         5.9128 
  92   0.0000       0.218505         5.9458 
  93   0.0000       0.225239         6.1291 
  94   0.0000       0.228369         6.2142 
  95   0.0000       0.236153         6.4261 
  96   0.0000       0.239177         6.5083 
  97   0.0000       0.245622         6.6837 
  98   0.0000       0.252252         6.8641 
  99   0.0000       0.260366         7.0849 
 100   0.0000       0.266610         7.2548 
 101   0.0000       0.268144         7.2966 
 102   0.0000       0.279346         7.6014 
 103   0.0000       0.282522         7.6878 
 104   0.0000       0.285424         7.7668 
 105   0.0000       0.287522         7.8239 
 106   0.0000       0.291182         7.9235 
 107   0.0000       0.293875         7.9968 
 108   0.0000       0.298777         8.1301 
 109   0.0000       0.303602         8.2614 
 110   0.0000       0.308554         8.3962 
 111   0.0000       0.315367         8.5816 
 112   0.0000       0.322917         8.7870 
 113   0.0000       0.330777         9.0009 
 114   0.0000       0.332794         9.0558 
 115   0.0000       0.339525         9.2389 
 116   0.0000       0.346826         9.4376 
 117   0.0000       0.352765         9.5992 
 118   0.0000       0.356217         9.6931 
 119   0.0000       0.361444         9.8354 
 120   0.0000       0.364976         9.9315 
 121   0.0000       0.369799        10.0627 
 122   0.0000       0.373510        10.1637 
 123   0.0000       0.381316        10.3761 
 124   0.0000       0.399027        10.8581 
 125   0.0000       0.402626        10.9560 
 126   0.0000       0.410938        11.1822 
 127   0.0000       0.414557        11.2807 
 128   0.0000       0.424232        11.5439 
 129   0.0000       0.429687        11.6924 
 130   0.0000       0.437945        11.9171 
 131   0.0000       0.444178        12.0867 
 132   0.0000       0.446697        12.1552 
 133   0.0000       0.450630        12.2623 
 134   0.0000       0.464452        12.6384 
 135   0.0000       0.472728        12.8636 
 136   0.0000       0.476794        12.9742 
 137   0.0000       0.485277        13.2051 
 138   0.0000       0.490021        13.3341 
 139   0.0000       0.499223        13.5846 
 140   0.0000       0.500857        13.6290 
 141   0.0000       0.503934        13.7127 
 142   0.0000       0.511775        13.9261 
 143   0.0000       0.531657        14.4671 
 144   0.0000       0.540884        14.7182 
 145   0.0000       0.546817        14.8797 
 146   0.0000       0.557351        15.1663 
 147   0.0000       0.562499        15.3064 
 148   0.0000       0.573978        15.6187 
 149   0.0000       0.585095        15.9212 
 150   0.0000       0.592706        16.1284 
 151   0.0000       0.595708        16.2100 
 152   0.0000       0.604973        16.4622 
 153   0.0000       0.615182        16.7400 
 154   0.0000       0.622148        16.9295 
 155   0.0000       0.639369        17.3981 
 156   0.0000       0.661368        17.9967 
 157   0.0000       0.674486        18.3537 
 158   0.0000       0.690671        18.7941 
 159   0.0000       0.719076        19.5670 
 160   0.0000       0.765766        20.8375 
 161   0.0000       0.770685        20.9714 
 162   0.0000       0.782514        21.2933 
 163   0.0000       0.787435        21.4272 
 164   0.0000       0.805091        21.9077 
 165   0.0000       0.818032        22.2598 
 166   0.0000       0.822822        22.3901 
 167   0.0000       0.832552        22.6549 
 168   0.0000       0.845038        22.9947 
 169   0.0000       0.850634        23.1469 
 170   0.0000       0.860343        23.4111 
 171   0.0000       0.868963        23.6457 
 172   0.0000       0.872700        23.7474 
 173   0.0000       0.884165        24.0594 
 174   0.0000       0.886706        24.1285 
 175   0.0000       0.898975        24.4624 
 176   0.0000       0.902034        24.5456 
 177   0.0000       0.917266        24.9601 
 178   0.0000       0.921026        25.0624 
 179   0.0000       0.921902        25.0862 
 180   0.0000       0.927088        25.2274 
 181   0.0000       0.935309        25.4511 
 182   0.0000       0.937585        25.5130 
 183   0.0000       0.943917        25.6853 
 184   0.0000       0.946690        25.7607 
 185   0.0000       0.957175        26.0461 
 186   0.0000       0.968607        26.3571 
 187   0.0000       0.971479        26.4353 
 188   0.0000       0.976858        26.5817 
 189   0.0000       0.991405        26.9775 
 190   0.0000       0.997058        27.1313 
 191   0.0000       1.005455        27.3598 
 192   0.0000       1.013783        27.5864 
 193   0.0000       1.016080        27.6489 
 194   0.0000       1.024718        27.8840 
 195   0.0000       1.026761        27.9396 
 196   0.0000       1.051767        28.6200 
 197   0.0000       1.054860        28.7042 
 198   0.0000       1.058268        28.7969 
 199   0.0000       1.066996        29.0344 
 200   0.0000       1.070169        29.1208 
 201   0.0000       1.088999        29.6332 
 202   0.0000       1.091638        29.7050 
 203   0.0000       1.099896        29.9297 
 204   0.0000       1.106934        30.1212 
 205   0.0000       1.110550        30.2196 
 206   0.0000       1.134850        30.8808 
 207   0.0000       1.148804        31.2606 
 208   0.0000       1.167796        31.7774 
 209   0.0000       1.176307        32.0090 
 210   0.0000       1.180391        32.1201 
 211   0.0000       1.192661        32.4539 
 212   0.0000       1.202135        32.7117 
 213   0.0000       1.209421        32.9100 
 214   0.0000       1.224273        33.3141 
 215   0.0000       1.243593        33.8399 
 216   0.0000       1.248523        33.9740 
 217   0.0000       1.259543        34.2739 
 218   0.0000       1.264707        34.4144 
 219   0.0000       1.277137        34.7527 
 220   0.0000       1.288249        35.0550 
 221   0.0000       1.310708        35.6662 
 222   0.0000       1.320022        35.9196 
 223   0.0000       1.341744        36.5107 
 224   0.0000       1.346505        36.6403 
 225   0.0000       1.360121        37.0108 
 226   0.0000       1.379152        37.5286 
 227   0.0000       1.384075        37.6626 
 228   0.0000       1.394970        37.9591 
 229   0.0000       1.404608        38.2213 
 230   0.0000       1.419147        38.6169 
 231   0.0000       1.425067        38.7781 
 232   0.0000       1.427308        38.8390 
 233   0.0000       1.433920        39.0190 
 234   0.0000       1.440738        39.2045 
 235   0.0000       1.451484        39.4969 
 236   0.0000       1.458241        39.6807 
 237   0.0000       1.473095        40.0850 
 238   0.0000       1.480829        40.2954 
 239   0.0000       1.499836        40.8126 
 240   0.0000       1.500435        40.8289 
 241   0.0000       1.516565        41.2678 
 242   0.0000       1.525315        41.5059 
 243   0.0000       1.526922        41.5497 
 244   0.0000       1.544063        42.0161 
 245   0.0000       1.556804        42.3628 
 246   0.0000       1.562132        42.5078 
 247   0.0000       1.572947        42.8021 
 248   0.0000       1.581574        43.0368 
 249   0.0000       1.590524        43.2804 
 250   0.0000       1.597259        43.4636 
 251   0.0000       1.605466        43.6869 
 252   0.0000       1.607624        43.7457 
 253   0.0000       1.616214        43.9794 
 254   0.0000       1.621114        44.1127 
 255   0.0000       1.634896        44.4878 
 256   0.0000       1.638584        44.5881 
 257   0.0000       1.645332        44.7717 
 258   0.0000       1.651873        44.9497 
 259   0.0000       1.670904        45.4676 
 260   0.0000       1.675097        45.5817 
 261   0.0000       1.687326        45.9145 
 262   0.0000       1.699066        46.2339 
 263   0.0000       1.703822        46.3634 
 264   0.0000       1.715425        46.6791 
 265   0.0000       1.720699        46.8226 
 266   0.0000       1.725127        46.9431 
 267   0.0000       1.734212        47.1903 
 268   0.0000       1.747912        47.5631 
 269   0.0000       1.752626        47.6914 
 270   0.0000       1.761026        47.9200 
 271   0.0000       1.764045        48.0021 
 272   0.0000       1.774537        48.2876 
 273   0.0000       1.783193        48.5231 
 274   0.0000       1.791730        48.7554 
 275   0.0000       1.805374        49.1267 
 276   0.0000       1.815469        49.4014 
 277   0.0000       1.826620        49.7049 
 278   0.0000       1.836657        49.9780 
 279   0.0000       1.857646        50.5491 
 280   0.0000       1.865186        50.7543 
 281   0.0000       1.883761        51.2597 
 282   0.0000       1.913498        52.0689 
 283   0.0000       1.918075        52.1935 
 284   0.0000       1.928857        52.4869 
 285   0.0000       1.942412        52.8557 
 286   0.0000       1.951728        53.1092 
 287   0.0000       1.967191        53.5300 
 288   0.0000       1.975107        53.7454 
 289   0.0000       2.018383        54.9230 
 290   0.0000       2.044105        55.6229 
 291   0.0000       2.047576        55.7174 
 292   0.0000       2.055701        55.9385 
 293   0.0000       2.063923        56.1622 
 294   0.0000       2.080218        56.6056 
 295   0.0000       2.101275        57.1786 
 296   0.0000       2.106460        57.3197 
 297   0.0000       2.121001        57.7154 
 298   0.0000       2.154180        58.6182 
 299   0.0000       2.167549        58.9820 
 300   0.0000       2.189806        59.5877 
 301   0.0000       2.210530        60.1516 
 302   0.0000       2.228603        60.6434 
 303   0.0000       2.236509        60.8585 
 304   0.0000       2.237186        60.8769 
 305   0.0000       2.250437        61.2375 
 306   0.0000       2.254894        61.3588 
 307   0.0000       2.261191        61.5301 
 308   0.0000       2.272472        61.8371 
 309   0.0000       2.293062        62.3974 
 310   0.0000       2.309182        62.8360 
 311   0.0000       2.313308        62.9483 
 312   0.0000       2.324214        63.2451 
 313   0.0000       2.328966        63.3744 
 314   0.0000       2.347222        63.8712 
 315   0.0000       2.353338        64.0376 
 316   0.0000       2.387783        64.9749 
 317   0.0000       2.407267        65.5051 
 318   0.0000       2.412900        65.6583 
 319   0.0000       2.429156        66.1007 
 320   0.0000       2.441432        66.4347 
 321   0.0000       2.453630        66.7667 
 322   0.0000       2.455904        66.8286 
 323   0.0000       2.469637        67.2022 
 324   0.0000       2.476816        67.3976 
 325   0.0000       2.489256        67.7361 
 326   0.0000       2.507218        68.2249 
 327   0.0000       2.516849        68.4869 
 328   0.0000       2.527445        68.7753 
 329   0.0000       2.537337        69.0444 
 330   0.0000       2.551793        69.4378 
 331   0.0000       2.567938        69.8771 
 332   0.0000       2.580071        70.2073 
 333   0.0000       2.589218        70.4562 
 334   0.0000       2.608210        70.9730 
 335   0.0000       2.621563        71.3364 
 336   0.0000       2.626107        71.4600 
 337   0.0000       2.644573        71.9625 
 338   0.0000       2.726339        74.1874 
 339   0.0000       2.764631        75.2294 
 340   0.0000       2.797228        76.1165 
 341   0.0000       2.873131        78.1819 
 342   0.0000       2.947755        80.2125 
 343   0.0000       2.966387        80.7195 
 344   0.0000       3.261432        88.7481 
 345   0.0000       4.985279       135.6563 
 346   0.0000       5.001488       136.0974 
 347   0.0000       5.006429       136.2319 
 348   0.0000       5.009721       136.3214 
 349   0.0000       5.011568       136.3717 
 350   0.0000       5.019438       136.5858 
 351   0.0000       5.032699       136.9467 
 352   0.0000       5.044110       137.2572 
 353   0.0000       5.048322       137.3718 
 354   0.0000       5.083994       138.3425 
 355   0.0000       5.104482       138.9000 
 356   0.0000       5.222314       142.1064 
 357   0.0000       5.231775       142.3638 
 358   0.0000       5.234556       142.4395 
 359   0.0000       5.271119       143.4344 
 360   0.0000       5.281397       143.7141 
 361   0.0000       5.291984       144.0022 
 362   0.0000       5.303511       144.3159 
 363   0.0000       5.310240       144.4990 
 364   0.0000       5.322417       144.8303 
 365   0.0000       5.356852       145.7674 
 366   0.0000       5.370039       146.1262 
 367   0.0000       5.392731       146.7437 
 368   0.0000       5.413940       147.3208 
 369   0.0000       5.483197       149.2054 
 370   0.0000       5.547136       150.9452 
 371   0.0000       5.568060       151.5146 
 372   0.0000       5.606887       152.5712 
 373   0.0000       5.623054       153.0111 
 374   0.0000       5.666271       154.1871 
 375   0.0000       5.707831       155.3180 
 376   0.0000       5.739597       156.1824 
 377   0.0000       5.802842       157.9034 
 378   0.0000       5.844604       159.0398 
 379   0.0000       5.871917       159.7830 
 380   0.0000       6.059186       164.8788 
 381   0.0000       6.323808       172.0796 
 382   0.0000      29.631215       806.3064 
 383   0.0000      29.788630       810.5898 
 384   0.0000      29.836462       811.8914 
 385   0.0000      29.921699       814.2108 
 386   0.0000      29.972921       815.6046 
 387   0.0000      29.983371       815.8890 
 388   0.0000      30.048832       817.6703 
 389   0.0000      30.069591       818.2352 
 390   0.0000      30.090683       818.8091 
 391   0.0000      30.111706       819.3812 
 392   0.0000      30.149026       820.3967 
 393   0.0000      30.213958       822.1636 
 394   0.0000      30.249563       823.1324 
 395   0.0000      30.278651       823.9240 
 396   0.0000      30.354496       825.9878 
 397   0.0000      30.549200       831.2860 
 398   0.0000      36.613250       996.2972 
 399   0.0000      36.629305       996.7341 
 400   0.0000      36.630585       996.7689 
 401   0.0000      36.633741       996.8548 
 402   0.0000      36.638207       996.9763 
 403   0.0000      36.659083       997.5444 
 404   0.0000      36.671283       997.8763 
 405   0.0000      36.674157       997.9546 
 406   0.0000      36.707034       998.8492 
 407   0.0000      36.717073       999.1224 
 408   0.0000      36.820741      1001.9433 
 409   0.0000      36.844977      1002.6028 
 410   0.0000      36.850525      1002.7538 
 411   0.0000      36.876129      1003.4505 
 412   0.0000      36.879151      1003.5327 
 413   0.0000      36.885208      1003.6975 
 414   0.0000      36.912572      1004.4421 
 415   0.0000      36.932786      1004.9922 
 416   0.0000      36.933740      1005.0182 
 417   0.0000      36.964801      1005.8634 
 418   0.0000      37.011479      1007.1335 

                 SPIN DOWN ORBITALS
  NO   OCC          E(Eh)            E(eV) 
   0   1.0000     -10.218549      -278.0609 
   1   1.0000     -10.208354      -277.7834 
   2   1.0000     -10.206802      -277.7412 
   3   1.0000     -10.202698      -277.6295 
   4   1.0000     -10.202321      -277.6193 
   5   1.0000     -10.197117      -277.4777 
   6   1.0000     -10.193829      -277.3882 
   7   1.0000     -10.191398      -277.3220 
   8   1.0000     -10.188128      -277.2331 
   9   1.0000     -10.186963      -277.2014 
  10   1.0000     -10.185282      -277.1556 
  11   1.0000     -10.182969      -277.0927 
  12   1.0000     -10.182594      -277.0825 
  13   1.0000     -10.182309      -277.0747 
  14   1.0000     -10.175983      -276.9026 
  15   1.0000     -10.173651      -276.8391 
  16   1.0000      -0.865123       -23.5412 
  17   1.0000      -0.810410       -22.0524 
  18   1.0000      -0.794972       -21.6323 
  19   1.0000      -0.772631       -21.0243 
  20   1.0000      -0.762384       -20.7455 
  21   1.0000      -0.730070       -19.8662 
  22   1.0000      -0.719872       -19.5887 
  23   1.0000      -0.681853       -18.5542 
  24   1.0000      -0.661702       -18.0058 
  25   1.0000      -0.617662       -16.8074 
  26   1.0000      -0.608635       -16.5618 
  27   1.0000      -0.589388       -16.0381 
  28   1.0000      -0.575089       -15.6490 
  29   1.0000      -0.563383       -15.3304 
  30   1.0000      -0.524375       -14.2690 
  31   1.0000      -0.492416       -13.3993 
  32   1.0000      -0.487804       -13.2738 
  33   1.0000      -0.469109       -12.7651 
  34   1.0000      -0.455360       -12.3910 
  35   1.0000      -0.447367       -12.1735 
  36   1.0000      -0.427091       -11.6217 
  37   1.0000      -0.419493       -11.4150 
  38   1.0000      -0.418618       -11.3912 
  39   1.0000      -0.415803       -11.3146 
  40   1.0000      -0.409187       -11.1345 
  41   1.0000      -0.397041       -10.8040 
  42   1.0000      -0.384353       -10.4588 
  43   1.0000      -0.377832       -10.2813 
  44   1.0000      -0.371699       -10.1144 
  45   1.0000      -0.365444        -9.9442 
  46   1.0000      -0.350869        -9.5476 
  47   1.0000      -0.347652        -9.4601 
  48   1.0000      -0.337952        -9.1961 
  49   1.0000      -0.333885        -9.0855 
  50   1.0000      -0.327574        -8.9138 
  51   1.0000      -0.322075        -8.7641 
  52   1.0000      -0.321057        -8.7364 
  53   1.0000      -0.320119        -8.7109 
  54   1.0000      -0.302142        -8.2217 
  55   1.0000      -0.273830        -7.4513 
  56   1.0000      -0.258372        -7.0307 
  57   1.0000      -0.226169        -6.1544 
  58   0.0000      -0.083391        -2.2692 
  59   0.0000      -0.022996        -0.6257 
  60   0.0000       0.016979         0.4620 
  61   0.0000       0.021129         0.5750 
  62   0.0000       0.023674         0.6442 
  63   0.0000       0.025789         0.7017 
  64   0.0000       0.037823         1.0292 
  65   0.0000       0.039063         1.0630 
  66   0.0000       0.043754         1.1906 
  67   0.0000       0.046452         1.2640 
  68   0.0000       0.051864         1.4113 
  69   0.0000       0.061924         1.6850 
  70   0.0000       0.073730         2.0063 
  71   0.0000       0.077016         2.0957 
  72   0.0000       0.090364         2.4589 
  73   0.0000       0.096458         2.6248 
  74   0.0000       0.112444         3.0597 
  75   0.0000       0.121535         3.3071 
  76   0.0000       0.131995         3.5918 
  77   0.0000       0.143567         3.9067 
  78   0.0000       0.154431         4.2023 
  79   0.0000       0.159566         4.3420 
  80   0.0000       0.170383         4.6364 
  81   0.0000       0.176430         4.8009 
  82   0.0000       0.182610         4.9691 
  83   0.0000       0.185698         5.0531 
  84   0.0000       0.192817         5.2468 
  85   0.0000       0.196512         5.3474 
  86   0.0000       0.198209         5.3935 
  87   0.0000       0.199587         5.4310 
  88   0.0000       0.202604         5.5131 
  89   0.0000       0.214440         5.8352 
  90   0.0000       0.216470         5.8904 
  91   0.0000       0.217848         5.9279 
  92   0.0000       0.219986         5.9861 
  93   0.0000       0.225721         6.1422 
  94   0.0000       0.230413         6.2699 
  95   0.0000       0.237350         6.4586 
  96   0.0000       0.239789         6.5250 
  97   0.0000       0.247183         6.7262 
  98   0.0000       0.253006         6.8846 
  99   0.0000       0.261446         7.1143 
 100   0.0000       0.268836         7.3154 
 101   0.0000       0.270256         7.3540 
 102   0.0000       0.279566         7.6074 
 103   0.0000       0.284522         7.7422 
 104   0.0000       0.286982         7.8092 
 105   0.0000       0.288449         7.8491 
 106   0.0000       0.293760         7.9936 
 107   0.0000       0.294685         8.0188 
 108   0.0000       0.300251         8.1702 
 109   0.0000       0.305744         8.3197 
 110   0.0000       0.309842         8.4312 
 111   0.0000       0.316560         8.6140 
 112   0.0000       0.325188         8.8488 
 113   0.0000       0.331687         9.0257 
 114   0.0000       0.337478         9.1832 
 115   0.0000       0.344455         9.3731 
 116   0.0000       0.347674         9.4607 
 117   0.0000       0.354812         9.6549 
 118   0.0000       0.358215         9.7475 
 119   0.0000       0.365439         9.9441 
 120   0.0000       0.366928         9.9846 
 121   0.0000       0.370591        10.0843 
 122   0.0000       0.376730        10.2514 
 123   0.0000       0.391587        10.6556 
 124   0.0000       0.401308        10.9201 
 125   0.0000       0.403502        10.9798 
 126   0.0000       0.412324        11.2199 
 127   0.0000       0.416485        11.3331 
 128   0.0000       0.430220        11.7069 
 129   0.0000       0.431541        11.7428 
 130   0.0000       0.440068        11.9749 
 131   0.0000       0.445282        12.1167 
 132   0.0000       0.449209        12.2236 
 133   0.0000       0.451902        12.2969 
 134   0.0000       0.465097        12.6559 
 135   0.0000       0.473513        12.8849 
 136   0.0000       0.478554        13.0221 
 137   0.0000       0.485053        13.1990 
 138   0.0000       0.491448        13.3730 
 139   0.0000       0.498891        13.5755 
 140   0.0000       0.503055        13.6888 
 141   0.0000       0.506031        13.7698 
 142   0.0000       0.515685        14.0325 
 143   0.0000       0.533071        14.5056 
 144   0.0000       0.542274        14.7560 
 145   0.0000       0.548845        14.9348 
 146   0.0000       0.559724        15.2309 
 147   0.0000       0.563187        15.3251 
 148   0.0000       0.574864        15.6428 
 149   0.0000       0.585202        15.9242 
 150   0.0000       0.593672        16.1546 
 151   0.0000       0.597027        16.2459 
 152   0.0000       0.606655        16.5079 
 153   0.0000       0.616098        16.7649 
 154   0.0000       0.624781        17.0012 
 155   0.0000       0.645392        17.5620 
 156   0.0000       0.663060        18.0428 
 157   0.0000       0.676181        18.3998 
 158   0.0000       0.692121        18.8336 
 159   0.0000       0.720507        19.6060 
 160   0.0000       0.767141        20.8750 
 161   0.0000       0.771474        20.9929 
 162   0.0000       0.785838        21.3837 
 163   0.0000       0.788947        21.4683 
 164   0.0000       0.805739        21.9253 
 165   0.0000       0.819472        22.2990 
 166   0.0000       0.824829        22.4447 
 167   0.0000       0.834249        22.7011 
 168   0.0000       0.845445        23.0057 
 169   0.0000       0.852567        23.1995 
 170   0.0000       0.861371        23.4391 
 171   0.0000       0.870083        23.6762 
 172   0.0000       0.872736        23.7484 
 173   0.0000       0.886519        24.1234 
 174   0.0000       0.889338        24.2001 
 175   0.0000       0.902436        24.5565 
 176   0.0000       0.904066        24.6009 
 177   0.0000       0.920233        25.0408 
 178   0.0000       0.921721        25.0813 
 179   0.0000       0.924247        25.1500 
 180   0.0000       0.930363        25.3165 
 181   0.0000       0.937115        25.5002 
 182   0.0000       0.938351        25.5338 
 183   0.0000       0.945046        25.7160 
 184   0.0000       0.948568        25.8119 
 185   0.0000       0.960501        26.1366 
 186   0.0000       0.969273        26.3753 
 187   0.0000       0.975871        26.5548 
 188   0.0000       0.979670        26.6582 
 189   0.0000       0.992323        27.0025 
 190   0.0000       0.999662        27.2022 
 191   0.0000       1.010171        27.4882 
 192   0.0000       1.015644        27.6371 
 193   0.0000       1.022027        27.8108 
 194   0.0000       1.025550        27.9066 
 195   0.0000       1.028378        27.9836 
 196   0.0000       1.056083        28.7375 
 197   0.0000       1.057101        28.7652 
 198   0.0000       1.061903        28.8958 
 199   0.0000       1.067970        29.0609 
 200   0.0000       1.073068        29.1997 
 201   0.0000       1.091240        29.6942 
 202   0.0000       1.093065        29.7438 
 203   0.0000       1.105209        30.0743 
 204   0.0000       1.108820        30.1725 
 205   0.0000       1.110984        30.2314 
 206   0.0000       1.136830        30.9347 
 207   0.0000       1.149412        31.2771 
 208   0.0000       1.170235        31.8437 
 209   0.0000       1.177028        32.0286 
 210   0.0000       1.181450        32.1489 
 211   0.0000       1.194761        32.5111 
 212   0.0000       1.202460        32.7206 
 213   0.0000       1.209827        32.9211 
 214   0.0000       1.224886        33.3309 
 215   0.0000       1.244958        33.8770 
 216   0.0000       1.250022        34.0148 
 217   0.0000       1.261675        34.3319 
 218   0.0000       1.266311        34.4581 
 219   0.0000       1.279330        34.8123 
 220   0.0000       1.290417        35.1140 
 221   0.0000       1.311450        35.6864 
 222   0.0000       1.322067        35.9753 
 223   0.0000       1.344222        36.5781 
 224   0.0000       1.348554        36.6960 
 225   0.0000       1.360796        37.0292 
 226   0.0000       1.383247        37.6401 
 227   0.0000       1.386487        37.7282 
 228   0.0000       1.396431        37.9988 
 229   0.0000       1.405348        38.2415 
 230   0.0000       1.421255        38.6743 
 231   0.0000       1.426136        38.8071 
 232   0.0000       1.428819        38.8801 
 233   0.0000       1.434281        39.0288 
 234   0.0000       1.441994        39.2386 
 235   0.0000       1.452031        39.5118 
 236   0.0000       1.458652        39.6919 
 237   0.0000       1.473481        40.0954 
 238   0.0000       1.483667        40.3726 
 239   0.0000       1.500168        40.8216 
 240   0.0000       1.502123        40.8749 
 241   0.0000       1.518672        41.3252 
 242   0.0000       1.525989        41.5243 
 243   0.0000       1.528124        41.5824 
 244   0.0000       1.544483        42.0275 
 245   0.0000       1.557699        42.3871 
 246   0.0000       1.563027        42.5321 
 247   0.0000       1.574373        42.8409 
 248   0.0000       1.585562        43.1453 
 249   0.0000       1.591299        43.3014 
 250   0.0000       1.598890        43.5080 
 251   0.0000       1.605957        43.7003 
 252   0.0000       1.608801        43.7777 
 253   0.0000       1.618875        44.0518 
 254   0.0000       1.623022        44.1647 
 255   0.0000       1.635551        44.5056 
 256   0.0000       1.640597        44.6429 
 257   0.0000       1.646167        44.7945 
 258   0.0000       1.653213        44.9862 
 259   0.0000       1.675976        45.6056 
 260   0.0000       1.677015        45.6339 
 261   0.0000       1.688366        45.9428 
 262   0.0000       1.699983        46.2589 
 263   0.0000       1.705214        46.4012 
 264   0.0000       1.717226        46.7281 
 265   0.0000       1.723449        46.8974 
 266   0.0000       1.725969        46.9660 
 267   0.0000       1.735667        47.2299 
 268   0.0000       1.752128        47.6778 
 269   0.0000       1.754482        47.7419 
 270   0.0000       1.763230        47.9799 
 271   0.0000       1.767843        48.1055 
 272   0.0000       1.776320        48.3361 
 273   0.0000       1.784573        48.5607 
 274   0.0000       1.798638        48.9434 
 275   0.0000       1.810382        49.2630 
 276   0.0000       1.818910        49.4951 
 277   0.0000       1.832471        49.8641 
 278   0.0000       1.840058        50.0705 
 279   0.0000       1.858638        50.5761 
 280   0.0000       1.868781        50.8521 
 281   0.0000       1.885339        51.3027 
 282   0.0000       1.914796        52.1043 
 283   0.0000       1.920135        52.2495 
 284   0.0000       1.935783        52.6753 
 285   0.0000       1.943476        52.8847 
 286   0.0000       1.952141        53.1205 
 287   0.0000       1.969297        53.5873 
 288   0.0000       1.983889        53.9844 
 289   0.0000       2.021169        54.9988 
 290   0.0000       2.044717        55.6396 
 291   0.0000       2.049259        55.7632 
 292   0.0000       2.056409        55.9577 
 293   0.0000       2.065111        56.1945 
 294   0.0000       2.081494        56.6403 
 295   0.0000       2.102385        57.2088 
 296   0.0000       2.107451        57.3467 
 297   0.0000       2.123842        57.7927 
 298   0.0000       2.154780        58.6345 
 299   0.0000       2.169802        59.0433 
 300   0.0000       2.190724        59.6126 
 301   0.0000       2.213745        60.2391 
 302   0.0000       2.229324        60.6630 
 303   0.0000       2.239019        60.9268 
 304   0.0000       2.239693        60.9451 
 305   0.0000       2.250842        61.2485 
 306   0.0000       2.256038        61.3899 
 307   0.0000       2.261994        61.5520 
 308   0.0000       2.274265        61.8859 
 309   0.0000       2.295339        62.4594 
 310   0.0000       2.310152        62.8624 
 311   0.0000       2.314212        62.9729 
 312   0.0000       2.324457        63.2517 
 313   0.0000       2.329612        63.3920 
 314   0.0000       2.348559        63.9075 
 315   0.0000       2.353649        64.0460 
 316   0.0000       2.390307        65.0436 
 317   0.0000       2.407850        65.5209 
 318   0.0000       2.413112        65.6641 
 319   0.0000       2.429638        66.1138 
 320   0.0000       2.441840        66.4458 
 321   0.0000       2.454399        66.7876 
 322   0.0000       2.456121        66.8345 
 323   0.0000       2.469777        67.2060 
 324   0.0000       2.476909        67.4001 
 325   0.0000       2.489528        67.7435 
 326   0.0000       2.507814        68.2411 
 327   0.0000       2.517655        68.5089 
 328   0.0000       2.527816        68.7854 
 329   0.0000       2.538160        69.0669 
 330   0.0000       2.552785        69.4648 
 331   0.0000       2.568508        69.8927 
 332   0.0000       2.581466        70.2453 
 333   0.0000       2.590508        70.4913 
 334   0.0000       2.608587        70.9833 
 335   0.0000       2.622177        71.3531 
 336   0.0000       2.626904        71.4817 
 337   0.0000       2.645593        71.9902 
 338   0.0000       2.727683        74.2240 
 339   0.0000       2.765943        75.2651 
 340   0.0000       2.798281        76.1451 
 341   0.0000       2.874355        78.2152 
 342   0.0000       2.949791        80.2679 
 343   0.0000       2.965663        80.6998 
 344   0.0000       3.263122        88.7941 
 345   0.0000       4.985599       135.6650 
 346   0.0000       5.001958       136.1102 
 347   0.0000       5.006731       136.2401 
 348   0.0000       5.009949       136.3276 
 349   0.0000       5.013018       136.4111 
 350   0.0000       5.020415       136.6124 
 351   0.0000       5.032786       136.9491 
 352   0.0000       5.044623       137.2712 
 353   0.0000       5.049059       137.3919 
 354   0.0000       5.081290       138.2689 
 355   0.0000       5.104976       138.9135 
 356   0.0000       5.223272       142.1325 
 357   0.0000       5.232062       142.3717 
 358   0.0000       5.234622       142.4413 
 359   0.0000       5.271270       143.4385 
 360   0.0000       5.281689       143.7221 
 361   0.0000       5.293672       144.0481 
 362   0.0000       5.303595       144.3182 
 363   0.0000       5.310911       144.5172 
 364   0.0000       5.321276       144.7993 
 365   0.0000       5.357082       145.7736 
 366   0.0000       5.370087       146.1275 
[...]
 A(DIA)          0.0001               0.0000               0.0000    A(PC) =   0.0000
             ----------           ----------           ----------
 A(Tot)         -0.1122              -0.1287               0.4242    A(iso)=    0.0611
 Orientation: 
  X           0.9777087           -0.1930359            0.0826001
  Y          -0.0667183            0.0873842            0.9939380
  Z          -0.1990837           -0.9772928            0.0725573

Notes:  (1) The A matrix conforms to the "SAI" spin Hamiltonian convention.
        (2) Tensor is right-handed.

 -----------------------------------------------------------
 Nucleus  34H : A:ISTP=    1 I=  0.5 P=533.5514 MHz/au**3
                Q:ISTP=    2 I=  1.0 Q=  0.0029 barn     
 -----------------------------------------------------------
 Solving for nuclear perturbation:
Forming RHS of the CP-SCF equations         ... 
Calc. nucleus orbit integrals (SHARK)       ... done

------------------------------------------------------------------------------
                           ORCA CP-SCF CALCULATION
------------------------------------------------------------------------------

Input orbitals are from        ... EPRII_i.gbw
Input Perturbation             ... EPRII_i.pin.tmp
Wavefunction output            ... EPRII_i.pout.tmp
Perturbation mode              ... Imaginary perturbation
Solver                         ... POPLE
Max. number of iterations      ... 64
Convergence tolerance          ... 1.000e-03
Integral handling              ... Direct
DFT GridXC                     ... 1
COSX GridX                     ... 1
COSX IntAccX                   ... 3.067
COSX Algorithm                 ... Auto
Number of perturbations        ... 3
Number of operators            ... 2
Orbital ranges used for CP-SCF:
 Operator 0:  Orbitals   0... 58  to  59...418
 Operator 1:  Orbitals   0... 57  to  58...418
Variables per perturbation     ... 42178
DFT calculation                         ... on
XC functional terms                     ... off
Hybrid DFT                              ... on
   Exchange mixing (SCF)                ...  0.200
   Exchange mixing (CP-SCF)             ...  0.200
   GGA exch. scaling(SCF)               ...  0.720
   GGA exch. scaling (CP-SCF)           ...  0.720
   GGA corr. scaling (SCF)              ...  0.810
   GGA corr. scaling (CP-SCF)           ...  0.810

CP-SCF GRID
-----------

General Integration Accuracy     IntAcc      ... 3.467
Radial Grid Type                 RadialGrid  ... OptM3 with GC (2021)
Angular Grid (max. ang.)         AngularGrid ... 1 (Lebedev-50)
Angular grid pruning method      GridPruning ... 4 (adaptive)
Weight generation scheme         WeightScheme... Becke
Basis function cutoff            BFCut       ... 1.0000e-10
Integration weight cutoff        WCut        ... 1.0000e-14
Angular grids for H and He will be reduced by one unit
Partially contracted basis set               ... off
Rotationally invariant grid construction     ... off

Total number of grid points                  ...    22895
Total number of batches                      ...      373
Average number of points per batch           ...       61
Average number of grid points per atom       ...      619

CP-SCF GRIDX
------------

General Integration Accuracy     IntAcc      ... 3.067
Radial Grid Type                 RadialGrid  ... OptM3 with GC (2021)
Angular Grid (max. ang.)         AngularGrid ... 1 (Lebedev-50)
Angular grid pruning method      GridPruning ... 4 (adaptive)
Weight generation scheme         WeightScheme... Becke
Basis function cutoff            BFCut       ... 1.0000e-10
Integration weight cutoff        WCut        ... 1.0000e-14
Angular grids for H and He will be reduced by one unit
Partially contracted basis set               ... on
Rotationally invariant grid construction     ... off

Total number of grid points                  ...    10842
Total number of batches                      ...      192
Average number of points per batch           ...       56
Average number of grid points per atom       ...      293

Memory available               ... 902.6 MB
Memory needed per perturbation ...  10.3 MB
Perturbations treated per batch... 3
Number of batches              ... 1
     CP-SCF ITERATION   0:   9.8822e-02 (   1.1 sec   0/  3 done)
     CP-SCF ITERATION   1:   2.2267e-03 (   1.1 sec   0/  3 done)
     CP-SCF ITERATION   2:   1.7697e-04 (   1.1 sec   3/  3 done)
                    *** THE CP-SCF HAS CONVERGED ***

Forming final perturbed densities           ... done
Transforming perturbed density to AO basis  ... done

 Raw HFC matrix (all values in MHz): 
 -----------------------------------
                 2.7815               0.3439               0.1288
                 0.3438               5.0871              -0.1288
                 0.1287              -0.1289               3.5996

 A(FC)           3.8230               3.8230               3.8230
 A(SD)          -1.1157              -0.2072               1.3228
 A(ORB+DIA)     -0.0001               0.0001              -0.0008    A(PC) =  -0.0003
 A(ORB)          0.0000              -0.0001              -0.0009    A(PC) =  -0.0003
 A(DIA)         -0.0001               0.0002               0.0001    A(PC) =   0.0001
             ----------           ----------           ----------
 A(Tot)          2.7072               3.6159               5.1450    A(iso)=    3.8227
 Orientation: 
  X          -0.9753071            0.1709231            0.1398618
  Y           0.1497348            0.0462412            0.9876443
  Z           0.1623439            0.9841987           -0.0706925

Notes:  (1) The A matrix conforms to the "SAI" spin Hamiltonian convention.
        (2) Tensor is right-handed.

 -----------------------------------------------------------
 Nucleus  35H : A:ISTP=    1 I=  0.5 P=533.5514 MHz/au**3
                Q:ISTP=    2 I=  1.0 Q=  0.0029 barn     
 -----------------------------------------------------------
 Solving for nuclear perturbation:
Forming RHS of the CP-SCF equations         ... 
Calc. nucleus orbit integrals (SHARK)       ... done

------------------------------------------------------------------------------
                           ORCA CP-SCF CALCULATION
------------------------------------------------------------------------------

Input orbitals are from        ... EPRII_i.gbw
Input Perturbation             ... EPRII_i.pin.tmp
Wavefunction output            ... EPRII_i.pout.tmp
Perturbation mode              ... Imaginary perturbation
Solver                         ... POPLE
Max. number of iterations      ... 64
Convergence tolerance          ... 1.000e-03
Integral handling              ... Direct
DFT GridXC                     ... 1
COSX GridX                     ... 1
COSX IntAccX                   ... 3.067
COSX Algorithm                 ... Auto
Number of perturbations        ... 3
Number of operators            ... 2
Orbital ranges used for CP-SCF:
 Operator 0:  Orbitals   0... 58  to  59...418
 Operator 1:  Orbitals   0... 57  to  58...418
Variables per perturbation     ... 42178
DFT calculation                         ... on
XC functional terms                     ... off
Hybrid DFT                              ... on
   Exchange mixing (SCF)                ...  0.200
   Exchange mixing (CP-SCF)             ...  0.200
   GGA exch. scaling(SCF)               ...  0.720
   GGA exch. scaling (CP-SCF)           ...  0.720
   GGA corr. scaling (SCF)              ...  0.810
   GGA corr. scaling (CP-SCF)           ...  0.810

CP-SCF GRID
-----------

General Integration Accuracy     IntAcc      ... 3.467
Radial Grid Type                 RadialGrid  ... OptM3 with GC (2021)
Angular Grid (max. ang.)         AngularGrid ... 1 (Lebedev-50)
Angular grid pruning method      GridPruning ... 4 (adaptive)
Weight generation scheme         WeightScheme... Becke
Basis function cutoff            BFCut       ... 1.0000e-10
Integration weight cutoff        WCut        ... 1.0000e-14
Angular grids for H and He will be reduced by one unit
Partially contracted basis set               ... off
Rotationally invariant grid construction     ... off

Total number of grid points                  ...    22895
Total number of batches                      ...      373
Average number of points per batch           ...       61
Average number of grid points per atom       ...      619

CP-SCF GRIDX
------------

General Integration Accuracy     IntAcc      ... 3.067
Radial Grid Type                 RadialGrid  ... OptM3 with GC (2021)
Angular Grid (max. ang.)         AngularGrid ... 1 (Lebedev-50)
Angular grid pruning method      GridPruning ... 4 (adaptive)
Weight generation scheme         WeightScheme... Becke
Basis function cutoff            BFCut       ... 1.0000e-10
Integration weight cutoff        WCut        ... 1.0000e-14
Angular grids for H and He will be reduced by one unit
Partially contracted basis set               ... on
Rotationally invariant grid construction     ... off

Total number of grid points                  ...    10842
Total number of batches                      ...      192
Average number of points per batch           ...       56
Average number of grid points per atom       ...      293

Memory available               ... 902.1 MB
Memory needed per perturbation ...  10.3 MB
Perturbations treated per batch... 3
Number of batches              ... 1
     CP-SCF ITERATION   0:   3.6839e-02 (   1.1 sec   0/  3 done)
     CP-SCF ITERATION   1:   6.2622e-04 (   1.1 sec   3/  3 done)
                    *** THE CP-SCF HAS CONVERGED ***

Forming final perturbed densities           ... done
Transforming perturbed density to AO basis  ... done

 Raw HFC matrix (all values in MHz): 
 -----------------------------------
                 1.4072              -0.3946               0.4542
                -0.3948               0.3918              -0.1481
                 0.4541              -0.1480               0.4891

 A(FC)           0.7626               0.7626               0.7626
 A(SD)          -0.5071              -0.4569               0.9640
 A(ORB+DIA)     -0.0000              -0.0000               0.0003    A(PC) =   0.0001
 A(ORB)         -0.0001              -0.0000               0.0002    A(PC) =   0.0000
 A(DIA)          0.0000               0.0000               0.0001    A(PC) =   0.0000
             ----------           ----------           ----------
 A(Tot)          0.2555               0.3057               1.7269    A(iso)=    0.7627
 Orientation: 
  X           0.3652277           -0.2946565            0.8830551
  Y           0.9225324            0.2415976           -0.3009394
  Z          -0.1246703            0.9245583            0.3600684

Notes:  (1) The A matrix conforms to the "SAI" spin Hamiltonian convention.
        (2) Tensor is right-handed.

 -----------------------------------------------------------
 Nucleus  36H : A:ISTP=    1 I=  0.5 P=533.5514 MHz/au**3
                Q:ISTP=    2 I=  1.0 Q=  0.0029 barn     
 -----------------------------------------------------------
 Solving for nuclear perturbation:
Forming RHS of the CP-SCF equations         ... 
Calc. nucleus orbit integrals (SHARK)       ... done

------------------------------------------------------------------------------
                           ORCA CP-SCF CALCULATION
------------------------------------------------------------------------------

Input orbitals are from        ... EPRII_i.gbw
Input Perturbation             ... EPRII_i.pin.tmp
Wavefunction output            ... EPRII_i.pout.tmp
Perturbation mode              ... Imaginary perturbation
Solver                         ... POPLE
Max. number of iterations      ... 64
Convergence tolerance          ... 1.000e-03
Integral handling              ... Direct
DFT GridXC                     ... 1
COSX GridX                     ... 1
COSX IntAccX                   ... 3.067
COSX Algorithm                 ... Auto
Number of perturbations        ... 3
Number of operators            ... 2
Orbital ranges used for CP-SCF:
 Operator 0:  Orbitals   0... 58  to  59...418
 Operator 1:  Orbitals   0... 57  to  58...418
Variables per perturbation     ... 42178
DFT calculation                         ... on
XC functional terms                     ... off
Hybrid DFT                              ... on
   Exchange mixing (SCF)                ...  0.200
   Exchange mixing (CP-SCF)             ...  0.200
   GGA exch. scaling(SCF)               ...  0.720
   GGA exch. scaling (CP-SCF)           ...  0.720
   GGA corr. scaling (SCF)              ...  0.810
   GGA corr. scaling (CP-SCF)           ...  0.810

CP-SCF GRID
-----------

General Integration Accuracy     IntAcc      ... 3.467
Radial Grid Type                 RadialGrid  ... OptM3 with GC (2021)
Angular Grid (max. ang.)         AngularGrid ... 1 (Lebedev-50)
Angular grid pruning method      GridPruning ... 4 (adaptive)
Weight generation scheme         WeightScheme... Becke
Basis function cutoff            BFCut       ... 1.0000e-10
Integration weight cutoff        WCut        ... 1.0000e-14
Angular grids for H and He will be reduced by one unit
Partially contracted basis set               ... off
Rotationally invariant grid construction     ... off

Total number of grid points                  ...    22895
Total number of batches                      ...      373
Average number of points per batch           ...       61
Average number of grid points per atom       ...      619

CP-SCF GRIDX
------------

General Integration Accuracy     IntAcc      ... 3.067
Radial Grid Type                 RadialGrid  ... OptM3 with GC (2021)
Angular Grid (max. ang.)         AngularGrid ... 1 (Lebedev-50)
Angular grid pruning method      GridPruning ... 4 (adaptive)
Weight generation scheme         WeightScheme... Becke
Basis function cutoff            BFCut       ... 1.0000e-10
Integration weight cutoff        WCut        ... 1.0000e-14
Angular grids for H and He will be reduced by one unit
Partially contracted basis set               ... on
Rotationally invariant grid construction     ... off

Total number of grid points                  ...    10842
Total number of batches                      ...      192
Average number of points per batch           ...       56
Average number of grid points per atom       ...      293

Memory available               ... 901.7 MB
Memory needed per perturbation ...  10.3 MB
Perturbations treated per batch... 3
Number of batches              ... 1
     CP-SCF ITERATION   0:   3.6915e-02 (   1.1 sec   0/  3 done)
     CP-SCF ITERATION   1:   5.9124e-04 (   1.1 sec   3/  3 done)
                    *** THE CP-SCF HAS CONVERGED ***

Forming final perturbed densities           ... done
Transforming perturbed density to AO basis  ... done

 Raw HFC matrix (all values in MHz): 
 -----------------------------------
                -0.1239               0.0919              -0.0070
                 0.0920               0.2340              -0.0314
                -0.0071              -0.0314              -0.1405

 A(FC)          -0.0102              -0.0102              -0.0102
 A(SD)          -0.1329              -0.1361               0.2689
 A(ORB+DIA)      0.0000               0.0001               0.0001    A(PC) =   0.0001
 A(ORB)          0.0000               0.0000               0.0001    A(PC) =   0.0000
 A(DIA)          0.0000               0.0000               0.0000    A(PC) =   0.0000
             ----------           ----------           ----------
 A(Tot)         -0.1430              -0.1462               0.2588    A(iso)=   -0.0101
 Orientation: 
  X           0.1836600            0.9546898            0.2341718
  Y           0.0370931           -0.2447853            0.9688675
  Z           0.9822897           -0.1692560           -0.0803696

Notes:  (1) The A matrix conforms to the "SAI" spin Hamiltonian convention.
        (2) Tensor is right-handed.


--------------------------------------------------------------------------------
----------------------------------------------------------------------------
                           ORCA EULER ANGLE PROGRAM
----------------------------------------------------------------------------

Only g-tensor available        -->  using g-tensor as reference tensor

Reference tensor               ...  g

g-tensor ordering              ...  |g_min> --> |gx>
                                    |g_mid> --> |gy>
                                    |g_max> --> |gz>

A- and EFG-tensor ordering     ...  the axes |Ax>, |Qx>, |Ay>, etc. are assigned
                                    such that the Euler rotation is minimal. You
                                    can find the respective eigenvalues as Ax,
                                    EFGx, Ay, etc. in the tables below.
                                    The relation of |Ax>, |Ay>,  etc. to Amin, Amid, etc.
                                    (as printed in the ORCA EPR/NMR CALCULATION Output)
                                    is obtained in the detailed printout.

Euler rotation around          ...  z - y - z
   First rotation              -->  by alpha around z
   Second rotation             -->  by beta around y'
   Third rotation              -->  by gamma around z''
   Positive / Negative angle   -->  clockwise / counterclockwise rotation

Plot EFG-tensors                    (-)
Plot HFC-tensors                    (-)
Detailed Printout                   (-)

-------------------------------------------------------------------------
          Euler rotation of hyperfine tensor to g-tensor
-------------------------------------------------------------------------

-------------------------------------------------------------------
 Atom  |   Alpha    Beta    Gamma   |   Ax       Ay       Az 
       |          [degrees]         |           [MHz]         
-------------------------------------------------------------------
  7H       98.8     33.3    -93.1     -18.66   -21.81    -7.81
  8H      100.6     30.5    -95.9       4.41    10.20     5.53
 10H     -165.2      3.9    167.1     -49.06   -20.13   -75.03
 11H       98.3     27.8    -94.2     -48.95   -74.08   -19.54
 13H      -66.8     50.4     47.8       3.97     8.42     4.18
 14H     -104.0     33.9     94.5       6.21    13.02     7.63
 16H      156.4     37.9    160.5       3.52    -3.24    -1.36
 17H      165.3     42.5    174.0       2.12    -1.21    -1.73
 19H      -32.0     34.8     39.8      -0.75     1.27    -0.59
 20H     -126.8     46.5    149.7      -0.24     1.36    -0.16
 22H      124.5     46.5   -149.4      27.14    31.33    27.82
 23H       61.5     38.9    -26.2      27.64    31.84    28.35
 25H      158.3     17.9   -156.9      -1.11    -1.00     1.09
 26H       39.4      9.7    -30.8      -1.12    -1.01     1.09
 28H      -52.3     24.9     83.2      -0.11    -0.16     0.91
 29H     -148.6     27.8    122.9      -0.11    -0.15     0.92
 31H      -58.2      6.4     66.2      -0.13    -0.11     0.43
 32H     -158.0     13.2    159.4      -0.13    -0.11     0.42
 34H     -114.7     10.9    117.4       3.62     2.71     5.15
 35H      -69.5     24.0    100.9       0.31     1.73     0.26
 36H     -108.5     16.2    110.2      -0.14    -0.15     0.26
-------------------------------------------------------------------


Maximum memory used throughout the entire EPRNMR-calculation: 164.5 MB

Timings for individual modules:

Sum of individual times         ...     1713.628 sec (=  28.560 min)
GTO integral calculation        ...        5.151 sec (=   0.086 min)   0.3 %
Spin-Orbit-Coupling Matrices    ...       12.998 sec (=   0.217 min)   0.8 %
SCF iterations                  ...       22.352 sec (=   0.373 min)   1.3 %
EPR/NMR calculation             ...     1673.126 sec (=  27.885 min)  97.6 %
                             ****ORCA TERMINATED NORMALLY****
TOTAL RUN TIME: 0 days 0 hours 28 minutes 38 seconds 483 msec
