
                                 *****************
                                 * O   R   C   A *
                                 *****************

                                            #,                                       
                                            ###                                      
                                            ####                                     
                                            #####                                    
                                            ######                                   
                                           ########,                                 
                                     ,,################,,,,,                         
                               ,,#################################,,                 
                          ,,##########################################,,             
                       ,#########################################, ''#####,          
                    ,#############################################,,   '####,        
                  ,##################################################,,,,####,       
                ,###########''''           ''''###############################       
              ,#####''   ,,,,##########,,,,          '''####'''          '####       
            ,##' ,,,,###########################,,,                        '##       
           ' ,,###''''                  '''############,,,                           
         ,,##''                                '''############,,,,        ,,,,,,###''
      ,#''                                            '''#######################'''  
     '                                                          ''''####''''         
             ,#######,   #######,   ,#######,      ##                                
            ,#'     '#,  ##    ##  ,#'     '#,    #''#        ######   ,####,        
            ##       ##  ##   ,#'  ##            #'  '#       #        #'  '#        
            ##       ##  #######   ##           ,######,      #####,   #    #        
            '#,     ,#'  ##    ##  '#,     ,#' ,#      #,         ##   #,  ,#        
             '#######'   ##     ##  '#######'  #'      '#     #####' # '####'        



                  #######################################################
                  #                        -***-                        #
                  #          Department of theory and spectroscopy      #
                  #    Directorship and core code : Frank Neese         #
                  #        Max Planck Institute fuer Kohlenforschung    #
                  #                Kaiser Wilhelm Platz 1               #
                  #                 D-45470 Muelheim/Ruhr               #
                  #                      Germany                        #
                  #                                                     #
                  #                  All rights reserved                #
                  #                        -***-                        #
                  #######################################################


                         Program Version 5.0.4 -  RELEASE  -


 With contributions from (in alphabetic order):
   Daniel Aravena         : Magnetic Suceptibility
   Michael Atanasov       : Ab Initio Ligand Field Theory (pilot matlab implementation)
   Alexander A. Auer      : GIAO ZORA, VPT2 properties, NMR spectrum
   Ute Becker             : Parallelization
   Giovanni Bistoni       : ED, misc. LED, open-shell LED, HFLD
   Martin Brehm           : Molecular dynamics
   Dmytro Bykov           : SCF Hessian
   Vijay G. Chilkuri      : MRCI spin determinant printing, contributions to CSF-ICE
   Dipayan Datta          : RHF DLPNO-CCSD density
   Achintya Kumar Dutta   : EOM-CC, STEOM-CC
   Dmitry Ganyushin       : Spin-Orbit,Spin-Spin,Magnetic field MRCI
   Miquel Garcia          : C-PCM and meta-GGA Hessian, CC/C-PCM, Gaussian charge scheme
   Yang Guo               : DLPNO-NEVPT2, F12-NEVPT2, CIM, IAO-localization
   Andreas Hansen         : Spin unrestricted coupled pair/coupled cluster methods
   Benjamin Helmich-Paris : MC-RPA, TRAH-SCF, COSX integrals
   Lee Huntington         : MR-EOM, pCC
   Robert Izsak           : Overlap fitted RIJCOSX, COSX-SCS-MP3, EOM
   Marcus Kettner         : VPT2
   Christian Kollmar      : KDIIS, OOCD, Brueckner-CCSD(T), CCSD density, CASPT2, CASPT2-K
   Simone Kossmann        : Meta GGA functionals, TD-DFT gradient, OOMP2, MP2 Hessian
   Martin Krupicka        : Initial AUTO-CI
   Lucas Lang             : DCDCAS
   Marvin Lechner         : AUTO-CI (C++ implementation), FIC-MRCC
   Dagmar Lenk            : GEPOL surface, SMD
   Dimitrios Liakos       : Extrapolation schemes; Compound Job, initial MDCI parallelization
   Dimitrios Manganas     : Further ROCIS development; embedding schemes
   Dimitrios Pantazis     : SARC Basis sets
   Anastasios Papadopoulos: AUTO-CI, single reference methods and gradients
   Taras Petrenko         : DFT Hessian,TD-DFT gradient, ASA, ECA, R-Raman, ABS, FL, XAS/XES, NRVS
   Peter Pinski           : DLPNO-MP2, DLPNO-MP2 Gradient
   Christoph Reimann      : Effective Core Potentials
   Marius Retegan         : Local ZFS, SOC
   Christoph Riplinger    : Optimizer, TS searches, QM/MM, DLPNO-CCSD(T), (RO)-DLPNO pert. Triples
   Tobias Risthaus        : Range-separated hybrids, TD-DFT gradient, RPA, STAB
   Michael Roemelt        : Original ROCIS implementation
   Masaaki Saitow         : Open-shell DLPNO-CCSD energy and density
   Barbara Sandhoefer     : DKH picture change effects
   Avijit Sen             : IP-ROCIS
   Kantharuban Sivalingam : CASSCF convergence, NEVPT2, FIC-MRCI
   Bernardo de Souza      : ESD, SOC TD-DFT
   Georgi Stoychev        : AutoAux, RI-MP2 NMR, DLPNO-MP2 response
   Willem Van den Heuvel  : Paramagnetic NMR
   Boris Wezisla          : Elementary symmetry handling
   Frank Wennmohs         : Technical directorship


 We gratefully acknowledge several colleagues who have allowed us to
 interface, adapt or use parts of their codes:
   Stefan Grimme, W. Hujo, H. Kruse, P. Pracht,  : VdW corrections, initial TS optimization,
                  C. Bannwarth, S. Ehlert          DFT functionals, gCP, sTDA/sTD-DF
   Ed Valeev, F. Pavosevic, A. Kumar             : LibInt (2-el integral package), F12 methods
   Garnet Chan, S. Sharma, J. Yang, R. Olivares  : DMRG
   Ulf Ekstrom                                   : XCFun DFT Library
   Mihaly Kallay                                 : mrcc  (arbitrary order and MRCC methods)
   Jiri Pittner, Ondrej Demel                    : Mk-CCSD
   Frank Weinhold                                : gennbo (NPA and NBO analysis)
   Christopher J. Cramer and Donald G. Truhlar   : smd solvation model
   Lars Goerigk                                  : TD-DFT with DH, B97 family of functionals
   V. Asgeirsson, H. Jonsson                     : NEB implementation
   FAccTs GmbH                                   : IRC, NEB, NEB-TS, DLPNO-Multilevel, CI-OPT
                                                   MM, QMMM, 2- and 3-layer-ONIOM, Crystal-QMMM,
                                                   LR-CPCM, SF, NACMEs, symmetry and pop. for TD-DFT,
                                                   nearIR, NL-DFT gradient (VV10), updates on ESD,
                                                   ML-optimized integration grids
   S Lehtola, MJT Oliveira, MAL Marques          : LibXC Library
   Liviu Ungur et al                             : ANISO software


 Your calculation uses the libint2 library for the computation of 2-el integrals
 For citations please refer to: http://libint.valeyev.net

 Your ORCA version has been built with support for libXC version: 5.1.0
 For citations please refer to: https://tddft.org/programs/libxc/

 This ORCA versions uses:
   CBLAS   interface :  Fast vector & matrix operations
   LAPACKE interface :  Fast linear algebra routines
   SCALAPACK package :  Parallel linear algebra routines
   Shared memory     :  Shared parallel matrices
   BLAS/LAPACK       :  OpenBLAS 0.3.15  USE64BITINT DYNAMIC_ARCH NO_AFFINITY SkylakeX SINGLE_THREADED
        Core in use  :  SkylakeX
   Copyright (c) 2011-2014, The OpenBLAS Project




***************************************
The coordinates will be read from file: opt_EPRII.xyz
***************************************


================================================================================

----- Orbital basis set information -----
Your calculation utilizes the basis: EPR-II
   V. Barone, in Recent Advances in Density Functional Methods, Part 1 (ed. D. P. Chong), World Scientific, Singapore, 1995, p. 287.

----- AuxJ basis set information -----
Your calculation utilizes the AutoAux generation procedure.
  G. L. Stoychev, A. A. Auer, F. Neese, J. Chem. Theory Comput. 13, 554 (2017)

----- AuxC basis set information -----
Your calculation utilizes the AutoAux generation procedure.
  G. L. Stoychev, A. A. Auer, F. Neese, J. Chem. Theory Comput. 13, 554 (2017)

----- AuxJK basis set information -----
Your calculation utilizes the AutoAux generation procedure.
  G. L. Stoychev, A. A. Auer, F. Neese, J. Chem. Theory Comput. 13, 554 (2017)

================================================================================
                                        WARNINGS
                       Please study these warnings very carefully!
================================================================================

WARNING: Old DensityContainer found on disk!
         Will remove this file - 
         If you want to keep old densities, please start your calculation with a different basename. 


WARNING: your system is open-shell and RHF/RKS was chosen
  ===> : WILL SWITCH to UHF/UKS


INFO   : the flag for use of the SHARK integral package has been found!

================================================================================
                                       INPUT FILE
================================================================================
NAME = EPRII.inp
|  1> ! B3LYP EPR-II AUTOAUX
|  2> %pal nprocs 16 end
|  3> *XYZFile 0 2 opt_EPRII.xyz
|  4> %EPRNMR
|  5>         GTENSOR   TRUE
|  6>         NUCLEI    = ALL H {SHIFT, AISO, ADIP, AORB}
|  7>         ORI       CenterOfElCharge
|  8> END
|  9> 
| 10>                          ****END OF INPUT****
================================================================================

                       ****************************
                       * Single Point Calculation *
                       ****************************

---------------------------------
CARTESIAN COORDINATES (ANGSTROEM)
---------------------------------
  C     -2.631135    0.136092    0.158159
  C      1.583587   -0.229531   -0.498372
  C      0.972297    1.076577   -0.473269
  C     -0.437261    1.141039   -0.247916
  C     -1.217519   -0.004302   -0.061469
  C     -0.612770   -1.298720   -0.094607
  C      0.776447   -1.359051   -0.313969
  H     -0.919968    2.114043   -0.224749
  H      1.255317   -2.333399   -0.347294
  C      1.697853    2.276431   -0.666396
  H      2.764407    2.285724   -0.852533
  H      1.186985    3.233503   -0.643844
  C      3.076798   -0.402684   -0.692801
  H      3.274958   -1.422277   -1.045016
  H      3.439862    0.272421   -1.477924
  C      3.899103   -0.160579    0.597832
  H      3.687597    0.844664    0.979705
  H      3.558833   -0.862551    1.368882
  C      5.411564   -0.325853    0.372393
  H      5.780492    0.389290   -0.371628
  H      5.649364   -1.332684    0.010611
  C     -1.475199   -2.534705    0.096262
  H     -1.995412   -2.445171    1.060021
  H     -2.273793   -2.514645   -0.658143
  C     -0.761575   -3.894277    0.034737
  H     -0.255166   -4.007361   -0.933226
  H      0.019091   -3.943050    0.805682
  C     -1.732454   -5.072973    0.230701
  H     -2.242415   -4.963898    1.197030
  H     -2.514907   -5.026961   -0.538306
  C     -1.035667   -6.443315    0.170759
  H     -0.269788   -6.530091    0.949819
  H     -0.543315   -6.592334   -0.796918
  C     -3.831534    0.245077    0.347930
  H     -4.879254    0.347224    0.514955
  H      5.969680   -0.162328    1.300027
  H     -1.750638   -7.260504    0.311773

----------------------------
CARTESIAN COORDINATES (A.U.)
----------------------------
  NO LB      ZA    FRAG     MASS         X           Y           Z
   0 C     6.0000    0    12.011   -4.972125    0.257177    0.298877
   1 C     6.0000    0    12.011    2.992545   -0.433751   -0.941786
   2 C     6.0000    0    12.011    1.837375    2.034435   -0.894349
   3 C     6.0000    0    12.011   -0.826303    2.156252   -0.468494
   4 C     6.0000    0    12.011   -2.300777   -0.008129   -0.116159
   5 C     6.0000    0    12.011   -1.157967   -2.454225   -0.178781
   6 C     6.0000    0    12.011    1.467273   -2.568233   -0.593315
   7 H     1.0000    0     1.008   -1.738488    3.994962   -0.424714
   8 H     1.0000    0     1.008    2.372206   -4.409485   -0.656291
   9 C     6.0000    0    12.011    3.208478    4.301831   -1.259306
  10 H     1.0000    0     1.008    5.223972    4.319392   -1.611054
  11 H     1.0000    0     1.008    2.243077    6.110435   -1.216689
  12 C     6.0000    0    12.011    5.814306   -0.760962   -1.309204
  13 H     1.0000    0     1.008    6.188775   -2.687715   -1.974793
  14 H     1.0000    0     1.008    6.500398    0.514801   -2.792872
  15 C     6.0000    0    12.011    7.368237   -0.303451    1.129739
  16 H     1.0000    0     1.008    6.968548    1.596184    1.851375
  17 H     1.0000    0     1.008    6.725220   -1.629985    2.586813
  18 C     6.0000    0    12.011   10.226374   -0.615773    0.703721
  19 H     1.0000    0     1.008   10.923547    0.735652   -0.702275
  20 H     1.0000    0     1.008   10.675751   -2.518407    0.020052
  21 C     6.0000    0    12.011   -2.787722   -4.789899    0.181908
  22 H     1.0000    0     1.008   -3.770782   -4.620703    2.003150
  23 H     1.0000    0     1.008   -4.296846   -4.751990   -1.243710
  24 C     6.0000    0    12.011   -1.439168   -7.359116    0.065643
  25 H     1.0000    0     1.008   -0.482194   -7.572814   -1.763541
  26 H     1.0000    0     1.008    0.036077   -7.451285    1.522518
  27 C     6.0000    0    12.011   -3.273864   -9.586529    0.435961
  28 H     1.0000    0     1.008   -4.237551   -9.380408    2.262058
  29 H     1.0000    0     1.008   -4.752486   -9.499579   -1.017251
  30 C     6.0000    0    12.011   -1.957128  -12.176101    0.322688
  31 H     1.0000    0     1.008   -0.509825  -12.340084    1.794898
  32 H     1.0000    0     1.008   -1.026717  -12.457706   -1.505957
  33 C     6.0000    0    12.011   -7.240550    0.463129    0.657492
  34 H     1.0000    0     1.008   -9.220454    0.656158    0.973123
  35 H     1.0000    0     1.008   11.281061   -0.306755    2.456695
  36 H     1.0000    0     1.008   -3.308226  -13.720364    0.589166

--------------------------------
INTERNAL COORDINATES (ANGSTROEM)
--------------------------------
 C      0   0   0     0.000000000000     0.00000000     0.00000000
 C      1   0   0     4.281190667200     0.00000000     0.00000000
 C      2   1   0     1.442297484969    60.18129425     0.00000000
 C      3   2   1     1.428913176157   117.49607085     0.11360836
 C      4   3   2     1.398345988137   122.31036202   359.74183169
 C      5   4   3     1.429103861841   120.17633436   359.87939632
 C      2   1   3     1.400461692886    58.75472976   180.39854469
 H      4   3   2     1.086406064261   118.82032607   179.99830827
 H      7   2   1     1.086177762837   117.73364306   179.74378760
 C      3   2   1     1.415408007153   123.23181693   180.45060898
 H     10   3   2     1.082714436574   122.39105544     0.39754958
 H     10   3   2     1.085118588726   120.23227244   179.61414757
 C      2   1   3     1.515739408826   177.80999100   142.54709873
 H     13   2   7     1.096764910520   108.98883846    21.88573466
 H     13   2   7     1.097269526428   110.33200452   138.37353048
 C     13   2   7     1.549365522163   113.46225626   260.90966135
 H     16  13   2     1.095936515528   109.33911969   303.00257752
 H     16  13   2     1.096843929760   108.71896777    58.76981422
 C     16  13   2     1.538075660044   112.52032338   180.66391755
 H     19  16  13     1.095949047307   111.12536860    60.60492809
 H     19  16  13     1.095966423697   111.12864556   300.81819981
 C      6   5   4     1.519168984429   119.58881491   180.58496466
 H     22   6   5     1.098849481947   108.21959181   302.91619144
 H     22   6   5     1.098763763982   108.14913552    56.00775537
 C     22   6   5     1.536710294302   116.81739607   179.39790919
 H     25  22   6     1.098266371017   109.90796875   301.81355595
 H     25  22   6     1.098259498967   109.95489050    58.91041951
 C     25  22   6     1.539588605356   112.29646988   180.40846134
 H     28  25  22     1.098066151525   109.19782028   302.03942765
 H     28  25  22     1.098053410351   109.15588144    57.90017943
 C     28  25  22     1.538487705795   113.03874461   179.94179049
 H     31  28  25     1.095917868776   111.05972089    59.93530749
 H     31  28  25     1.095908690754   111.03830509   300.20363066
 C      1   2   3     1.220183484108   179.74032591   326.99827702
 H     34   1   5     1.065855974953   179.61779381   151.34711485
 H     19  16  13     1.094869600619   111.16367104   180.70452117
 H     31  28  25     1.094927055241   111.34694499   180.08018770

---------------------------
INTERNAL COORDINATES (A.U.)
---------------------------
 C      0   0   0     0.000000000000     0.00000000     0.00000000
 C      1   0   0     8.090277888108     0.00000000     0.00000000
 C      2   1   0     2.725547250235    60.18129425     0.00000000
 C      3   2   1     2.700254572087   117.49607085     0.11360836
 C      4   3   2     2.642490958046   122.31036202   359.74183169
 C      5   4   3     2.700614915808   120.17633436   359.87939632
 C      2   1   3     2.646489060603    58.75472976   180.39854469
 H      4   3   2     2.053009931684   118.82032607   179.99830827
 H      7   2   1     2.052578504517   117.73364306   179.74378760
 C      3   2   1     2.674733501278   123.23181693   180.45060898
 H     10   3   2     2.046033766368   122.39105544     0.39754958
 H     10   3   2     2.050576955520   120.23227244   179.61414757
 C      2   1   3     2.864332373073   177.80999100   142.54709873
 H     13   2   7     2.072585314177   108.98883846    21.88573466
 H     13   2   7     2.073538900046   110.33200452   138.37353048
 C     13   2   7     2.927876518228   113.46225626   260.90966135
 H     16  13   2     2.071019874511   109.33911969   303.00257752
 H     16  13   2     2.072734638901   108.71896777    58.76981422
 C     16  13   2     2.906541770734   112.52032338   180.66391755
 H     19  16  13     2.071043556143   111.12536860    60.60492809
 H     19  16  13     2.071076392761   111.12864556   300.81819981
 C      6   5   4     2.870813331718   119.58881491   180.58496466
 H     22   6   5     2.076524583282   108.21959181   302.91619144
 H     22   6   5     2.076362599803   108.14913552    56.00775537
 C     22   6   5     2.903961603409   116.81739607   179.39790919
 H     25  22   6     2.075422663317   109.90796875   301.81355595
 H     25  22   6     2.075409677025   109.95489050    58.91041951
 C     25  22   6     2.909400823029   112.29646988   180.40846134
 H     28  25  22     2.075044303311   109.19782028   302.03942765
 H     28  25  22     2.075020225983   109.15588144    57.90017943
 C     28  25  22     2.907320424358   113.03874461   179.94179049
 H     31  28  25     2.070984637257   111.05972089    59.93530749
 H     31  28  25     2.070967293310   111.03830509   300.20363066
 C      1   2   3     2.305812618099   179.74032591   326.99827702
 H     34   1   5     2.014175890866   179.61779381   151.34711485
 H     19  16  13     2.069003697526   111.16367104   180.70452117
 H     31  28  25     2.069112271027   111.34694499   180.08018770

---------------------
BASIS SET INFORMATION
---------------------
There are 2 groups of distinct atoms

 Group   1 Type C   : 10s5p1d contracted to 6s2p1d pattern {511111/41/1}
 Group   2 Type H   : 6s1p contracted to 4s1p pattern {3111/1}

Atom   0C    basis set group =>   1
Atom   1C    basis set group =>   1
Atom   2C    basis set group =>   1
Atom   3C    basis set group =>   1
Atom   4C    basis set group =>   1
Atom   5C    basis set group =>   1
Atom   6C    basis set group =>   1
Atom   7H    basis set group =>   2
Atom   8H    basis set group =>   2
Atom   9C    basis set group =>   1
Atom  10H    basis set group =>   2
Atom  11H    basis set group =>   2
Atom  12C    basis set group =>   1
Atom  13H    basis set group =>   2
Atom  14H    basis set group =>   2
Atom  15C    basis set group =>   1
Atom  16H    basis set group =>   2
Atom  17H    basis set group =>   2
Atom  18C    basis set group =>   1
Atom  19H    basis set group =>   2
Atom  20H    basis set group =>   2
Atom  21C    basis set group =>   1
Atom  22H    basis set group =>   2
Atom  23H    basis set group =>   2
Atom  24C    basis set group =>   1
Atom  25H    basis set group =>   2
Atom  26H    basis set group =>   2
Atom  27C    basis set group =>   1
Atom  28H    basis set group =>   2
Atom  29H    basis set group =>   2
Atom  30C    basis set group =>   1
Atom  31H    basis set group =>   2
Atom  32H    basis set group =>   2
Atom  33C    basis set group =>   1
Atom  34H    basis set group =>   2
Atom  35H    basis set group =>   2
Atom  36H    basis set group =>   2
---------------------------------
AUXILIARY/J BASIS SET INFORMATION
---------------------------------
There are 2 groups of distinct atoms

 Group   1 Type C   : 17s13p12d2f contracted to 17s13p12d2f pattern {11111111111111111/1111111111111/111111111111/11}
 Group   2 Type H   : 15s6p1d contracted to 15s6p1d pattern {111111111111111/111111/1}

Atom   0C    basis set group =>   1
Atom   1C    basis set group =>   1
Atom   2C    basis set group =>   1
Atom   3C    basis set group =>   1
Atom   4C    basis set group =>   1
Atom   5C    basis set group =>   1
Atom   6C    basis set group =>   1
Atom   7H    basis set group =>   2
Atom   8H    basis set group =>   2
Atom   9C    basis set group =>   1
Atom  10H    basis set group =>   2
Atom  11H    basis set group =>   2
Atom  12C    basis set group =>   1
Atom  13H    basis set group =>   2
Atom  14H    basis set group =>   2
Atom  15C    basis set group =>   1
Atom  16H    basis set group =>   2
Atom  17H    basis set group =>   2
Atom  18C    basis set group =>   1
Atom  19H    basis set group =>   2
Atom  20H    basis set group =>   2
Atom  21C    basis set group =>   1
Atom  22H    basis set group =>   2
Atom  23H    basis set group =>   2
Atom  24C    basis set group =>   1
Atom  25H    basis set group =>   2
Atom  26H    basis set group =>   2
Atom  27C    basis set group =>   1
Atom  28H    basis set group =>   2
Atom  29H    basis set group =>   2
Atom  30C    basis set group =>   1
Atom  31H    basis set group =>   2
Atom  32H    basis set group =>   2
Atom  33C    basis set group =>   1
Atom  34H    basis set group =>   2
Atom  35H    basis set group =>   2
Atom  36H    basis set group =>   2
---------------------------------
AUXILIARY/C BASIS SET INFORMATION
---------------------------------
There are 2 groups of distinct atoms

 Group   1 Type C   : 17s13p12d2f contracted to 17s13p12d2f pattern {11111111111111111/1111111111111/111111111111/11}
 Group   2 Type H   : 15s6p1d contracted to 15s6p1d pattern {111111111111111/111111/1}

Atom   0C    basis set group =>   1
Atom   1C    basis set group =>   1
Atom   2C    basis set group =>   1
Atom   3C    basis set group =>   1
Atom   4C    basis set group =>   1
Atom   5C    basis set group =>   1
Atom   6C    basis set group =>   1
Atom   7H    basis set group =>   2
Atom   8H    basis set group =>   2
Atom   9C    basis set group =>   1
Atom  10H    basis set group =>   2
Atom  11H    basis set group =>   2
Atom  12C    basis set group =>   1
Atom  13H    basis set group =>   2
Atom  14H    basis set group =>   2
Atom  15C    basis set group =>   1
Atom  16H    basis set group =>   2
Atom  17H    basis set group =>   2
Atom  18C    basis set group =>   1
Atom  19H    basis set group =>   2
Atom  20H    basis set group =>   2
Atom  21C    basis set group =>   1
Atom  22H    basis set group =>   2
Atom  23H    basis set group =>   2
Atom  24C    basis set group =>   1
Atom  25H    basis set group =>   2
Atom  26H    basis set group =>   2
Atom  27C    basis set group =>   1
Atom  28H    basis set group =>   2
Atom  29H    basis set group =>   2
Atom  30C    basis set group =>   1
Atom  31H    basis set group =>   2
Atom  32H    basis set group =>   2
Atom  33C    basis set group =>   1
Atom  34H    basis set group =>   2
Atom  35H    basis set group =>   2
Atom  36H    basis set group =>   2
----------------------------------
AUXILIARY/JK BASIS SET INFORMATION
----------------------------------
There are 2 groups of distinct atoms

 Group   1 Type C   : 17s13p12d2f contracted to 17s13p12d2f pattern {11111111111111111/1111111111111/111111111111/11}
 Group   2 Type H   : 15s6p1d contracted to 15s6p1d pattern {111111111111111/111111/1}

Atom   0C    basis set group =>   1
Atom   1C    basis set group =>   1
Atom   2C    basis set group =>   1
Atom   3C    basis set group =>   1
Atom   4C    basis set group =>   1
Atom   5C    basis set group =>   1
Atom   6C    basis set group =>   1
Atom   7H    basis set group =>   2
Atom   8H    basis set group =>   2
Atom   9C    basis set group =>   1
Atom  10H    basis set group =>   2
Atom  11H    basis set group =>   2
Atom  12C    basis set group =>   1
Atom  13H    basis set group =>   2
Atom  14H    basis set group =>   2
Atom  15C    basis set group =>   1
Atom  16H    basis set group =>   2
Atom  17H    basis set group =>   2
Atom  18C    basis set group =>   1
Atom  19H    basis set group =>   2
Atom  20H    basis set group =>   2
Atom  21C    basis set group =>   1
Atom  22H    basis set group =>   2
Atom  23H    basis set group =>   2
Atom  24C    basis set group =>   1
Atom  25H    basis set group =>   2
Atom  26H    basis set group =>   2
Atom  27C    basis set group =>   1
Atom  28H    basis set group =>   2
Atom  29H    basis set group =>   2
Atom  30C    basis set group =>   1
Atom  31H    basis set group =>   2
Atom  32H    basis set group =>   2
Atom  33C    basis set group =>   1
Atom  34H    basis set group =>   2
Atom  35H    basis set group =>   2
Atom  36H    basis set group =>   2

Checking for AutoStart:
The File: EPRII.gbw exists
Trying to determine its content:
     ... Fine, the file contains calculation information
     ... Fine, the calculation information was read
     ... Fine, the file contains a basis set
     ... Fine, the basis set was read
     ... Fine, the file contains a geometry
     ... Fine, the geometry was read
     ... Fine, the file contains a set of orbitals
     ... Fine, the orbitals can be read
     => possible old guess file was deleted
     => GBW file was renamed to GES file
     => GES file is set as startup file
     => Guess is set to MORead
     ... now leaving AutoStart



           ************************************************************
           *        Program running with 16 parallel MPI-processes    *
           *              working on a common directory               *
           ************************************************************
------------------------------------------------------------------------------
                           ORCA GTO INTEGRAL CALCULATION
                           -- RI-GTO INTEGRALS CHOSEN --
------------------------------------------------------------------------------
------------------------------------------------------------------------------
                   ___                                                        
                  /   \      - P O W E R E D   B Y -                         
                 /     \                                                     
                 |  |  |   _    _      __       _____    __    __             
                 |  |  |  | |  | |    /  \     |  _  \  |  |  /  |          
                  \  \/   | |  | |   /    \    | | | |  |  | /  /          
                 / \  \   | |__| |  /  /\  \   | |_| |  |  |/  /          
                |  |  |   |  __  | /  /__\  \  |    /   |      \           
                |  |  |   | |  | | |   __   |  |    \   |  |\   \          
                \     /   | |  | | |  |  |  |  | |\  \  |  | \   \       
                 \___/    |_|  |_| |__|  |__|  |_| \__\ |__|  \__/        
                                                                              
                      - O R C A' S   B I G   F R I E N D -                    
                                      &                                       
                       - I N T E G R A L  F E E D E R -                       
                                                                              
 v1 FN, 2020, v2 2021                                                         
------------------------------------------------------------------------------


Reading SHARK input file EPRII.SHARKINP.tmp ... ok
----------------------
SHARK INTEGRAL PACKAGE
----------------------

Number of atoms                             ...     37
Number of basis functions                   ...    419
Number of shells                            ...    249
Maximum angular momentum                    ...      2
Integral batch strategy                     ... SHARK/LIBINT Hybrid
RI-J (if used) integral strategy            ... SPLIT-RIJ (Revised 2003 algorithm where possible)
Printlevel                                  ...      1
Contraction scheme used                     ... SEGMENTED contraction
Coulomb Range Separation                    ... NOT USED
Exchange Range Separation                   ... NOT USED
Finite Nucleus Model                        ... NOT USED
Auxiliary Coulomb fitting basis             ... AVAILABLE
   # of basis functions in Aux-J            ...   2878
   # of shells in Aux-J                     ...   1166
   Maximum angular momentum in Aux-J        ...      3
Auxiliary J/K fitting basis                 ... AVAILABLE
   # of basis functions in Aux-JK           ...   2878
   # of shells in Aux-JK                    ...   1166
   Maximum angular momentum in Aux-JK       ...      3
Auxiliary Correlation fitting basis         ... AVAILABLE
   # of basis functions in Aux-C            ...   2878
   # of shells in Aux-C                     ...   1166
   Maximum angular momentum in Aux-C        ...      3
Auxiliary 'external' fitting basis          ... NOT available
Integral threshold                          ...     1.000000e-10
Primitive cut-off                           ...     1.000000e-11
Primitive pair pre-selection threshold      ...     1.000000e-11

Calculating pre-screening integrals         ... done (  0.0 sec) Dimension = 249
Organizing shell pair data                  ... done (  0.1 sec)
Shell pair information
Total number of shell pairs                 ...     31125
Shell pairs after pre-screening             ...     19030
Total number of primitive shell pairs       ...     81725
Primitive shell pairs kept                  ...     36111
          la=0 lb=0:   8805 shell pairs
          la=1 lb=0:   6570 shell pairs
          la=1 lb=1:   1136 shell pairs
          la=2 lb=0:   1772 shell pairs
          la=2 lb=1:    645 shell pairs
          la=2 lb=2:    102 shell pairs

Calculating one electron integrals          ... done (  0.0 sec)
Calculating RI/J V-Matrix + Cholesky decomp.... done (  0.6 sec)
Calculating RI/JK V-Matrix + Cholesky decomp... done (  0.5 sec)
Calculating RI/C V-Matrix + Cholesky decomp.... done (  0.5 sec)
Calculating Nuclear repulsion               ... done (  0.0 sec) ENN=   1002.746671658933 Eh

SHARK setup successfully completed in   2.1 seconds

Maximum memory used throughout the entire GTOINT-calculation: 35.3 MB


           ************************************************************
           *        Program running with 16 parallel MPI-processes    *
           *              working on a common directory               *
           ************************************************************
-------------------------------------------------------------------------------
                                 ORCA SCF
-------------------------------------------------------------------------------

------------
SCF SETTINGS
------------
Hamiltonian:
 Density Functional     Method          .... DFT(GTOs)
 Exchange Functional    Exchange        .... B88
   X-Alpha parameter    XAlpha          ....  0.666667
   Becke's b parameter  XBeta           ....  0.004200
 Correlation Functional Correlation     .... LYP
 LDA part of GGA corr.  LDAOpt          .... VWN-5
 Gradients option       PostSCFGGA      .... off
 Hybrid DFT is turned on
   Fraction HF Exchange ScalHFX         ....  0.200000
   Scaling of DF-GGA-X  ScalDFX         ....  0.720000
   Scaling of DF-GGA-C  ScalDFC         ....  0.810000
   Scaling of DF-LDA-C  ScalLDAC        ....  1.000000
   Perturbative correction              ....  0.000000
   Density functional embedding theory  .... OFF
   NL short-range parameter             ....  4.800000
 RI-approximation to the Coulomb term is turned on
   Number of AuxJ basis functions       .... 2878
   RIJ-COSX (HFX calculated with COS-X)).... on


General Settings:
 Integral files         IntName         .... EPRII
 Hartree-Fock type      HFTyp           .... UHF
 Total Charge           Charge          ....    0
 Multiplicity           Mult            ....    2
 Number of Electrons    NEL             ....  117
 Basis Dimension        Dim             ....  419
 Nuclear Repulsion      ENuc            ....   1002.7466716589 Eh

Convergence Acceleration:
 DIIS                   CNVDIIS         .... on
   Start iteration      DIISMaxIt       ....    12
   Startup error        DIISStart       ....  0.200000
   # of expansion vecs  DIISMaxEq       ....     5
   Bias factor          DIISBfac        ....   1.050
   Max. coefficient     DIISMaxC        ....  10.000
 Trust-Rad. Augm. Hess. CNVTRAH         .... auto
   Auto Start mean grad. ratio tolernc. ....  1.125000
   Auto Start start iteration           ....     1
   Auto Start num. interpolation iter.  ....    10
   Max. Number of Micro iterations      ....    16
   Max. Number of Macro iterations      .... Maxiter - #DIIS iter
   Number of Davidson start vectors     ....     2
   Converg. threshold I  (grad. norm)   ....   5.000e-05
   Converg. threshold II (energy diff.) ....   1.000e-06
   Grad. Scal. Fac. for Micro threshold ....   0.100
   Minimum threshold for Micro iter.    ....   0.010
   NR start threshold (gradient norm)   ....   0.001
   Initial trust radius                 ....   0.400
   Minimum AH scaling param. (alpha)    ....   1.000
   Maximum AH scaling param. (alpha)    .... 1000.000
   Orbital update algorithm             .... Taylor
   White noise on init. David. guess    .... on
   Maximum white noise                  ....   0.010
   Quad. conv. algorithm                .... NR
 SOSCF                  CNVSOSCF        .... off
 Level Shifting         CNVShift        .... on
   Level shift para.    LevelShift      ....    0.2500
   Turn off err/grad.   ShiftErr        ....    0.0010
 Zerner damping         CNVZerner       .... off
 Static damping         CNVDamp         .... on
   Fraction old density DampFac         ....    0.7000
   Max. Damping (<1)    DampMax         ....    0.9800
   Min. Damping (>=0)   DampMin         ....    0.0000
   Turn off err/grad.   DampErr         ....    0.1000
 Fernandez-Rico         CNVRico         .... off

SCF Procedure:
 Maximum # iterations   MaxIter         ....   125
 SCF integral mode      SCFMode         .... Direct
   Integral package                     .... SHARK and LIBINT hybrid scheme
 Reset frequency        DirectResetFreq ....    20
 Integral Threshold     Thresh          ....  1.000e-10 Eh
 Primitive CutOff       TCut            ....  1.000e-11 Eh

Convergence Tolerance:
 Convergence Check Mode ConvCheckMode   .... Total+1el-Energy
 Convergence forced     ConvForced      .... 0
 Energy Change          TolE            ....  1.000e-06 Eh
 1-El. energy change                    ....  1.000e-03 Eh
 DIIS Error             TolErr          ....  1.000e-06


Diagonalization of the overlap matrix:
Smallest eigenvalue                        ... 1.460e-04
Time for diagonalization                   ...    0.033 sec
Threshold for overlap eigenvalues          ... 1.000e-08
Number of eigenvalues below threshold      ... 0
Time for construction of square roots      ...    0.059 sec
Total time needed                          ...    0.093 sec

---------------------
INITIAL GUESS: MOREAD
---------------------
Guess MOs are being read from file: EPRII.ges
Input geometry compatible with but different from current geometry
Input basis set matches current basis set (good)
MOs were renormalized
MOs were reorthogonalized (Cholesky)
                      ------------------
                      INITIAL GUESS DONE (   0.2 sec)
                      ------------------
-------------------
DFT GRID GENERATION
-------------------

General Integration Accuracy     IntAcc      ... 4.388
Radial Grid Type                 RadialGrid  ... OptM3 with GC (2021)
Angular Grid (max. ang.)         AngularGrid ... 4 (Lebedev-302)
Angular grid pruning method      GridPruning ... 4 (adaptive)
Weight generation scheme         WeightScheme... Becke
Basis function cutoff            BFCut       ... 1.0000e-10
Integration weight cutoff        WCut        ... 1.0000e-14
Angular grids for H and He will be reduced by one unit
Partially contracted basis set               ... off
Rotationally invariant grid construction     ... off

Total number of grid points                  ...   162623
Total number of batches                      ...     2559
Average number of points per batch           ...       63
Average number of grid points per atom       ...     4395
Time for grid setup =    0.898 sec

--------------------
COSX GRID GENERATION
--------------------

GRIDX 1
-------
General Integration Accuracy     IntAcc      ... 3.816
Radial Grid Type                 RadialGrid  ... OptM3 with GC (2021)
Angular Grid (max. ang.)         AngularGrid ... 1 (Lebedev-50)
Angular grid pruning method      GridPruning ... 4 (adaptive)
Weight generation scheme         WeightScheme... Becke
Basis function cutoff            BFCut       ... 1.0000e-10
Integration weight cutoff        WCut        ... 1.0000e-14
Angular grids for H and He will be reduced by one unit
Partially contracted basis set               ... on
Rotationally invariant grid construction     ... off

Total number of grid points                  ...    20772
Total number of batches                      ...      347
Average number of points per batch           ...       59
Average number of grid points per atom       ...      561
UseSFitting                                  ... on

GRIDX 2
-------
General Integration Accuracy     IntAcc      ... 4.020
Radial Grid Type                 RadialGrid  ... OptM3 with GC (2021)
Angular Grid (max. ang.)         AngularGrid ... 2 (Lebedev-110)
Angular grid pruning method      GridPruning ... 4 (adaptive)
Weight generation scheme         WeightScheme... Becke
Basis function cutoff            BFCut       ... 1.0000e-10
Integration weight cutoff        WCut        ... 1.0000e-14
Angular grids for H and He will be reduced by one unit
Partially contracted basis set               ... on
Rotationally invariant grid construction     ... off

Total number of grid points                  ...    43761
Total number of batches                      ...      702
Average number of points per batch           ...       62
Average number of grid points per atom       ...     1183
UseSFitting                                  ... on

GRIDX 3
-------
General Integration Accuracy     IntAcc      ... 4.338
Radial Grid Type                 RadialGrid  ... OptM3 with GC (2021)
Angular Grid (max. ang.)         AngularGrid ... 3 (Lebedev-194)
Angular grid pruning method      GridPruning ... 4 (adaptive)
Weight generation scheme         WeightScheme... Becke
Basis function cutoff            BFCut       ... 1.0000e-10
Integration weight cutoff        WCut        ... 1.0000e-14
Angular grids for H and He will be reduced by one unit
Partially contracted basis set               ... on
Rotationally invariant grid construction     ... off

Total number of grid points                  ...    95334
Total number of batches                      ...     1508
Average number of points per batch           ...       63
Average number of grid points per atom       ...     2577
UseSFitting                                  ... on

Time for X-Grid setup             =    1.587 sec

--------------
SCF ITERATIONS
--------------
ITER       Energy         Delta-E        Max-DP      RMS-DP      [F,P]     Damp
               ***  Starting incremental Fock matrix formation  ***
  0   -621.9201931091   0.000000000000 0.00243384  0.00004301  0.0041677 0.7000
  1   -621.9204775433  -0.000284434192 0.00239043  0.00003765  0.0032950 0.7000
                               ***Turning on DIIS***
  2   -621.9206904750  -0.000212931688 0.00627818  0.00009389  0.0024723 0.0000
  3   -621.9212100509  -0.000519575918 0.00071286  0.00001468  0.0003270 0.0000
               *** Restarting incremental Fock matrix formation ***
                                   *** Resetting DIIS ***
  4   -621.9212125255  -0.000002474669 0.00096724  0.00001364  0.0004086 0.0000
  5   -621.9212080369   0.000004488653 0.00050215  0.00000755  0.0004906 0.0000
  6   -621.9212192616  -0.000011224684 0.00022114  0.00000185  0.0001712 0.0000
  7   -621.9212190780   0.000000183565 0.00012803  0.00000097  0.0001972 0.0000
                 **** Energy Check signals convergence ****

               *****************************************************
               *                     SUCCESS                       *
               *           SCF CONVERGED AFTER   8 CYCLES          *
               *****************************************************

Old exchange energy                            =    -18.051129751 Eh
New exchange energy                            =    -18.051142340 Eh
Exchange energy change after final integration =     -0.000012589 Eh
Total energy after final integration           =   -621.921231920 Eh
Final COS-X integration done in                =     4.852 sec

----------------
TOTAL SCF ENERGY
----------------

Total Energy       :         -621.92123192 Eh          -16923.33709 eV

Components:
Nuclear Repulsion  :         1002.74667166 Eh           27286.12414 eV
Electronic Energy  :        -1624.66790358 Eh          -44209.46122 eV
One Electron Energy:        -2827.59464273 Eh          -76942.76192 eV
Two Electron Energy:         1202.92673916 Eh           32733.30070 eV
Max COSX asymmetry :            0.00000168 Eh               0.00005 eV

Virial components:
Potential Energy   :        -1238.92378405 Eh          -33712.83009 eV
Kinetic Energy     :          617.00255213 Eh           16789.49300 eV
Virial Ratio       :            2.00797190


DFT components:
N(Alpha)           :       59.000043932531 electrons
N(Beta)            :       58.000038275093 electrons
N(Total)           :      117.000082207624 electrons
E(X)               :      -71.570747832374 Eh       
E(C)               :       -4.510024288963 Eh       
E(XC)              :      -76.080772121337 Eh       
DFET-embed. en.    :        0.000000000000 Eh       

---------------
SCF CONVERGENCE
---------------

  Last Energy change         ...   -2.5237e-07  Tolerance :   1.0000e-06
  Last MAX-Density change    ...    0.0000e+00  Tolerance :   1.0000e-05
  Last RMS-Density change    ...    0.0000e+00  Tolerance :   1.0000e-06
  Last DIIS Error            ...    2.5432e-05  Tolerance :   1.0000e-06

             **** THE GBW FILE WAS UPDATED (EPRII.gbw) ****
             **** DENSITY EPRII.scfp WAS UPDATED ****
             **** ENERGY FILE WAS UPDATED (EPRII.en.tmp) ****
----------------------
UHF SPIN CONTAMINATION
----------------------

Warning: in a DFT calculation there is little theoretical justification to 
         calculate <S**2> as in Hartree-Fock theory. We will do it anyways
         but you should keep in mind that the values have only limited relevance

Expectation value of <S**2>     :     0.785839
Ideal value S*(S+1) for S=0.5   :     0.750000
Deviation                       :     0.035839

             **** THE GBW FILE WAS UPDATED (EPRII.gbw) ****
             **** DENSITY EPRII.scfp WAS UPDATED ****
----------------
ORBITAL ENERGIES
----------------
                 SPIN UP ORBITALS
  NO   OCC          E(Eh)            E(eV) 
   0   1.0000     -10.217742      -278.0389 
   1   1.0000     -10.211396      -277.8662 
   2   1.0000     -10.207356      -277.7563 
   3   1.0000     -10.206795      -277.7410 
   4   1.0000     -10.203683      -277.6563 
   5   1.0000     -10.200745      -277.5764 
   6   1.0000     -10.193346      -277.3750 
   7   1.0000     -10.192304      -277.3467 
   8   1.0000     -10.190169      -277.2886 
   9   1.0000     -10.187131      -277.2059 
  10   1.0000     -10.185715      -277.1674 
  11   1.0000     -10.184215      -277.1266 
  12   1.0000     -10.181339      -277.0483 
  13   1.0000     -10.180959      -277.0380 
  14   1.0000     -10.173824      -276.8438 
  15   1.0000     -10.171384      -276.7774 
  16   1.0000      -0.866977       -23.5916 
  17   1.0000      -0.812279       -22.1032 
  18   1.0000      -0.794850       -21.6290 
  19   1.0000      -0.774633       -21.0788 
  20   1.0000      -0.763028       -20.7631 
  21   1.0000      -0.731335       -19.9006 
  22   1.0000      -0.723012       -19.6742 
  23   1.0000      -0.684280       -18.6202 
  24   1.0000      -0.669167       -18.2089 
  25   1.0000      -0.624839       -17.0027 
  26   1.0000      -0.611596       -16.6424 
  27   1.0000      -0.592244       -16.1158 
  28   1.0000      -0.577527       -15.7153 
  29   1.0000      -0.565743       -15.3947 
  30   1.0000      -0.527204       -14.3459 
  31   1.0000      -0.494077       -13.4445 
  32   1.0000      -0.489370       -13.3164 
  33   1.0000      -0.470928       -12.8146 
  34   1.0000      -0.457674       -12.4539 
  35   1.0000      -0.448413       -12.2019 
  36   1.0000      -0.428913       -11.6713 
  37   1.0000      -0.422404       -11.4942 
  38   1.0000      -0.420730       -11.4486 
  39   1.0000      -0.417108       -11.3501 
  40   1.0000      -0.411286       -11.1917 
  41   1.0000      -0.401090       -10.9142 
  42   1.0000      -0.386530       -10.5180 
  43   1.0000      -0.381870       -10.3912 
  44   1.0000      -0.374748       -10.1974 
  45   1.0000      -0.365985        -9.9590 
  46   1.0000      -0.352551        -9.5934 
  47   1.0000      -0.352083        -9.5807 
  48   1.0000      -0.339889        -9.2488 
  49   1.0000      -0.334036        -9.0896 
  50   1.0000      -0.329966        -8.9788 
  51   1.0000      -0.324923        -8.8416 
  52   1.0000      -0.321271        -8.7422 
  53   1.0000      -0.320734        -8.7276 
  54   1.0000      -0.305996        -8.3266 
  55   1.0000      -0.275737        -7.5032 
  56   1.0000      -0.273186        -7.4338 
  57   1.0000      -0.233792        -6.3618 
  58   1.0000      -0.178684        -4.8623 
  59   0.0000      -0.033796        -0.9196 
  60   0.0000       0.006110         0.1663 
  61   0.0000       0.017087         0.4650 
  62   0.0000       0.023361         0.6357 
  63   0.0000       0.025444         0.6924 
  64   0.0000       0.037048         1.0081 
  65   0.0000       0.038854         1.0573 
  66   0.0000       0.042814         1.1650 
  67   0.0000       0.046352         1.2613 
  68   0.0000       0.050196         1.3659 
  69   0.0000       0.061488         1.6732 
  70   0.0000       0.073391         1.9971 
  71   0.0000       0.076820         2.0904 
  72   0.0000       0.085665         2.3311 
  73   0.0000       0.096449         2.6245 
  74   0.0000       0.112690         3.0665 
  75   0.0000       0.121377         3.3028 
  76   0.0000       0.131002         3.5648 
  77   0.0000       0.143027         3.8920 
  78   0.0000       0.151674         4.1273 
  79   0.0000       0.157935         4.2976 
  80   0.0000       0.169072         4.6007 
  81   0.0000       0.176401         4.8001 
  82   0.0000       0.184187         5.0120 
  83   0.0000       0.187020         5.0891 
  84   0.0000       0.192522         5.2388 
  85   0.0000       0.196191         5.3386 
  86   0.0000       0.199011         5.4154 
  87   0.0000       0.200661         5.4603 
  88   0.0000       0.203130         5.5275 
  89   0.0000       0.214236         5.8297 
  90   0.0000       0.215620         5.8673 
  91   0.0000       0.218041         5.9332 
  92   0.0000       0.220326         5.9954 
  93   0.0000       0.224163         6.0998 
  94   0.0000       0.229730         6.2513 
  95   0.0000       0.236407         6.4330 
  96   0.0000       0.239218         6.5095 
  97   0.0000       0.246642         6.7115 
  98   0.0000       0.253731         6.9044 
  99   0.0000       0.260205         7.0805 
 100   0.0000       0.267346         7.2749 
 101   0.0000       0.268343         7.3020 
 102   0.0000       0.278630         7.5819 
 103   0.0000       0.282037         7.6746 
 104   0.0000       0.286489         7.7958 
 105   0.0000       0.287781         7.8309 
 106   0.0000       0.290834         7.9140 
 107   0.0000       0.294359         8.0099 
 108   0.0000       0.298645         8.1265 
 109   0.0000       0.303198         8.2504 
 110   0.0000       0.308993         8.4081 
 111   0.0000       0.314171         8.5490 
 112   0.0000       0.322053         8.7635 
 113   0.0000       0.330352         8.9893 
 114   0.0000       0.332010         9.0345 
 115   0.0000       0.338662         9.2155 
 116   0.0000       0.345801         9.4097 
 117   0.0000       0.351797         9.5729 
 118   0.0000       0.356006         9.6874 
 119   0.0000       0.360505         9.8099 
 120   0.0000       0.365001         9.9322 
 121   0.0000       0.370385        10.0787 
 122   0.0000       0.372806        10.1446 
 123   0.0000       0.380692        10.3592 
 124   0.0000       0.398042        10.8313 
 125   0.0000       0.403123        10.9695 
 126   0.0000       0.411377        11.1941 
 127   0.0000       0.414464        11.2782 
 128   0.0000       0.423685        11.5291 
 129   0.0000       0.430078        11.7030 
 130   0.0000       0.437614        11.9081 
 131   0.0000       0.443069        12.0565 
 132   0.0000       0.445492        12.1224 
 133   0.0000       0.449317        12.2265 
 134   0.0000       0.463438        12.6108 
 135   0.0000       0.471460        12.8291 
 136   0.0000       0.475894        12.9497 
 137   0.0000       0.484508        13.1841 
 138   0.0000       0.488289        13.2870 
 139   0.0000       0.499077        13.5806 
 140   0.0000       0.499527        13.5928 
 141   0.0000       0.504397        13.7253 
 142   0.0000       0.510476        13.8908 
 143   0.0000       0.529837        14.4176 
 144   0.0000       0.540617        14.7109 
 145   0.0000       0.546183        14.8624 
 146   0.0000       0.555967        15.1286 
 147   0.0000       0.561731        15.2855 
 148   0.0000       0.573930        15.6174 
 149   0.0000       0.583850        15.8874 
 150   0.0000       0.591158        16.0862 
 151   0.0000       0.595089        16.1932 
 152   0.0000       0.604850        16.4588 
 153   0.0000       0.615107        16.7379 
 154   0.0000       0.621418        16.9097 
 155   0.0000       0.638270        17.3682 
 156   0.0000       0.657774        17.8989 
 157   0.0000       0.672486        18.2993 
 158   0.0000       0.689657        18.7665 
 159   0.0000       0.718741        19.5579 
 160   0.0000       0.766014        20.8443 
 161   0.0000       0.775039        21.0899 
 162   0.0000       0.780556        21.2400 
 163   0.0000       0.786960        21.4143 
 164   0.0000       0.808516        22.0008 
 165   0.0000       0.818269        22.2662 
 166   0.0000       0.823469        22.4077 
 167   0.0000       0.835404        22.7325 
 168   0.0000       0.847912        23.0729 
 169   0.0000       0.853364        23.2212 
 170   0.0000       0.863360        23.4932 
 171   0.0000       0.872533        23.7428 
 172   0.0000       0.872898        23.7528 
 173   0.0000       0.886248        24.1160 
 174   0.0000       0.888812        24.1858 
 175   0.0000       0.901240        24.5240 
 176   0.0000       0.904921        24.6242 
 177   0.0000       0.919740        25.0274 
 178   0.0000       0.921298        25.0698 
 179   0.0000       0.924674        25.1617 
 180   0.0000       0.928593        25.2683 
 181   0.0000       0.937387        25.5076 
 182   0.0000       0.939525        25.5658 
 183   0.0000       0.945803        25.7366 
 184   0.0000       0.949953        25.8495 
 185   0.0000       0.959254        26.1026 
 186   0.0000       0.969762        26.3886 
 187   0.0000       0.971099        26.4250 
 188   0.0000       0.976807        26.5803 
 189   0.0000       0.992640        27.0111 
 190   0.0000       0.996978        27.1292 
 191   0.0000       1.006128        27.3781 
 192   0.0000       1.013493        27.5786 
 193   0.0000       1.016051        27.6481 
 194   0.0000       1.023227        27.8434 
 195   0.0000       1.026872        27.9426 
 196   0.0000       1.052291        28.6343 
 197   0.0000       1.054085        28.6831 
 198   0.0000       1.057867        28.7860 
 199   0.0000       1.065904        29.0047 
 200   0.0000       1.068951        29.0876 
 201   0.0000       1.088382        29.6164 
 202   0.0000       1.092434        29.7267 
 203   0.0000       1.100068        29.9344 
 204   0.0000       1.108508        30.1640 
 205   0.0000       1.111301        30.2400 
 206   0.0000       1.134981        30.8844 
 207   0.0000       1.148873        31.2624 
 208   0.0000       1.167475        31.7686 
 209   0.0000       1.177210        32.0335 
 210   0.0000       1.179618        32.0990 
 211   0.0000       1.192977        32.4626 
 212   0.0000       1.202235        32.7145 
 213   0.0000       1.208340        32.8806 
 214   0.0000       1.224527        33.3211 
 215   0.0000       1.242254        33.8034 
 216   0.0000       1.248212        33.9656 
 217   0.0000       1.258656        34.2498 
 218   0.0000       1.263151        34.3721 
 219   0.0000       1.276100        34.7245 
 220   0.0000       1.287203        35.0266 
 221   0.0000       1.311242        35.6807 
 222   0.0000       1.320215        35.9249 
 223   0.0000       1.340778        36.4844 
 224   0.0000       1.346917        36.6515 
 225   0.0000       1.357736        36.9459 
 226   0.0000       1.380032        37.5526 
 227   0.0000       1.383844        37.6563 
 228   0.0000       1.395473        37.9728 
 229   0.0000       1.403822        38.1999 
 230   0.0000       1.419215        38.6188 
 231   0.0000       1.425050        38.7776 
 232   0.0000       1.430166        38.9168 
 233   0.0000       1.436480        39.0886 
 234   0.0000       1.442287        39.2466 
 235   0.0000       1.452728        39.5307 
 236   0.0000       1.458499        39.6878 
 237   0.0000       1.474180        40.1145 
 238   0.0000       1.480905        40.2975 
 239   0.0000       1.498440        40.7746 
 240   0.0000       1.500810        40.8391 
 241   0.0000       1.517732        41.2996 
 242   0.0000       1.524186        41.4752 
 243   0.0000       1.526819        41.5469 
 244   0.0000       1.544702        42.0335 
 245   0.0000       1.556927        42.3661 
 246   0.0000       1.563314        42.5399 
 247   0.0000       1.574063        42.8324 
 248   0.0000       1.581061        43.0229 
 249   0.0000       1.590625        43.2831 
 250   0.0000       1.597022        43.4572 
 251   0.0000       1.605674        43.6926 
 252   0.0000       1.607384        43.7392 
 253   0.0000       1.615702        43.9655 
 254   0.0000       1.621608        44.1262 
 255   0.0000       1.634705        44.4826 
 256   0.0000       1.639267        44.6067 
 257   0.0000       1.645854        44.7860 
 258   0.0000       1.651498        44.9396 
 259   0.0000       1.670822        45.4654 
 260   0.0000       1.678037        45.6617 
 261   0.0000       1.687928        45.9309 
 262   0.0000       1.700095        46.2619 
 263   0.0000       1.705604        46.4118 
 264   0.0000       1.718754        46.7697 
 265   0.0000       1.723532        46.8997 
 266   0.0000       1.726235        46.9732 
 267   0.0000       1.733878        47.1812 
 268   0.0000       1.750230        47.6262 
 269   0.0000       1.752526        47.6887 
 270   0.0000       1.762168        47.9510 
 271   0.0000       1.766635        48.0726 
 272   0.0000       1.774823        48.2954 
 273   0.0000       1.788022        48.6546 
 274   0.0000       1.791798        48.7573 
 275   0.0000       1.806416        49.1551 
 276   0.0000       1.815823        49.4111 
 277   0.0000       1.825787        49.6822 
 278   0.0000       1.840517        50.0830 
 279   0.0000       1.857814        50.5537 
 280   0.0000       1.867419        50.8150 
 281   0.0000       1.884708        51.2855 
 282   0.0000       1.912082        52.0304 
 283   0.0000       1.919894        52.2430 
 284   0.0000       1.929625        52.5078 
 285   0.0000       1.941726        52.8371 
 286   0.0000       1.952921        53.1417 
 287   0.0000       1.966668        53.5158 
 288   0.0000       1.977176        53.8017 
 289   0.0000       2.016437        54.8700 
 290   0.0000       2.043244        55.5995 
 291   0.0000       2.046762        55.6952 
 292   0.0000       2.055846        55.9424 
 293   0.0000       2.064596        56.1805 
 294   0.0000       2.080287        56.6075 
 295   0.0000       2.101577        57.1868 
 296   0.0000       2.107495        57.3478 
 297   0.0000       2.123381        57.7801 
 298   0.0000       2.157707        58.7142 
 299   0.0000       2.169977        59.0481 
 300   0.0000       2.191408        59.6312 
 301   0.0000       2.212462        60.2042 
 302   0.0000       2.228494        60.6404 
 303   0.0000       2.238137        60.9028 
 304   0.0000       2.239147        60.9303 
 305   0.0000       2.258897        61.4677 
 306   0.0000       2.262484        61.5653 
 307   0.0000       2.268029        61.7162 
 308   0.0000       2.280114        62.0451 
 309   0.0000       2.299045        62.5602 
 310   0.0000       2.315728        63.0142 
 311   0.0000       2.322732        63.2048 
 312   0.0000       2.329713        63.3947 
 313   0.0000       2.336613        63.5825 
 314   0.0000       2.353079        64.0305 
 315   0.0000       2.360346        64.2283 
 316   0.0000       2.394635        65.1613 
 317   0.0000       2.415357        65.7252 
 318   0.0000       2.420488        65.8648 
 319   0.0000       2.437204        66.3197 
 320   0.0000       2.451157        66.6994 
 321   0.0000       2.460343        66.9493 
 322   0.0000       2.462870        67.0181 
 323   0.0000       2.481866        67.5350 
 324   0.0000       2.488711        67.7213 
 325   0.0000       2.490125        67.7598 
 326   0.0000       2.513956        68.4082 
 327   0.0000       2.521852        68.6231 
 328   0.0000       2.538260        69.0696 
 329   0.0000       2.543644        69.2161 
 330   0.0000       2.558767        69.6276 
 331   0.0000       2.572969        70.0140 
 332   0.0000       2.584378        70.3245 
 333   0.0000       2.592304        70.5402 
 334   0.0000       2.610569        71.0372 
 335   0.0000       2.623751        71.3959 
 336   0.0000       2.628242        71.5181 
 337   0.0000       2.642415        71.9038 
 338   0.0000       2.724757        74.1444 
 339   0.0000       2.760019        75.1039 
 340   0.0000       2.793902        76.0259 
 341   0.0000       2.866560        78.0031 
 342   0.0000       2.942821        80.0782 
 343   0.0000       2.963963        80.6535 
 344   0.0000       3.250909        88.4617 
 345   0.0000       4.991186       135.8171 
 346   0.0000       5.003919       136.1636 
 347   0.0000       5.011319       136.3649 
 348   0.0000       5.014106       136.4408 
 349   0.0000       5.015827       136.4876 
 350   0.0000       5.021939       136.6539 
 351   0.0000       5.037643       137.0812 
 352   0.0000       5.049259       137.3973 
 353   0.0000       5.052784       137.4932 
 354   0.0000       5.085411       138.3811 
 355   0.0000       5.106461       138.9539 
 356   0.0000       5.226989       142.2336 
 357   0.0000       5.234822       142.4467 
 358   0.0000       5.235713       142.4710 
 359   0.0000       5.275782       143.5613 
 360   0.0000       5.287477       143.8796 
 361   0.0000       5.295743       144.1045 
 362   0.0000       5.312388       144.5574 
 363   0.0000       5.316360       144.6655 
 364   0.0000       5.326065       144.9296 
 365   0.0000       5.362398       145.9183 
 366   0.0000       5.375345       146.2706 
 367   0.0000       5.396828       146.8551 
 368   0.0000       5.417682       147.4226 
 369   0.0000       5.483653       149.2178 
 370   0.0000       5.545359       150.8969 
 371   0.0000       5.569445       151.5523 
 372   0.0000       5.608199       152.6069 
 373   0.0000       5.622495       152.9959 
 374   0.0000       5.666808       154.2017 
 375   0.0000       5.707648       155.3130 
 376   0.0000       5.738219       156.1449 
 377   0.0000       5.796739       157.7373 
 378   0.0000       5.841404       158.9527 
 379   0.0000       5.868484       159.6896 
 380   0.0000       6.055961       164.7911 
 381   0.0000       6.327574       172.1820 
 382   0.0000      29.625817       806.1595 
 383   0.0000      29.787504       810.5592 
 384   0.0000      29.836255       811.8858 
 385   0.0000      29.917556       814.0981 
 386   0.0000      29.973043       815.6080 
 387   0.0000      29.986257       815.9675 
 388   0.0000      30.048913       817.6725 
 389   0.0000      30.069495       818.2326 
 390   0.0000      30.088104       818.7389 
 391   0.0000      30.109780       819.3288 
 392   0.0000      30.148523       820.3830 
 393   0.0000      30.209031       822.0295 
 394   0.0000      30.249286       823.1249 
 395   0.0000      30.278763       823.9270 
 396   0.0000      30.356119       826.0320 
 397   0.0000      30.550653       831.3255 
 398   0.0000      36.617903       996.4238 
 399   0.0000      36.632553       996.8224 
 400   0.0000      36.634256       996.8688 
 401   0.0000      36.637543       996.9582 
 402   0.0000      36.641849       997.0754 
 403   0.0000      36.662816       997.6459 
 404   0.0000      36.674796       997.9719 
 405   0.0000      36.678280       998.0667 
 406   0.0000      36.708499       998.8890 
 407   0.0000      36.718190       999.1527 
 408   0.0000      36.823597      1002.0210 
 409   0.0000      36.847783      1002.6792 
 410   0.0000      36.853789      1002.8426 
 411   0.0000      36.879348      1003.5381 
 412   0.0000      36.882301      1003.6184 
 413   0.0000      36.888767      1003.7944 
 414   0.0000      36.917344      1004.5720 
 415   0.0000      36.937015      1005.1073 
 416   0.0000      36.938105      1005.1369 
 417   0.0000      36.969142      1005.9815 
 418   0.0000      37.015366      1007.2393 

                 SPIN DOWN ORBITALS
  NO   OCC          E(Eh)            E(eV) 
   0   1.0000     -10.219376      -278.0834 
   1   1.0000     -10.209362      -277.8109 
   2   1.0000     -10.207615      -277.7633 
   3   1.0000     -10.203695      -277.6566 
   4   1.0000     -10.203251      -277.6446 
   5   1.0000     -10.197389      -277.4851 
   6   1.0000     -10.193994      -277.3927 
   7   1.0000     -10.191812      -277.3333 
   8   1.0000     -10.187363      -277.2122 
   9   1.0000     -10.185927      -277.1732 
  10   1.0000     -10.183943      -277.1192 
  11   1.0000     -10.182341      -277.0756 
  12   1.0000     -10.181337      -277.0483 
  13   1.0000     -10.180960      -277.0380 
  14   1.0000     -10.173810      -276.8434 
  15   1.0000     -10.171385      -276.7775 
  16   1.0000      -0.863294       -23.4914 
  17   1.0000      -0.809121       -22.0173 
  18   1.0000      -0.793917       -21.6036 
  19   1.0000      -0.771486       -20.9932 
  20   1.0000      -0.761445       -20.7200 
  21   1.0000      -0.729413       -19.8483 
  22   1.0000      -0.719277       -19.5725 
  23   1.0000      -0.682114       -18.5613 
  24   1.0000      -0.661805       -18.0086 
  25   1.0000      -0.618658       -16.8345 
  26   1.0000      -0.609088       -16.5741 
  27   1.0000      -0.590572       -16.0703 
  28   1.0000      -0.576637       -15.6911 
  29   1.0000      -0.564245       -15.3539 
  30   1.0000      -0.525392       -14.2966 
  31   1.0000      -0.492469       -13.4008 
  32   1.0000      -0.487431       -13.2637 
  33   1.0000      -0.470035       -12.7903 
  34   1.0000      -0.455441       -12.3932 
  35   1.0000      -0.447769       -12.1844 
  36   1.0000      -0.427624       -11.6362 
  37   1.0000      -0.419626       -11.4186 
  38   1.0000      -0.419447       -11.4137 
  39   1.0000      -0.414899       -11.2900 
  40   1.0000      -0.409265       -11.1367 
  41   1.0000      -0.397719       -10.8225 
  42   1.0000      -0.383839       -10.4448 
  43   1.0000      -0.379579       -10.3289 
  44   1.0000      -0.371835       -10.1181 
  45   1.0000      -0.364908        -9.9296 
  46   1.0000      -0.351346        -9.5606 
  47   1.0000      -0.348903        -9.4941 
  48   1.0000      -0.338492        -9.2108 
  49   1.0000      -0.333373        -9.0715 
  50   1.0000      -0.329320        -8.9612 
  51   1.0000      -0.324281        -8.8241 
  52   1.0000      -0.320325        -8.7165 
  53   1.0000      -0.319927        -8.7057 
  54   1.0000      -0.301233        -8.1970 
  55   1.0000      -0.273091        -7.4312 
  56   1.0000      -0.257903        -7.0179 
  57   1.0000      -0.225710        -6.1419 
  58   0.0000      -0.083438        -2.2705 
  59   0.0000      -0.023527        -0.6402 
  60   0.0000       0.017055         0.4641 
  61   0.0000       0.020597         0.5605 
  62   0.0000       0.023761         0.6466 
  63   0.0000       0.025986         0.7071 
  64   0.0000       0.038079         1.0362 
  65   0.0000       0.038949         1.0598 
  66   0.0000       0.043344         1.1794 
  67   0.0000       0.046675         1.2701 
  68   0.0000       0.052302         1.4232 
  69   0.0000       0.062198         1.6925 
  70   0.0000       0.073547         2.0013 
  71   0.0000       0.077459         2.1078 
  72   0.0000       0.089524         2.4361 
  73   0.0000       0.097067         2.6413 
  74   0.0000       0.113265         3.0821 
  75   0.0000       0.121888         3.3167 
  76   0.0000       0.132133         3.5955 
  77   0.0000       0.143868         3.9148 
  78   0.0000       0.154757         4.2112 
  79   0.0000       0.159852         4.3498 
  80   0.0000       0.170669         4.6441 
  81   0.0000       0.177278         4.8240 
  82   0.0000       0.184442         5.0189 
  83   0.0000       0.187807         5.1105 
  84   0.0000       0.193320         5.2605 
  85   0.0000       0.197707         5.3799 
  86   0.0000       0.199342         5.4244 
  87   0.0000       0.201032         5.4704 
  88   0.0000       0.204363         5.5610 
  89   0.0000       0.215816         5.8727 
  90   0.0000       0.217210         5.9106 
  91   0.0000       0.218776         5.9532 
  92   0.0000       0.221335         6.0228 
  93   0.0000       0.224721         6.1150 
  94   0.0000       0.231688         6.3046 
  95   0.0000       0.237566         6.4645 
  96   0.0000       0.239777         6.5247 
  97   0.0000       0.248241         6.7550 
  98   0.0000       0.254436         6.9236 
  99   0.0000       0.261236         7.1086 
 100   0.0000       0.269764         7.3406 
 101   0.0000       0.270318         7.3557 
 102   0.0000       0.278881         7.5887 
 103   0.0000       0.284659         7.7460 
 104   0.0000       0.287713         7.8291 
 105   0.0000       0.288848         7.8600 
 106   0.0000       0.293413         7.9842 
 107   0.0000       0.295185         8.0324 
 108   0.0000       0.299832         8.1588 
 109   0.0000       0.305244         8.3061 
 110   0.0000       0.310387         8.4461 
 111   0.0000       0.315121         8.5749 
 112   0.0000       0.324255         8.8234 
 113   0.0000       0.331423         9.0185 
 114   0.0000       0.336660         9.1610 
 115   0.0000       0.343698         9.3525 
 116   0.0000       0.346535         9.4297 
 117   0.0000       0.353905         9.6302 
 118   0.0000       0.357940         9.7400 
 119   0.0000       0.365180         9.9371 
 120   0.0000       0.366470         9.9722 
 121   0.0000       0.371293        10.1034 
 122   0.0000       0.375664        10.2223 
 123   0.0000       0.390769        10.6334 
 124   0.0000       0.400310        10.8930 
 125   0.0000       0.404011        10.9937 
 126   0.0000       0.412902        11.2356 
 127   0.0000       0.416221        11.3260 
 128   0.0000       0.430745        11.7212 
 129   0.0000       0.431105        11.7310 
 130   0.0000       0.439564        11.9611 
 131   0.0000       0.444395        12.0926 
 132   0.0000       0.448019        12.1912 
 133   0.0000       0.450553        12.2602 
 134   0.0000       0.464118        12.6293 
 135   0.0000       0.472149        12.8478 
 136   0.0000       0.477632        12.9970 
 137   0.0000       0.484456        13.1827 
 138   0.0000       0.489761        13.3271 
 139   0.0000       0.498526        13.5656 
 140   0.0000       0.501558        13.6481 
 141   0.0000       0.506507        13.7828 
 142   0.0000       0.514450        13.9989 
 143   0.0000       0.531245        14.4559 
 144   0.0000       0.542208        14.7542 
 145   0.0000       0.547883        14.9087 
 146   0.0000       0.558472        15.1968 
 147   0.0000       0.562442        15.3048 
 148   0.0000       0.574754        15.6398 
 149   0.0000       0.584124        15.8948 
 150   0.0000       0.592135        16.1128 
 151   0.0000       0.596271        16.2253 
 152   0.0000       0.606586        16.5061 
 153   0.0000       0.616118        16.7654 
 154   0.0000       0.623951        16.9786 
 155   0.0000       0.644244        17.5308 
 156   0.0000       0.659436        17.9442 
 157   0.0000       0.674274        18.3479 
 158   0.0000       0.691054        18.8045 
 159   0.0000       0.720172        19.5969 
 160   0.0000       0.767555        20.8862 
 161   0.0000       0.775720        21.1084 
 162   0.0000       0.783880        21.3305 
 163   0.0000       0.788344        21.4519 
 164   0.0000       0.809238        22.0205 
 165   0.0000       0.819537        22.3007 
 166   0.0000       0.825699        22.4684 
 167   0.0000       0.837105        22.7788 
 168   0.0000       0.848255        23.0822 
 169   0.0000       0.855203        23.2713 
 170   0.0000       0.864352        23.5202 
 171   0.0000       0.872871        23.7520 
 172   0.0000       0.873823        23.7779 
 173   0.0000       0.889743        24.2111 
 174   0.0000       0.890304        24.2264 
 175   0.0000       0.905005        24.6264 
 176   0.0000       0.906841        24.6764 
 177   0.0000       0.922597        25.1052 
 178   0.0000       0.924560        25.1586 
 179   0.0000       0.925355        25.1802 
 180   0.0000       0.931238        25.3403 
 181   0.0000       0.939139        25.5553 
 182   0.0000       0.940655        25.5965 
 183   0.0000       0.946864        25.7655 
 184   0.0000       0.951752        25.8985 
 185   0.0000       0.962813        26.1995 
 186   0.0000       0.970429        26.4067 
 187   0.0000       0.975383        26.5415 
 188   0.0000       0.979609        26.6565 
 189   0.0000       0.993357        27.0306 
 190   0.0000       0.999258        27.1912 
 191   0.0000       1.011031        27.5116 
 192   0.0000       1.015636        27.6369 
 193   0.0000       1.021761        27.8035 
 194   0.0000       1.024160        27.8688 
 195   0.0000       1.028133        27.9769 
 196   0.0000       1.055844        28.7310 
 197   0.0000       1.056651        28.7529 
 198   0.0000       1.062194        28.9038 
 199   0.0000       1.066786        29.0287 
 200   0.0000       1.072062        29.1723 
 201   0.0000       1.090838        29.6832 
 202   0.0000       1.093740        29.7622 
 203   0.0000       1.105420        30.0800 
 204   0.0000       1.110020        30.2052 
 205   0.0000       1.111749        30.2522 
 206   0.0000       1.136947        30.9379 
 207   0.0000       1.149489        31.2792 
 208   0.0000       1.170132        31.8409 
 209   0.0000       1.177960        32.0539 
 210   0.0000       1.180366        32.1194 
 211   0.0000       1.194878        32.5143 
 212   0.0000       1.202466        32.7208 
 213   0.0000       1.208857        32.8947 
 214   0.0000       1.225166        33.3385 
 215   0.0000       1.243632        33.8409 
 216   0.0000       1.249725        34.0068 
 217   0.0000       1.260644        34.3039 
 218   0.0000       1.264873        34.4190 
 219   0.0000       1.278170        34.7808 
 220   0.0000       1.289355        35.0851 
 221   0.0000       1.312072        35.7033 
 222   0.0000       1.322310        35.9819 
 223   0.0000       1.342720        36.5373 
 224   0.0000       1.349561        36.7234 
 225   0.0000       1.358499        36.9666 
 226   0.0000       1.383976        37.6599 
 227   0.0000       1.386532        37.7294 
 228   0.0000       1.396622        38.0040 
 229   0.0000       1.404566        38.2202 
 230   0.0000       1.421450        38.6796 
 231   0.0000       1.427510        38.8445 
 232   0.0000       1.430584        38.9282 
 233   0.0000       1.436682        39.0941 
 234   0.0000       1.443438        39.2779 
 235   0.0000       1.453203        39.5437 
 236   0.0000       1.458919        39.6992 
 237   0.0000       1.474672        40.1279 
 238   0.0000       1.483492        40.3679 
 239   0.0000       1.498779        40.7839 
 240   0.0000       1.502597        40.8877 
 241   0.0000       1.519824        41.3565 
 242   0.0000       1.524900        41.4946 
 243   0.0000       1.528041        41.5801 
 244   0.0000       1.545112        42.0446 
 245   0.0000       1.557764        42.3889 
 246   0.0000       1.564178        42.5635 
 247   0.0000       1.575695        42.8768 
 248   0.0000       1.585236        43.1365 
 249   0.0000       1.591412        43.3045 
 250   0.0000       1.598651        43.5015 
 251   0.0000       1.606236        43.7079 
 252   0.0000       1.608593        43.7721 
 253   0.0000       1.618300        44.0362 
 254   0.0000       1.623508        44.1779 
 255   0.0000       1.635592        44.5067 
 256   0.0000       1.641074        44.6559 
 257   0.0000       1.646726        44.8097 
 258   0.0000       1.652890        44.9774 
 259   0.0000       1.675901        45.6036 
 260   0.0000       1.679717        45.7074 
 261   0.0000       1.688885        45.9569 
 262   0.0000       1.701054        46.2880 
 263   0.0000       1.707012        46.4502 
 264   0.0000       1.720532        46.8181 
 265   0.0000       1.726105        46.9697 
 266   0.0000       1.727441        47.0061 
 267   0.0000       1.735399        47.2226 
 268   0.0000       1.753764        47.7223 
 269   0.0000       1.754961        47.7549 
 270   0.0000       1.764198        48.0063 
 271   0.0000       1.770679        48.1826 
 272   0.0000       1.777437        48.3665 
 273   0.0000       1.789060        48.6828 
 274   0.0000       1.798461        48.9386 
 275   0.0000       1.811592        49.2959 
 276   0.0000       1.818852        49.4935 
 277   0.0000       1.831381        49.8344 
 278   0.0000       1.843997        50.1777 
 279   0.0000       1.858709        50.5780 
 280   0.0000       1.871251        50.9193 
 281   0.0000       1.886151        51.3248 
 282   0.0000       1.913425        52.0669 
 283   0.0000       1.921899        52.2975 
 284   0.0000       1.936624        52.6982 
 285   0.0000       1.942802        52.8663 
 286   0.0000       1.953379        53.1542 
 287   0.0000       1.968611        53.5686 
 288   0.0000       1.985969        54.0410 
 289   0.0000       2.019140        54.9436 
 290   0.0000       2.043898        55.6173 
 291   0.0000       2.048457        55.7413 
 292   0.0000       2.056533        55.9611 
 293   0.0000       2.065780        56.2127 
 294   0.0000       2.081577        56.6426 
 295   0.0000       2.102893        57.2226 
 296   0.0000       2.108435        57.3734 
 297   0.0000       2.126483        57.8646 
 298   0.0000       2.158207        58.7278 
 299   0.0000       2.172083        59.1054 
 300   0.0000       2.192533        59.6619 
 301   0.0000       2.215364        60.2831 
 302   0.0000       2.229249        60.6609 
 303   0.0000       2.241085        60.9830 
 304   0.0000       2.242421        61.0194 
 305   0.0000       2.259450        61.4828 
 306   0.0000       2.263083        61.5816 
 307   0.0000       2.268737        61.7355 
 308   0.0000       2.281274        62.0766 
 309   0.0000       2.301301        62.6216 
 310   0.0000       2.316616        63.0383 
 311   0.0000       2.323569        63.2275 
 312   0.0000       2.329930        63.4006 
 313   0.0000       2.337274        63.6005 
 314   0.0000       2.354300        64.0637 
 315   0.0000       2.360629        64.2360 
 316   0.0000       2.397055        65.2272 
 317   0.0000       2.416032        65.7436 
 318   0.0000       2.420615        65.8683 
 319   0.0000       2.437729        66.3340 
 320   0.0000       2.451548        66.7100 
 321   0.0000       2.461075        66.9692 
 322   0.0000       2.463060        67.0233 
 323   0.0000       2.482002        67.5387 
 324   0.0000       2.488801        67.7237 
 325   0.0000       2.490443        67.7684 
 326   0.0000       2.514685        68.4281 
 327   0.0000       2.522638        68.6445 
 328   0.0000       2.538625        69.0795 
 329   0.0000       2.544301        69.2339 
 330   0.0000       2.559758        69.6546 
 331   0.0000       2.573384        70.0253 
 332   0.0000       2.585769        70.3624 
 333   0.0000       2.593636        70.5764 
 334   0.0000       2.610996        71.0488 
 335   0.0000       2.624294        71.4107 
 336   0.0000       2.628980        71.5382 
 337   0.0000       2.643498        71.9332 
 338   0.0000       2.726063        74.1799 
 339   0.0000       2.761315        75.1392 
 340   0.0000       2.794893        76.0529 
 341   0.0000       2.867771        78.0360 
 342   0.0000       2.944897        80.1347 
 343   0.0000       2.963238        80.6338 
 344   0.0000       3.252589        88.5074 
 345   0.0000       4.991497       135.8255 
 346   0.0000       5.004829       136.1883 
 347   0.0000       5.011663       136.3743 
 348   0.0000       5.014248       136.4446 
 349   0.0000       5.017268       136.5268 
[...]
 A(ORB)          0.0000               0.0000               0.0001    A(PC) =   0.0000
 A(DIA)          0.0001               0.0000               0.0000    A(PC) =   0.0000
             ----------           ----------           ----------
 A(Tot)         -0.1152              -0.1308               0.4172    A(iso)=    0.0571
 Orientation: 
  X           0.9748322           -0.2038530            0.0902559
  Y          -0.0725367            0.0927953            0.9930395
  Z          -0.2108094           -0.9745937            0.0756731

Notes:  (1) The A matrix conforms to the "SAI" spin Hamiltonian convention.
        (2) Tensor is right-handed.

 -----------------------------------------------------------
 Nucleus  34H : A:ISTP=    1 I=  0.5 P=533.5514 MHz/au**3
                Q:ISTP=    2 I=  1.0 Q=  0.0029 barn     
 -----------------------------------------------------------
 Solving for nuclear perturbation:
Forming RHS of the CP-SCF equations         ... 
Calc. nucleus orbit integrals (SHARK)       ... done

------------------------------------------------------------------------------
                           ORCA CP-SCF CALCULATION
------------------------------------------------------------------------------

Input orbitals are from        ... EPRII.gbw
Input Perturbation             ... EPRII.pin.tmp
Wavefunction output            ... EPRII.pout.tmp
Perturbation mode              ... Imaginary perturbation
Solver                         ... POPLE
Max. number of iterations      ... 64
Convergence tolerance          ... 1.000e-03
Integral handling              ... Direct
DFT GridXC                     ... 1
COSX GridX                     ... 1
COSX IntAccX                   ... 3.067
COSX Algorithm                 ... Auto
Number of perturbations        ... 3
Number of operators            ... 2
Orbital ranges used for CP-SCF:
 Operator 0:  Orbitals   0... 58  to  59...418
 Operator 1:  Orbitals   0... 57  to  58...418
Variables per perturbation     ... 42178
DFT calculation                         ... on
XC functional terms                     ... off
Hybrid DFT                              ... on
   Exchange mixing (SCF)                ...  0.200
   Exchange mixing (CP-SCF)             ...  0.200
   GGA exch. scaling(SCF)               ...  0.720
   GGA exch. scaling (CP-SCF)           ...  0.720
   GGA corr. scaling (SCF)              ...  0.810
   GGA corr. scaling (CP-SCF)           ...  0.810

CP-SCF GRID
-----------

General Integration Accuracy     IntAcc      ... 3.467
Radial Grid Type                 RadialGrid  ... OptM3 with GC (2021)
Angular Grid (max. ang.)         AngularGrid ... 1 (Lebedev-50)
Angular grid pruning method      GridPruning ... 4 (adaptive)
Weight generation scheme         WeightScheme... Becke
Basis function cutoff            BFCut       ... 1.0000e-10
Integration weight cutoff        WCut        ... 1.0000e-14
Angular grids for H and He will be reduced by one unit
Partially contracted basis set               ... off
Rotationally invariant grid construction     ... off

Total number of grid points                  ...    22895
Total number of batches                      ...      373
Average number of points per batch           ...       61
Average number of grid points per atom       ...      619

CP-SCF GRIDX
------------

General Integration Accuracy     IntAcc      ... 3.067
Radial Grid Type                 RadialGrid  ... OptM3 with GC (2021)
Angular Grid (max. ang.)         AngularGrid ... 1 (Lebedev-50)
Angular grid pruning method      GridPruning ... 4 (adaptive)
Weight generation scheme         WeightScheme... Becke
Basis function cutoff            BFCut       ... 1.0000e-10
Integration weight cutoff        WCut        ... 1.0000e-14
Angular grids for H and He will be reduced by one unit
Partially contracted basis set               ... on
Rotationally invariant grid construction     ... off

Total number of grid points                  ...    10846
Total number of batches                      ...      193
Average number of points per batch           ...       56
Average number of grid points per atom       ...      293

Memory available               ... 902.9 MB
Memory needed per perturbation ...  10.3 MB
Perturbations treated per batch... 3
Number of batches              ... 1
     CP-SCF ITERATION   0:   1.0168e-01 (   1.2 sec   0/  3 done)
     CP-SCF ITERATION   1:   2.2756e-03 (   1.1 sec   0/  3 done)
     CP-SCF ITERATION   2:   1.8018e-04 (   1.1 sec   3/  3 done)
                    *** THE CP-SCF HAS CONVERGED ***

Forming final perturbed densities           ... done
Transforming perturbed density to AO basis  ... done

 Raw HFC matrix (all values in MHz): 
 -----------------------------------
                 2.8086               0.3258               0.1317
                 0.3256               5.2169              -0.1322
                 0.1317              -0.1322               3.6832

 A(FC)           3.9032               3.9032               3.9032
 A(SD)          -1.1612              -0.2048               1.3660
 A(ORB+DIA)     -0.0001               0.0001              -0.0008    A(PC) =  -0.0003
 A(ORB)          0.0000              -0.0001              -0.0010    A(PC) =  -0.0004
 A(DIA)         -0.0001               0.0002               0.0001    A(PC) =   0.0001
             ----------           ----------           ----------
 A(Tot)          2.7419               3.6984               5.2684    A(iso)=    3.9029
 Orientation: 
  X          -0.9781738            0.1643191            0.1271823
  Y           0.1371080            0.0504998            0.9892680
  Z           0.1561329            0.9851137           -0.0719270

Notes:  (1) The A matrix conforms to the "SAI" spin Hamiltonian convention.
        (2) Tensor is right-handed.

 -----------------------------------------------------------
 Nucleus  35H : A:ISTP=    1 I=  0.5 P=533.5514 MHz/au**3
                Q:ISTP=    2 I=  1.0 Q=  0.0029 barn     
 -----------------------------------------------------------
 Solving for nuclear perturbation:
Forming RHS of the CP-SCF equations         ... 
Calc. nucleus orbit integrals (SHARK)       ... done

------------------------------------------------------------------------------
                           ORCA CP-SCF CALCULATION
------------------------------------------------------------------------------

Input orbitals are from        ... EPRII.gbw
Input Perturbation             ... EPRII.pin.tmp
Wavefunction output            ... EPRII.pout.tmp
Perturbation mode              ... Imaginary perturbation
Solver                         ... POPLE
Max. number of iterations      ... 64
Convergence tolerance          ... 1.000e-03
Integral handling              ... Direct
DFT GridXC                     ... 1
COSX GridX                     ... 1
COSX IntAccX                   ... 3.067
COSX Algorithm                 ... Auto
Number of perturbations        ... 3
Number of operators            ... 2
Orbital ranges used for CP-SCF:
 Operator 0:  Orbitals   0... 58  to  59...418
 Operator 1:  Orbitals   0... 57  to  58...418
Variables per perturbation     ... 42178
DFT calculation                         ... on
XC functional terms                     ... off
Hybrid DFT                              ... on
   Exchange mixing (SCF)                ...  0.200
   Exchange mixing (CP-SCF)             ...  0.200
   GGA exch. scaling(SCF)               ...  0.720
   GGA exch. scaling (CP-SCF)           ...  0.720
   GGA corr. scaling (SCF)              ...  0.810
   GGA corr. scaling (CP-SCF)           ...  0.810

CP-SCF GRID
-----------

General Integration Accuracy     IntAcc      ... 3.467
Radial Grid Type                 RadialGrid  ... OptM3 with GC (2021)
Angular Grid (max. ang.)         AngularGrid ... 1 (Lebedev-50)
Angular grid pruning method      GridPruning ... 4 (adaptive)
Weight generation scheme         WeightScheme... Becke
Basis function cutoff            BFCut       ... 1.0000e-10
Integration weight cutoff        WCut        ... 1.0000e-14
Angular grids for H and He will be reduced by one unit
Partially contracted basis set               ... off
Rotationally invariant grid construction     ... off

Total number of grid points                  ...    22895
Total number of batches                      ...      373
Average number of points per batch           ...       61
Average number of grid points per atom       ...      619

CP-SCF GRIDX
------------

General Integration Accuracy     IntAcc      ... 3.067
Radial Grid Type                 RadialGrid  ... OptM3 with GC (2021)
Angular Grid (max. ang.)         AngularGrid ... 1 (Lebedev-50)
Angular grid pruning method      GridPruning ... 4 (adaptive)
Weight generation scheme         WeightScheme... Becke
Basis function cutoff            BFCut       ... 1.0000e-10
Integration weight cutoff        WCut        ... 1.0000e-14
Angular grids for H and He will be reduced by one unit
Partially contracted basis set               ... on
Rotationally invariant grid construction     ... off

Total number of grid points                  ...    10846
Total number of batches                      ...      193
Average number of points per batch           ...       56
Average number of grid points per atom       ...      293

Memory available               ... 902.4 MB
Memory needed per perturbation ...  10.3 MB
Perturbations treated per batch... 3
Number of batches              ... 1
     CP-SCF ITERATION   0:   3.7021e-02 (   1.2 sec   0/  3 done)
     CP-SCF ITERATION   1:   6.3004e-04 (   1.1 sec   3/  3 done)
                    *** THE CP-SCF HAS CONVERGED ***

Forming final perturbed densities           ... done
Transforming perturbed density to AO basis  ... done

 Raw HFC matrix (all values in MHz): 
 -----------------------------------
                 1.4135              -0.3886               0.4610
                -0.3888               0.3694              -0.1452
                 0.4609              -0.1450               0.4754

 A(FC)           0.7527               0.7527               0.7527
 A(SD)          -0.5130              -0.4627               0.9756
 A(ORB+DIA)     -0.0001              -0.0000               0.0003    A(PC) =   0.0001
 A(ORB)         -0.0001              -0.0000               0.0002    A(PC) =   0.0000
 A(DIA)          0.0000               0.0000               0.0001    A(PC) =   0.0000
             ----------           ----------           ----------
 A(Tot)          0.2397               0.2900               1.7286    A(iso)=    0.7528
 Orientation: 
  X           0.3553039           -0.2972560            0.8862268
  Y           0.9265202            0.2375319           -0.2917859
  Z          -0.1237720            0.9247797            0.3598097

Notes:  (1) The A matrix conforms to the "SAI" spin Hamiltonian convention.
        (2) Tensor is right-handed.

 -----------------------------------------------------------
 Nucleus  36H : A:ISTP=    1 I=  0.5 P=533.5514 MHz/au**3
                Q:ISTP=    2 I=  1.0 Q=  0.0029 barn     
 -----------------------------------------------------------
 Solving for nuclear perturbation:
Forming RHS of the CP-SCF equations         ... 
Calc. nucleus orbit integrals (SHARK)       ... done

------------------------------------------------------------------------------
                           ORCA CP-SCF CALCULATION
------------------------------------------------------------------------------

Input orbitals are from        ... EPRII.gbw
Input Perturbation             ... EPRII.pin.tmp
Wavefunction output            ... EPRII.pout.tmp
Perturbation mode              ... Imaginary perturbation
Solver                         ... POPLE
Max. number of iterations      ... 64
Convergence tolerance          ... 1.000e-03
Integral handling              ... Direct
DFT GridXC                     ... 1
COSX GridX                     ... 1
COSX IntAccX                   ... 3.067
COSX Algorithm                 ... Auto
Number of perturbations        ... 3
Number of operators            ... 2
Orbital ranges used for CP-SCF:
 Operator 0:  Orbitals   0... 58  to  59...418
 Operator 1:  Orbitals   0... 57  to  58...418
Variables per perturbation     ... 42178
DFT calculation                         ... on
XC functional terms                     ... off
Hybrid DFT                              ... on
   Exchange mixing (SCF)                ...  0.200
   Exchange mixing (CP-SCF)             ...  0.200
   GGA exch. scaling(SCF)               ...  0.720
   GGA exch. scaling (CP-SCF)           ...  0.720
   GGA corr. scaling (SCF)              ...  0.810
   GGA corr. scaling (CP-SCF)           ...  0.810

CP-SCF GRID
-----------

General Integration Accuracy     IntAcc      ... 3.467
Radial Grid Type                 RadialGrid  ... OptM3 with GC (2021)
Angular Grid (max. ang.)         AngularGrid ... 1 (Lebedev-50)
Angular grid pruning method      GridPruning ... 4 (adaptive)
Weight generation scheme         WeightScheme... Becke
Basis function cutoff            BFCut       ... 1.0000e-10
Integration weight cutoff        WCut        ... 1.0000e-14
Angular grids for H and He will be reduced by one unit
Partially contracted basis set               ... off
Rotationally invariant grid construction     ... off

Total number of grid points                  ...    22895
Total number of batches                      ...      373
Average number of points per batch           ...       61
Average number of grid points per atom       ...      619

CP-SCF GRIDX
------------

General Integration Accuracy     IntAcc      ... 3.067
Radial Grid Type                 RadialGrid  ... OptM3 with GC (2021)
Angular Grid (max. ang.)         AngularGrid ... 1 (Lebedev-50)
Angular grid pruning method      GridPruning ... 4 (adaptive)
Weight generation scheme         WeightScheme... Becke
Basis function cutoff            BFCut       ... 1.0000e-10
Integration weight cutoff        WCut        ... 1.0000e-14
Angular grids for H and He will be reduced by one unit
Partially contracted basis set               ... on
Rotationally invariant grid construction     ... off

Total number of grid points                  ...    10846
Total number of batches                      ...      193
Average number of points per batch           ...       56
Average number of grid points per atom       ...      293

Memory available               ... 902.0 MB
Memory needed per perturbation ...  10.3 MB
Perturbations treated per batch... 3
Number of batches              ... 1
     CP-SCF ITERATION   0:   3.7137e-02 (   1.1 sec   0/  3 done)
     CP-SCF ITERATION   1:   5.9339e-04 (   1.2 sec   3/  3 done)
                    *** THE CP-SCF HAS CONVERGED ***

Forming final perturbed densities           ... done
Transforming perturbed density to AO basis  ... done

 Raw HFC matrix (all values in MHz): 
 -----------------------------------
                -0.1223               0.0928              -0.0068
                 0.0929               0.2305              -0.0297
                -0.0068              -0.0297              -0.1394

 A(FC)          -0.0105              -0.0105              -0.0105
 A(SD)          -0.1313              -0.1350               0.2662
 A(ORB+DIA)      0.0000               0.0001               0.0001    A(PC) =   0.0001
 A(ORB)          0.0000               0.0000               0.0001    A(PC) =   0.0000
 A(DIA)          0.0000               0.0000               0.0000    A(PC) =   0.0000
             ----------           ----------           ----------
 A(Tot)         -0.1417              -0.1454               0.2558    A(iso)=   -0.0104
 Orientation: 
  X           0.1613487            0.9575263            0.2389771
  Y           0.0384360           -0.2480631            0.9679811
  Z           0.9861487           -0.1469971           -0.0768281

Notes:  (1) The A matrix conforms to the "SAI" spin Hamiltonian convention.
        (2) Tensor is right-handed.


--------------------------------------------------------------------------------
----------------------------------------------------------------------------
                           ORCA EULER ANGLE PROGRAM
----------------------------------------------------------------------------

Only g-tensor available        -->  using g-tensor as reference tensor

Reference tensor               ...  g

g-tensor ordering              ...  |g_min> --> |gx>
                                    |g_mid> --> |gy>
                                    |g_max> --> |gz>

A- and EFG-tensor ordering     ...  the axes |Ax>, |Qx>, |Ay>, etc. are assigned
                                    such that the Euler rotation is minimal. You
                                    can find the respective eigenvalues as Ax,
                                    EFGx, Ay, etc. in the tables below.
                                    The relation of |Ax>, |Ay>,  etc. to Amin, Amid, etc.
                                    (as printed in the ORCA EPR/NMR CALCULATION Output)
                                    is obtained in the detailed printout.

Euler rotation around          ...  z - y - z
   First rotation              -->  by alpha around z
   Second rotation             -->  by beta around y'
   Third rotation              -->  by gamma around z''
   Positive / Negative angle   -->  clockwise / counterclockwise rotation

Plot EFG-tensors                    (-)
Plot HFC-tensors                    (-)
Detailed Printout                   (-)

-------------------------------------------------------------------------
          Euler rotation of hyperfine tensor to g-tensor
-------------------------------------------------------------------------

-------------------------------------------------------------------
 Atom  |   Alpha    Beta    Gamma   |   Ax       Ay       Az 
       |          [degrees]         |           [MHz]         
-------------------------------------------------------------------
  7H      -86.1     44.3     92.0     -18.58   -21.88    -7.74
  8H       87.5     42.5    -83.2       4.43     5.48    10.30
 10H       87.3     11.6    -84.4     -48.78   -75.39   -19.77
 11H       87.3     40.2    -84.7     -48.68   -19.19   -74.45
 13H     -133.8     33.3     99.7       3.47     3.66     7.88
 14H     -113.5     23.6    116.9       6.48     7.90    13.25
 16H       -3.3     43.0     37.2      -3.30    -1.40     3.66
 17H      168.3     28.6   -128.4       2.09    -1.74    -1.24
 19H      -50.7     12.6     22.1      -0.76    -0.59     1.29
 20H      -30.0     24.8     65.4      -0.24    -0.16     1.37
 22H      -51.5     52.2     21.4      27.26    30.77    26.56
 23H       33.8     53.4    -61.3      26.28    26.97    30.48
 25H      107.2     19.6    -91.0      -1.10     1.10    -1.00
 26H       63.8     19.7    -71.3      -1.09     1.10    -0.98
 28H      -23.8     30.6     17.3      -0.12     0.89    -0.17
 29H     -154.2     26.5    170.9      -0.12     0.90    -0.16
 31H       49.7      9.0    -52.1      -0.13     0.41    -0.12
 32H      105.2      7.7    -93.3      -0.13     0.42    -0.12
 34H       63.0      4.3    -58.8       3.70     5.27     2.74
 35H      -19.2     32.3     20.0       0.29     0.24     1.73
 36H      -53.5      3.3     58.5      -0.14     0.26    -0.15
-------------------------------------------------------------------


Maximum memory used throughout the entire EPRNMR-calculation: 164.0 MB

Timings for individual modules:

Sum of individual times         ...     1702.876 sec (=  28.381 min)
GTO integral calculation        ...        4.340 sec (=   0.072 min)   0.3 %
Spin-Orbit-Coupling Matrices    ...        8.515 sec (=   0.142 min)   0.5 %
SCF iterations                  ...       50.485 sec (=   0.841 min)   3.0 %
EPR/NMR calculation             ...     1639.537 sec (=  27.326 min)  96.3 %
                             ****ORCA TERMINATED NORMALLY****
TOTAL RUN TIME: 0 days 0 hours 28 minutes 27 seconds 224 msec
