
                                 *****************
                                 * O   R   C   A *
                                 *****************

           --- An Ab Initio, DFT and Semiempirical electronic structure package ---

                  #######################################################
                  #                        -***-                        #
                  #          Department of theory and spectroscopy      #
                  #               Directorship: Frank Neese             #
                  #        Max Planck Institute fuer Kohlenforschung    #
                  #                Kaiser Wilhelm Platz 1               #
                  #                 D-45470 Muelheim/Ruhr               #
                  #                      Germany                        #
                  #                                                     #
                  #                  All rights reserved                #
                  #                        -***-                        #
                  #######################################################


                         Program Version 4.2.1 -  RELEASE  -


 With contributions from (in alphabetic order):
   Daniel Aravena         : Magnetic Suceptibility
   Michael Atanasov       : Ab Initio Ligand Field Theory (pilot matlab implementation)
   Alexander A. Auer      : GIAO ZORA, VPT2
   Ute Becker             : Parallelization
   Giovanni Bistoni       : ED, misc. LED, open-shell LED, HFLD
   Martin Brehm           : Molecular dynamics
   Dmytro Bykov           : SCF Hessian
   Vijay G. Chilkuri      : MRCI spin determinant printing, contributions to CSF-ICE
   Dipayan Datta          : RHF DLPNO-CCSD density
   Achintya Kumar Dutta   : EOM-CC, STEOM-CC
   Dmitry Ganyushin       : Spin-Orbit,Spin-Spin,Magnetic field MRCI
   Miquel Garcia          : C-PCM Hessian, Gaussian charge scheme
   Yang Guo               : DLPNO-NEVPT2, CIM, IAO-localization
   Andreas Hansen         : Spin unrestricted coupled pair/coupled cluster methods
   Benjamin Helmich-Paris : CASSCF linear response (MC-RPA)
   Lee Huntington         : MR-EOM, pCC
   Robert Izsak           : Overlap fitted RIJCOSX, COSX-SCS-MP3, EOM
   Christian Kollmar      : KDIIS, OOCD, Brueckner-CCSD(T), CCSD density
   Simone Kossmann        : Meta GGA functionals, TD-DFT gradient, OOMP2, MP2 Hessian
   Martin Krupicka        : AUTO-CI
   Lucas Lang             : DCDCAS
   Dagmar Lenk            : GEPOL surface, SMD
   Dimitrios Liakos       : Extrapolation schemes; Compound Job, initial MDCI parallelization
   Dimitrios Manganas     : Further ROCIS development; embedding schemes
   Dimitrios Pantazis     : SARC Basis sets
   Taras Petrenko         : DFT Hessian,TD-DFT gradient, ASA, ECA, R-Raman, ABS, FL, XAS/XES, NRVS
   Peter Pinski           : DLPNO-MP2, DLPNO-MP2 Gradient
   Christoph Reimann      : Effective Core Potentials
   Marius Retegan         : Local ZFS, SOC
   Christoph Riplinger    : Optimizer, TS searches, QM/MM, DLPNO-CCSD(T), (RO)-DLPNO pert. Triples
   Tobias Risthaus        : Range-separated hybrids, TD-DFT gradient, RPA, STAB
   Michael Roemelt        : Original ROCIS implementation
   Masaaki Saitow         : Open-shell DLPNO-CCSD energy and density
   Barbara Sandhoefer     : DKH picture change effects
   Avijit Sen             : IP-ROCIS
   Kantharuban Sivalingam : CASSCF convergence, NEVPT2, FIC-MRCI
   Bernardo de Souza      : ESD, SOC TD-DFT
   Georgi Stoychev        : AutoAux, RI-MP2 NMR
   Willem Van den Heuvel  : Paramagnetic NMR
   Boris Wezisla          : Elementary symmetry handling
   Frank Wennmohs         : Technical directorship


 We gratefully acknowledge several colleagues who have allowed us to
 interface, adapt or use parts of their codes:
   Stefan Grimme, W. Hujo, H. Kruse,             : VdW corrections, initial TS optimization,
                  C. Bannwarth                     DFT functionals, gCP, sTDA/sTD-DF
   Ed Valeev, F. Pavosevic, A. Kumar             : LibInt (2-el integral package), F12 methods
   Garnet Chan, S. Sharma, J. Yang, R. Olivares  : DMRG
   Ulf Ekstrom                                   : XCFun DFT Library
   Mihaly Kallay                                 : mrcc  (arbitrary order and MRCC methods)
   Andreas Klamt, Michael Diedenhofen            : otool_cosmo (COSMO solvation model)
   Jiri Pittner, Ondrej Demel                    : Mk-CCSD
   Frank Weinhold                                : gennbo (NPA and NBO analysis)
   Christopher J. Cramer and Donald G. Truhlar   : smd solvation model
   Lars Goerigk                                  : TD-DFT with DH, B97 family of functionals
   V. Asgeirsson, H. Jonsson                     : NEB implementation
   FAccTs GmbH                                   : IRC, NEB, NEB-TS, Multilevel, MM, QM/MM, CI optimization
   S Lehtola, MJT Oliveira, MAL Marques          : LibXC Library


 Your calculation uses the libint2 library for the computation of 2-el integrals
 For citations please refer to: http://libint.valeyev.net

 Your ORCA version has been built with support for libXC version: 4.2.3
 For citations please refer to: https://tddft.org/programs/libxc/

 This ORCA versions uses:
   CBLAS   interface :  Fast vector & matrix operations
   LAPACKE interface :  Fast linear algebra routines
   SCALAPACK package :  Parallel linear algebra routines




***************************************
The coordinates will be read from file: Ashift.xyz
***************************************


----- Orbital basis set information -----
Your calculation utilizes the basis: cc-pVDZ 
       H, B-Ne : Obtained from the ccRepo (grant-hill.group.shef.ac.uk/ccrepo) Feb. 2017
                 T. H. Dunning, Jr., J. Chem. Phys. 90, 1007 (1989)
            He : Obtained from the ccRepo (grant-hill.group.shef.ac.uk/ccrepo) Feb. 2017
                 D. E. Woon, T. H. Dunning, Jr., J. Chem. Phys. 100, 2975 (1994)
  Li-Be, Na-Mg : Obtained from the ccRepo (grant-hill.group.shef.ac.uk/ccrepo) Feb. 2017
                 B. P. Prascher, D. E. Woon, K. A. Peterson, T. H. Dunning, Jr., A. K. Wilson, Theor. Chem. Acc. 128, 69 (2011)
         Al-Ar : Obtained from the ccRepo (grant-hill.group.shef.ac.uk/ccrepo) Feb. 2017
                 D. E. Woon, T. H. Dunning, Jr., J. Chem. Phys. 98, 1358 (1993)
            Ca : Obtained from the Peterson Research Group Website (tyr0.chem.wsu.edu/~kipeters) Feb. 2017
                 J. Koput, K. A. Peterson, J. Phys. Chem. 106, 9595 (2002)
         Sc-Zn : Obtained from the ccRepo (grant-hill.group.shef.ac.uk/ccrepo) Feb. 2017
                 N. B. Balabanov, K. A. Peterson, J. Chem. Phys. 123, 064107 (2005)
                 N. B. Balabanov, K. A. Peterson, J. Chem. Phys. 125, 074110 (2006)
         Ga-Kr : Obtained from the ccRepo (grant-hill.group.shef.ac.uk/ccrepo) Feb. 2017
                 A. K. Wilson, D. E. Woon, K. A. Peterson, T. H. Dunning, Jr., J. Chem. Phys. 110, 7667 (1999)

================================================================================
                                        WARNINGS
                       Please study these warnings very carefully!
================================================================================


WARNING: your system is open-shell and RHF/RKS was chosen
  ===> : WILL SWITCH to UHF/UKS


WARNING: Geometry Optimization
  ===> : Switching off AutoStart
         For restart on a previous wavefunction, please use MOREAD

INFO   : the flag for use of LIBINT has been found!

================================================================================
                                       INPUT FILE
================================================================================
NAME = opt.inp
|  1> ! B3LYP cc-pVDZ OPT
|  2> %pal nprocs 16 end
|  3> *XYZFile 0 2 Ashift.xyz
|  4> 
|  5>                          ****END OF INPUT****
================================================================================

                       *****************************
                       * Geometry Optimization Run *
                       *****************************

Geometry optimization settings:
Update method            Update   .... BFGS
Choice of coordinates    CoordSys .... Z-matrix Internals
Initial Hessian          InHess   .... Almoef's Model

Convergence Tolerances:
Energy Change            TolE     ....  5.0000e-06 Eh
Max. Gradient            TolMAXG  ....  3.0000e-04 Eh/bohr
RMS Gradient             TolRMSG  ....  1.0000e-04 Eh/bohr
Max. Displacement        TolMAXD  ....  4.0000e-03 bohr
RMS Displacement         TolRMSD  ....  2.0000e-03 bohr
Strict Convergence                ....  False
------------------------------------------------------------------------------
                        ORCA OPTIMIZATION COORDINATE SETUP
------------------------------------------------------------------------------

The optimization will be done in new redundant internal coordinates
Making redundant internal coordinates   ...  (new redundants) done
Evaluating the initial hessian          ...  (Almloef) done
Evaluating the coordinates              ...  done
Calculating the B-matrix                .... done
Calculating the G-matrix                .... done
Diagonalizing the G-matrix              .... done
Small eigenvalue found = 2.188e-03
Small eigenvalue found = 8.299e-03
Small eigenvalue found = 1.747e-02
Small eigenvalue found = 2.256e-02
The first mode is                       ....   84
The number of degrees of freedom        ....  105

    -----------------------------------------------------------------
                    Redundant Internal Coordinates


    -----------------------------------------------------------------
         Definition                    Initial Value    Approx d2E/dq
    -----------------------------------------------------------------
      1. B(C   2,C   1)                  1.4111         0.578224   
      2. B(C   3,C   2)                  1.3878         0.629955   
      3. B(C   4,C   0)                  1.4259         0.547693   
      4. B(C   4,C   3)                  1.4019         0.598152   
      5. B(C   5,C   4)                  1.4111         0.578125   
      6. B(C   6,C   5)                  1.3876         0.630222   
      7. B(C   6,C   1)                  1.4020         0.597867   
      8. B(H   7,C   3)                  1.0809         0.372351   
      9. B(H   8,C   6)                  1.0809         0.372365   
     10. B(C   9,C   2)                  1.5127         0.398023   
     11. B(H  10,C   9)                  1.0957         0.352640   
     12. B(H  11,C   9)                  1.0960         0.352269   
     13. B(C  12,C   1)                  1.5127         0.398023   
     14. B(H  13,C  12)                  1.0957         0.352646   
     15. B(H  14,C  12)                  1.0958         0.352550   
     16. B(C  15,C  12)                  1.5301         0.373432   
     17. B(H  16,C  15)                  1.0955         0.352935   
     18. B(H  17,C  15)                  1.0956         0.352755   
     19. B(C  18,C  15)                  1.5274         0.377135   
     20. B(H  19,C  18)                  1.0934         0.355623   
     21. B(H  20,C  18)                  1.0934         0.355570   
     22. B(C  21,C   5)                  1.5128         0.397870   
     23. B(H  22,C  21)                  1.0959         0.352417   
     24. B(H  23,C  21)                  1.0958         0.352455   
     25. B(C  24,C  21)                  1.5273         0.377284   
     26. B(H  25,C  24)                  1.0958         0.352524   
     27. B(H  26,C  24)                  1.0957         0.352615   
     28. B(C  27,C  24)                  1.5300         0.373552   
     29. B(H  28,C  27)                  1.0956         0.352759   
     30. B(H  29,C  27)                  1.0955         0.352927   
     31. B(C  30,C  27)                  1.5275         0.377029   
     32. B(H  31,C  30)                  1.0934         0.355592   
     33. B(H  32,C  30)                  1.0934         0.355603   
     34. B(C  33,C   0)                  1.2038         1.238027   
     35. B(H  34,C  33)                  1.0624         0.398518   
     36. B(H  35,C  18)                  1.0916         0.357963   
     37. B(H  36,C  30)                  1.0916         0.357977   
     38. L(C   4,C   0,C  33,C   3, 1) 179.4466         0.481365   
     39. L(C   4,C   0,C  33,C   3, 2) 179.7268         0.481365   
     40. A(C   6,C   1,C  12)          110.7557         0.398573   
     41. A(C   2,C   1,C   6)          120.2893         0.425877   
     42. A(C   2,C   1,C  12)          128.8841         0.396241   
     43. A(C   3,C   2,C   9)          122.7248         0.402258   
     44. A(C   1,C   2,C   3)          117.3003         0.429887   
     45. A(C   1,C   2,C   9)          119.9748         0.396241   
     46. A(C   4,C   3,H   7)          117.6841         0.352764   
     47. A(C   2,C   3,H   7)          119.9011         0.355875   
     48. A(C   2,C   3,C   4)          122.4149         0.432512   
     49. A(C   0,C   4,C   3)          118.8863         0.421802   
     50. A(C   0,C   4,C   5)          120.8342         0.419247   
     51. A(C   3,C   4,C   5)          120.2795         0.425901   
     52. A(C   4,C   5,C   6)          117.3134         0.429907   
     53. A(C   6,C   5,C  21)          122.7207         0.402260   
     54. A(C   4,C   5,C  21)          119.9659         0.396202   
     55. A(C   5,C   6,H   8)          119.8973         0.355903   
     56. A(C   1,C   6,H   8)          117.7000         0.352738   
     57. A(C   1,C   6,C   5)          122.4027         0.432508   
     58. A(C   2,C   9,H  10)          108.2443         0.326591   
     59. A(H  10,C   9,H  11)          104.6885         0.288888   
     60. A(C   2,C   9,H  11)          108.2119         0.326534   
     61. A(H  14,C  12,C  15)          108.9438         0.323173   
     62. A(H  13,C  12,C  15)          109.0293         0.323187   
     63. A(C   1,C  12,C  15)          147.8136         0.367292   
     64. A(H  13,C  12,H  14)          106.3186         0.288925   
     65. A(C   1,C  12,H  14)           92.6627         0.326577   
     66. A(C   1,C  12,H  13)           86.2698         0.326592   
     67. A(H  17,C  15,C  18)          109.4356         0.323727   
     68. A(H  16,C  15,C  18)          109.4449         0.323754   
     69. A(C  12,C  15,C  18)          113.2208         0.363917   
     70. A(H  16,C  15,H  17)          106.0313         0.288988   
     71. A(C  12,C  15,H  17)          109.2541         0.323204   
     72. A(C  12,C  15,H  16)          109.2016         0.323231   
     73. A(H  19,C  18,H  35)          107.6746         0.289998   
     74. A(C  15,C  18,H  35)          111.3061         0.324507   
     75. A(H  19,C  18,H  20)          107.4850         0.289693   
     76. A(C  15,C  18,H  20)          111.2520         0.324150   
     77. A(C  15,C  18,H  19)          111.2630         0.324158   
     78. A(H  20,C  18,H  35)          107.6706         0.289991   
     79. A(H  23,C  21,C  24)          109.1286         0.323703   
     80. A(H  22,C  21,C  24)          109.1467         0.323697   
     81. A(C   5,C  21,C  24)          116.8158         0.367915   
     82. A(H  22,C  21,H  23)          104.7028         0.288883   
     83. A(C   5,C  21,H  23)          108.1602         0.326542   
     84. A(C   5,C  21,H  22)          108.2070         0.326536   
     85. A(H  26,C  24,C  27)          109.0073         0.323199   
     86. A(H  25,C  24,C  27)          108.9616         0.323186   
     87. A(C  21,C  24,C  27)          112.5497         0.363962   
     88. A(H  25,C  24,H  26)          106.3172         0.288918   
     89. A(C  21,C  24,H  26)          109.8944         0.323727   
     90. A(C  21,C  24,H  25)          109.9108         0.323713   
     91. A(H  29,C  27,C  30)          109.4367         0.323738   
     92. A(H  28,C  27,C  30)          109.4295         0.323713   
     93. A(C  24,C  27,C  30)          113.2199         0.363920   
     94. A(H  28,C  27,H  29)          106.0224         0.288988   
     95. A(C  24,C  27,H  29)          109.2068         0.323246   
     96. A(C  24,C  27,H  28)          109.2724         0.323221   
     97. A(H  31,C  30,H  32)          107.4879         0.289693   
     98. A(C  27,C  30,H  32)          111.2603         0.324140   
     99. A(C  27,C  30,H  31)          111.2574         0.324138   
    100. A(H  32,C  30,H  36)          107.6732         0.289997   
    101. A(H  31,C  30,H  36)          107.6733         0.289996   
    102. A(C  27,C  30,H  36)          111.2996         0.324494   
    103. L(C   0,C  33,H  34, 2)       179.9290         0.404788   
    104. L(C   0,C  33,H  34, 1)       179.9000         0.404788   
    105. D(C   3,C   2,C   1,C   6)     -0.0321         0.022964   
    106. D(C   3,C   2,C   1,C  12)    176.6048         0.022964   
    107. D(C   9,C   2,C   1,C  12)     -3.5214         0.022964   
    108. D(C   9,C   2,C   1,C   6)    179.8417         0.022964   
    109. D(C   4,C   3,C   2,C   9)   -179.8492         0.027515   
    110. D(H   7,C   3,C   2,C   1)   -179.9596         0.027515   
    111. D(H   7,C   3,C   2,C   9)      0.1704         0.027515   
    112. D(C   4,C   3,C   2,C   1)      0.0208         0.027515   
    113. D(C   5,C   4,C   3,C   2)     -0.0119         0.024657   
    114. D(C   0,C   4,C   3,C   2)    179.9861         0.024657   
    115. D(C   0,C   4,C   3,H   7)     -0.0331         0.024657   
    116. D(C   5,C   4,C   3,H   7)    179.9689         0.024657   
    117. D(C  21,C   5,C   4,C   0)      0.0695         0.022956   
    118. D(C   6,C   5,C   4,C   0)   -179.9846         0.022956   
    119. D(C  21,C   5,C   4,C   3)   -179.9325         0.022956   
    120. D(C   6,C   5,C   4,C   3)      0.0135         0.022956   
    121. D(H   8,C   6,C   5,C  21)     -0.0479         0.027540   
    122. D(C   1,C   6,C   5,C  21)    179.9186         0.027540   
    123. D(H   8,C   6,C   1,C  12)      2.8023         0.024632   
    124. D(C   5,C   6,C   1,C  12)   -177.1649         0.024632   
    125. D(C   1,C   6,C   5,C   4)     -0.0258         0.027540   
    126. D(H   8,C   6,C   5,C   4)   -179.9923         0.027540   
    127. D(C   5,C   6,C   1,C   2)      0.0360         0.024632   
    128. D(H   8,C   6,C   1,C   2)   -179.9967         0.024632   
    129. D(H  11,C   9,C   2,C   3)    121.9324         0.010899   
    130. D(H  11,C   9,C   2,C   1)    -57.9343         0.010899   
    131. D(H  10,C   9,C   2,C   3)   -125.1429         0.010899   
    132. D(H  10,C   9,C   2,C   1)     54.9904         0.010899   
    133. D(H  14,C  12,C   1,C   2)   -125.2869         0.011762   
    134. D(H  13,C  12,C   1,C   6)    -54.5836         0.011762   
    135. D(H  13,C  12,C   1,C   2)    128.5217         0.011762   
    136. D(C  15,C  12,C   1,C   6)   -175.2353         0.011762   
    137. D(C  15,C  12,C   1,C   2)      7.8700         0.011762   
    138. D(H  14,C  12,C   1,C   6)     51.6078         0.011762   
    139. D(C  18,C  15,C  12,C   1)    172.7712         0.011136   
    140. D(C  18,C  15,C  12,H  13)     58.0133         0.011136   
    141. D(H  17,C  15,C  12,H  14)   -179.8554         0.011136   
    142. D(H  17,C  15,C  12,H  13)    -64.2214         0.011136   
    143. D(H  17,C  15,C  12,C   1)     50.5365         0.011136   
    144. D(H  16,C  15,C  12,H  14)     64.5878         0.011136   
    145. D(H  16,C  15,C  12,H  13)   -179.7782         0.011136   
    146. D(C  18,C  15,C  12,H  14)    -57.6207         0.011136   
    147. D(H  16,C  15,C  12,C   1)    -65.0203         0.011136   
    148. D(H  35,C  18,C  15,H  17)    -57.7452         0.011345   
    149. D(H  35,C  18,C  15,H  16)     58.0487         0.011345   
    150. D(H  35,C  18,C  15,C  12)   -179.8787         0.011345   
    151. D(H  20,C  18,C  15,H  17)     62.3387         0.011345   
    152. D(H  20,C  18,C  15,H  16)    178.1326         0.011345   
    153. D(H  20,C  18,C  15,C  12)    -59.7947         0.011345   
    154. D(H  19,C  18,C  15,H  17)   -177.8416         0.011345   
    155. D(H  19,C  18,C  15,H  16)    -62.0478         0.011345   
    156. D(H  19,C  18,C  15,C  12)     60.0249         0.011345   
    157. D(C  24,C  21,C   5,C   6)     -0.0631         0.011754   
    158. D(C  24,C  21,C   5,C   4)    179.8799         0.011754   
    159. D(H  23,C  21,C   5,C   6)   -123.5830         0.011754   
    160. D(H  23,C  21,C   5,C   4)     56.3599         0.011754   
    161. D(H  22,C  21,C   5,C   6)    123.5198         0.011754   
    162. D(H  22,C  21,C   5,C   4)    -56.5373         0.011754   
    163. D(H  26,C  24,C  21,H  22)    -64.6200         0.011353   
    164. D(H  26,C  24,C  21,C   5)     58.4800         0.011353   
    165. D(H  25,C  24,C  21,H  23)     64.8315         0.011353   
    166. D(H  25,C  24,C  21,H  22)    178.7095         0.011353   
    167. D(H  25,C  24,C  21,C   5)    -58.1905         0.011353   
    168. D(C  27,C  24,C  21,H  23)    -56.8099         0.011353   
    169. D(C  27,C  24,C  21,H  22)     57.0681         0.011353   
    170. D(C  27,C  24,C  21,C   5)   -179.8318         0.011353   
    171. D(H  26,C  24,C  21,H  23)   -178.4980         0.011353   
    172. D(C  30,C  27,C  24,H  26)    -57.7273         0.011142   
    173. D(C  30,C  27,C  24,C  21)   -179.9180         0.011142   
    174. D(H  29,C  27,C  24,H  26)   -179.9285         0.011142   
    175. D(H  29,C  27,C  24,H  25)    -64.2984         0.011142   
    176. D(H  29,C  27,C  24,C  21)     57.8808         0.011142   
    177. D(H  28,C  27,C  24,H  26)     64.5123         0.011142   
    178. D(C  30,C  27,C  24,H  25)     57.9028         0.011142   
    179. D(H  28,C  27,C  24,H  25)   -179.8576         0.011142   
    180. D(H  28,C  27,C  24,C  21)    -57.6784         0.011142   
    181. D(H  36,C  30,C  27,H  29)    -57.7990         0.011339   
    182. D(H  36,C  30,C  27,H  28)     57.9762         0.011339   
    183. D(H  36,C  30,C  27,C  24)   -179.8718         0.011339   
    184. D(H  32,C  30,C  27,H  29)     62.2893         0.011339   
    185. D(H  32,C  30,C  27,H  28)    178.0645         0.011339   
    186. D(H  32,C  30,C  27,C  24)    -59.7835         0.011339   
    187. D(H  31,C  30,C  27,H  29)   -177.8855         0.011339   
    188. D(H  31,C  30,C  27,H  28)    -62.1104         0.011339   
    189. D(H  31,C  30,C  27,C  24)     60.0416         0.011339   
    -----------------------------------------------------------------

Number of atoms                         .... 37
Number of degrees of freedom            .... 189

         *************************************************************
         *                GEOMETRY OPTIMIZATION CYCLE   1            *
         *************************************************************
---------------------------------
CARTESIAN COORDINATES (ANGSTROEM)
---------------------------------
  C     -2.818573    0.051745    0.000055
  C      1.393659    0.000000    0.000000
  C      0.714960    1.237147   -0.000000
  C     -0.672358    1.202059   -0.000217
  C     -1.393659   -0.000000   -0.000000
  C     -0.714822   -1.237125    0.000202
  C      0.672385   -1.202227    0.000465
  H     -1.234707    2.125148   -0.000887
  H      1.234543   -2.125420    0.000501
  C      1.500316    2.530052    0.003117
  H      2.190436    2.514256   -0.847789
  H      2.148685    2.534853    0.886733
  C      2.880997   -0.267181   -0.069530
  H      2.736021   -0.900276    0.812919
  H      2.774134   -0.923658   -0.940350
  C      4.301278    0.301622   -0.047570
  H      4.448005    0.938396   -0.926800
  H      4.414540    0.957073    0.823015
  C      5.381750   -0.777518   -0.015282
  H      5.319820   -1.427016   -0.892695
  H      5.282614   -1.411265    0.870247
  C     -1.500315   -2.530072   -0.001108
  H     -2.169550   -2.525019    0.866666
  H     -2.169751   -2.522131   -0.868668
  C     -0.693122   -3.826648   -0.003657
  H     -0.035552   -3.855138   -0.879752
  H     -0.038107   -3.859801    0.874098
  C     -1.582598   -5.071540   -0.008963
  H     -2.244242   -5.046953    0.863949
  H     -2.238133   -5.042350   -0.886170
  C     -0.790535   -6.377632   -0.009557
  H     -0.152401   -6.454678    0.874998
  H     -0.143909   -6.448783   -0.888409
  C     -4.021148    0.107043   -0.002842
  H     -5.082515    0.153992   -0.004083
  H      6.380861   -0.338068    0.001916
  H     -1.454541   -7.244044   -0.015654

----------------------------
CARTESIAN COORDINATES (A.U.)
----------------------------
  NO LB      ZA    FRAG     MASS         X           Y           Z
   0 C     6.0000    0    12.011   -5.326330    0.097783    0.000103
   1 C     6.0000    0    12.011    2.633633    0.000000    0.000000
   2 C     6.0000    0    12.011    1.351079    2.337870   -0.000000
   3 C     6.0000    0    12.011   -1.270573    2.271563   -0.000410
   4 C     6.0000    0    12.011   -2.633633   -0.000000   -0.000000
   5 C     6.0000    0    12.011   -1.350819   -2.337828    0.000382
   6 C     6.0000    0    12.011    1.270623   -2.271879    0.000879
   7 H     1.0000    0     1.008   -2.333258    4.015948   -0.001676
   8 H     1.0000    0     1.008    2.332949   -4.016462    0.000946
   9 C     6.0000    0    12.011    2.835187    4.781104    0.005891
  10 H     1.0000    0     1.008    4.139324    4.751255   -1.602088
  11 H     1.0000    0     1.008    4.060427    4.790177    1.675683
  12 C     6.0000    0    12.011    5.444296   -0.504899   -0.131393
  13 H     1.0000    0     1.008    5.170331   -1.701276    1.536195
  14 H     1.0000    0     1.008    5.242354   -1.745460   -1.777003
  15 C     6.0000    0    12.011    8.128238    0.569984   -0.089893
  16 H     1.0000    0     1.008    8.405511    1.773311   -1.751399
  17 H     1.0000    0     1.008    8.342271    1.808606    1.555272
  18 C     6.0000    0    12.011   10.170034   -1.469297   -0.028878
  19 H     1.0000    0     1.008   10.053004   -2.696669   -1.686949
  20 H     1.0000    0     1.008    9.982694   -2.666905    1.644529
  21 C     6.0000    0    12.011   -2.835185   -4.781143   -0.002094
  22 H     1.0000    0     1.008   -4.099855   -4.771594    1.637761
  23 H     1.0000    0     1.008   -4.100236   -4.766137   -1.641545
  24 C     6.0000    0    12.011   -1.309810   -7.231316   -0.006911
  25 H     1.0000    0     1.008   -0.067184   -7.285155   -1.662491
  26 H     1.0000    0     1.008   -0.072012   -7.293966    1.651806
  27 C     6.0000    0    12.011   -2.990676   -9.583821   -0.016938
  28 H     1.0000    0     1.008   -4.241004   -9.537359    1.632627
  29 H     1.0000    0     1.008   -4.229459   -9.528661   -1.674618
  30 C     6.0000    0    12.011   -1.493895  -12.051977   -0.018059
  31 H     1.0000    0     1.008   -0.287997  -12.197575    1.653506
  32 H     1.0000    0     1.008   -0.271949  -12.186434   -1.678849
  33 C     6.0000    0    12.011   -7.598868    0.202282   -0.005370
  34 H     1.0000    0     1.008   -9.604562    0.291003   -0.007715
  35 H     1.0000    0     1.008   12.058079   -0.638856    0.003620
  36 H     1.0000    0     1.008   -2.748684  -13.689260   -0.029581

--------------------------------
INTERNAL COORDINATES (ANGSTROEM)
--------------------------------
 C      0   0   0     0.000000000000     0.00000000     0.00000000
 C      1   0   0     4.212549303454     0.00000000     0.00000000
 C      2   1   0     1.411086633428    60.54702879     0.00000000
 C      3   2   1     1.387761920996   117.30034524     0.00000000
 C      4   3   2     1.401863375292   122.41485317     0.00000000
 C      5   4   3     1.411133481108   120.27947144     0.00000000
 C      6   5   4     1.387646348646   117.31337577     0.00000000
 H      4   3   2     1.080892855044   119.90109021   180.04044018
 H      7   6   5     1.080883273782   119.89727687   180.00769194
 C      3   2   1     1.512744356891   119.97477233   179.86285303
 H     10   3   2     1.095698455027   108.24426050    54.99040043
 H     10   3   2     1.095984883155   108.21194902   302.06568303
 C      2   1   3     1.512744349318   170.16416868   195.60448595
 H     13   2   7     1.095693645685    86.26982930   305.41639418
 H     13   2   7     1.095768264275    92.66265360    51.60778411
 C     13   2   7     1.530103936114   147.81356287   184.76473695
 H     16  13   2     1.095470905821   109.20155258   294.97971381
 H     16  13   2     1.095609710512   109.25405828    50.53647388
 C     16  13   2     1.527418100358   113.22077310   172.77123366
 H     19  16  13     1.093405663811   111.26298545    60.02490182
 H     19  16  13     1.093446445523   111.25201123   300.20526419
 C      6   5   4     1.512848780336   119.96591861   180.06749764
 H     22   6   5     1.095870924105   108.20701101   303.46272917
 H     22   6   5     1.095841281134   108.16016191    56.35991169
 C     22   6   5     1.527310222597   116.81581982   179.87986148
 H     25  22   6     1.095787989935   109.91080347   301.80953668
 H     25  22   6     1.095717639302   109.89438895    58.48003791
 C     25  22   6     1.530016852502   112.54969228   180.16815780
 H     28  25  22     1.095606289580   109.27241885   302.32164834
 H     28  25  22     1.095477300878   109.20676463    57.88084967
 C     28  25  22     1.527494702029   113.21991690   180.08204844
 H     31  28  25     1.093428987579   111.25739340    60.04162327
 H     31  28  25     1.093420895170   111.26026010   300.21647161
 C      1   2   3     1.203849298127   178.06603760     4.11004971
 H     34   1   5     1.062406061917   179.87740535   201.14468535
 H     19  16  13     1.091620134709   111.30614094   180.12133594
 H     31  28  25     1.091609964378   111.29959344   180.12816969

---------------------------
INTERNAL COORDINATES (A.U.)
---------------------------
 C      0   0   0     0.000000000000     0.00000000     0.00000000
 C      1   0   0     7.960564509169     0.00000000     0.00000000
 C      2   1   0     2.666567288416    60.54702879     0.00000000
 C      3   2   1     2.622489969766   117.30034524     0.00000000
 C      4   3   2     2.649137856476   122.41485317     0.00000000
 C      5   4   3     2.666655817701   120.27947144     0.00000000
 C      6   5   4     2.622271569676   117.31337577     0.00000000
 H      4   3   2     2.042591476145   119.90109021   180.04044018
 H      7   6   5     2.042573370184   119.89727687   180.00769194
 C      3   2   1     2.858672545160   119.97477233   179.86285303
 H     10   3   2     2.070570005361   108.24426050    54.99040043
 H     10   3   2     2.071111276080   108.21194902   302.06568303
 C      2   1   3     2.858672530848   170.16416868   195.60448595
 H     13   2   7     2.070560917023    86.26982930   305.41639418
 H     13   2   7     2.070701925722    92.66265360    51.60778411
 C     13   2   7     2.891477395689   147.81356287   184.76473695
 H     16  13   2     2.070139999680   109.20155258   294.97971381
 H     16  13   2     2.070402302532   109.25405828    50.53647388
 C     16  13   2     2.886401901670   113.22077310   172.77123366
 H     19  16  13     2.066237257880   111.26298545    60.02490182
 H     19  16  13     2.066314324147   111.25201123   300.20526419
 C      6   5   4     2.858869876871   119.96591861   180.06749764
 H     22   6   5     2.070895924685   108.20701101   303.46272917
 H     22   6   5     2.070839907588   108.16016191    56.35991169
 C     22   6   5     2.886198042247   116.81581982   179.87986148
 H     25  22   6     2.070739201817   109.91080347   301.80953668
 H     25  22   6     2.070606258388   109.89438895    58.48003791
 C     25  22   6     2.891312831512   112.54969228   180.16815780
 H     28  25  22     2.070395837908   109.27241885   302.32164834
 H     28  25  22     2.070152084587   109.20676463    57.88084967
 C     28  25  22     2.886546657851   113.21991690   180.08204844
 H     31  28  25     2.066281333415   111.25739340    60.04162327
 H     31  28  25     2.066266040979   111.26026010   300.21647161
 C      1   2   3     2.274945479974   178.06603760     4.11004971
 H     34   1   5     2.007656500042   179.87740535   201.14468535
 H     19  16  13     2.062863096874   111.30614094   180.12133594
 H     31  28  25     2.062843877734   111.29959344   180.12816969

---------------------
BASIS SET INFORMATION
---------------------
There are 2 groups of distinct atoms

 Group   1 Type C   : 17s4p1d contracted to 3s2p1d pattern {881/31/1}
 Group   2 Type H   : 4s1p contracted to 2s1p pattern {31/1}

Atom   0C    basis set group =>   1
Atom   1C    basis set group =>   1
Atom   2C    basis set group =>   1
Atom   3C    basis set group =>   1
Atom   4C    basis set group =>   1
Atom   5C    basis set group =>   1
Atom   6C    basis set group =>   1
Atom   7H    basis set group =>   2
Atom   8H    basis set group =>   2
Atom   9C    basis set group =>   1
Atom  10H    basis set group =>   2
Atom  11H    basis set group =>   2
Atom  12C    basis set group =>   1
Atom  13H    basis set group =>   2
Atom  14H    basis set group =>   2
Atom  15C    basis set group =>   1
Atom  16H    basis set group =>   2
Atom  17H    basis set group =>   2
Atom  18C    basis set group =>   1
Atom  19H    basis set group =>   2
Atom  20H    basis set group =>   2
Atom  21C    basis set group =>   1
Atom  22H    basis set group =>   2
Atom  23H    basis set group =>   2
Atom  24C    basis set group =>   1
Atom  25H    basis set group =>   2
Atom  26H    basis set group =>   2
Atom  27C    basis set group =>   1
Atom  28H    basis set group =>   2
Atom  29H    basis set group =>   2
Atom  30C    basis set group =>   1
Atom  31H    basis set group =>   2
Atom  32H    basis set group =>   2
Atom  33C    basis set group =>   1
Atom  34H    basis set group =>   2
Atom  35H    basis set group =>   2
Atom  36H    basis set group =>   2


           ************************************************************
           *        Program running with 16 parallel MPI-processes    *
           *              working on a common directory               *
           ************************************************************
------------------------------------------------------------------------------
                           ORCA GTO INTEGRAL CALCULATION
------------------------------------------------------------------------------

                         BASIS SET STATISTICS AND STARTUP INFO

 # of primitive gaussian shells          ...  457
 # of primitive gaussian functions       ...  691
 # of contracted shells                  ...  159
 # of contracted basis functions         ...  329
 Highest angular momentum                ...    2
 Maximum contraction depth               ...    8
 Integral package used                   ... LIBINT
 Integral threshhold            Thresh   ...  2.500e-11
 Primitive cut-off              TCut     ...  2.500e-12


------------------------------ INTEGRAL EVALUATION ----------------------------


 * One electron integrals 
 Pre-screening matrix                    ... done
 Shell pair data                         ... done (   0.006 sec)



           ************************************************************
           *        Program running with 16 parallel MPI-processes    *
           *              working on a common directory               *
           ************************************************************
-------------------------------------------------------------------------------
                                 ORCA SCF
-------------------------------------------------------------------------------

------------
SCF SETTINGS
------------
Hamiltonian:
 Density Functional     Method          .... DFT(GTOs)
 Exchange Functional    Exchange        .... B88
   X-Alpha parameter    XAlpha          ....  0.666667
   Becke's b parameter  XBeta           ....  0.004200
 Correlation Functional Correlation     .... LYP
 LDA part of GGA corr.  LDAOpt          .... VWN-5
 Gradients option       PostSCFGGA      .... off
 Hybrid DFT is turned on
   Fraction HF Exchange ScalHFX         ....  0.200000
   Scaling of DF-GGA-X  ScalDFX         ....  0.720000
   Scaling of DF-GGA-C  ScalDFC         ....  0.810000
   Scaling of DF-LDA-C  ScalLDAC        ....  1.000000
   Perturbative correction              ....  0.000000
   Density functional embedding theory  .... OFF
   NL short-range parameter             ....  4.800000


General Settings:
 Integral files         IntName         .... opt
 Hartree-Fock type      HFTyp           .... UHF
 Total Charge           Charge          ....    0
 Multiplicity           Mult            ....    2
 Number of Electrons    NEL             ....  117
 Basis Dimension        Dim             ....  329
 Nuclear Repulsion      ENuc            ....   1002.5446695569 Eh

Convergence Acceleration:
 DIIS                   CNVDIIS         .... on
   Start iteration      DIISMaxIt       ....    12
   Startup error        DIISStart       ....  0.200000
   # of expansion vecs  DIISMaxEq       ....     5
   Bias factor          DIISBfac        ....   1.050
   Max. coefficient     DIISMaxC        ....  10.000
 Newton-Raphson         CNVNR           .... off
 SOSCF                  CNVSOSCF        .... off
 Level Shifting         CNVShift        .... on
   Level shift para.    LevelShift      ....    0.2500
   Turn off err/grad.   ShiftErr        ....    0.0010
 Zerner damping         CNVZerner       .... off
 Static damping         CNVDamp         .... on
   Fraction old density DampFac         ....    0.7000
   Max. Damping (<1)    DampMax         ....    0.9800
   Min. Damping (>=0)   DampMin         ....    0.0000
   Turn off err/grad.   DampErr         ....    0.1000
 Fernandez-Rico         CNVRico         .... off

SCF Procedure:
 Maximum # iterations   MaxIter         ....   125
 SCF integral mode      SCFMode         .... Direct
   Integral package                     .... LIBINT
 Reset frequency        DirectResetFreq ....    20
 Integral Threshold     Thresh          ....  2.500e-11 Eh
 Primitive CutOff       TCut            ....  2.500e-12 Eh

Convergence Tolerance:
 Convergence Check Mode ConvCheckMode   .... Total+1el-Energy
 Convergence forced     ConvForced      .... 0
 Energy Change          TolE            ....  1.000e-08 Eh
 1-El. energy change                    ....  1.000e-05 Eh
 DIIS Error             TolErr          ....  5.000e-07


Diagonalization of the overlap matrix:
Smallest eigenvalue                        ... 1.422e-04
Time for diagonalization                   ...    0.027 sec
Threshold for overlap eigenvalues          ... 1.000e-08
Number of eigenvalues below threshold      ... 0
Time for construction of square roots      ...    0.032 sec
Total time needed                          ...    0.060 sec

-------------------
DFT GRID GENERATION
-------------------

General Integration Accuracy     IntAcc      ...  4.340
Radial Grid Type                 RadialGrid  ... Gauss-Chebyshev
Angular Grid (max. acc.)         AngularGrid ... Lebedev-110
Angular grid pruning method      GridPruning ... 3 (G Style)
Weight generation scheme         WeightScheme... Becke
Basis function cutoff            BFCut       ...    1.0000e-11
Integration weight cutoff        WCut        ...    1.0000e-14
Grids for H and He will be reduced by one unit

# of grid points (after initial pruning)     ...  43170 (   0.0 sec)
# of grid points (after weights+screening)   ...  38622 (   0.1 sec)
nearest neighbour list constructed           ...    0.0 sec
Grid point re-assignment to atoms done       ...    0.0 sec
Grid point division into batches done        ...    0.0 sec
Reduced shell lists constructed in    0.1 sec

Total number of grid points                  ...    38622
Total number of batches                      ...      622
Average number of points per batch           ...       62
Average number of grid points per atom       ...     1044
Average number of shells per batch           ...   100.33 (63.10%)
Average number of basis functions per batch  ...   201.23 (61.16%)
Average number of large shells per batch     ...    69.75 (69.52%)
Average number of large basis fcns per batch ...   143.90 (71.51%)
Maximum spatial batch extension              ...   2.80,  4.71,  9.42 au
Average spatial batch extension              ...   0.11,  0.13,  0.14 au

Time for grid setup =    0.289 sec

------------------------------
INITIAL GUESS: MODEL POTENTIAL
------------------------------
Loading Hartree-Fock densities                     ... done
Calculating cut-offs                               ... done
Setting up the integral package                    ... done
Initializing the effective Hamiltonian             ... done
Starting the Coulomb interaction                   ... done (   0.1 sec)
Reading the grid                                   ... done
Mapping shells                                     ... done
Starting the XC term evaluation                    ... done (   0.1 sec)
  promolecular density results
     # of electrons  =    117.019306953
     EX              =    -88.458678779
     EC              =     -3.818626380
     EX+EC           =    -92.277305160
Transforming the Hamiltonian                       ... done (   0.0 sec)
Diagonalizing the Hamiltonian                      ... done (   0.0 sec)
Back transforming the eigenvectors                 ... done (   0.0 sec)
Now organizing SCF variables                       ... done
                      ------------------
                      INITIAL GUESS DONE (   0.7 sec)
                      ------------------
--------------
SCF ITERATIONS
--------------
ITER       Energy         Delta-E        Max-DP      RMS-DP      [F,P]     Damp
               ***  Starting incremental Fock matrix formation  ***
  0   -621.3503381189   0.000000000000 0.07057161  0.00094829  0.1770301 0.7000
  1   -621.5359013563  -0.185563237388 0.05124301  0.00069722  0.0937268 0.7000
                               ***Turning on DIIS***
  2   -621.6192468217  -0.083345465394 0.09875205  0.00131407  0.0363091 0.0000
  3   -621.7354266469  -0.116179825264 0.02165432  0.00038482  0.0506252 0.0000
  4   -621.7665225265  -0.031095879603 0.00930538  0.00013262  0.0131499 0.0000
  5   -621.7682498085  -0.001727281981 0.00197402  0.00004191  0.0029447 0.0000
  6   -621.7683906230  -0.000140814481 0.00082141  0.00001677  0.0016872 0.0000
  7   -621.7684071262  -0.000016503161 0.00056752  0.00001171  0.0007943 0.0000
  8   -621.7684118192  -0.000004693057 0.00018577  0.00000306  0.0003601 0.0000
  9   -621.7684125685  -0.000000749284 0.00009574  0.00000133  0.0001053 0.0000
 10   -621.7684127630  -0.000000194483 0.00007970  0.00000101  0.0000470 0.0000
 11   -621.7684128493  -0.000000086266 0.00003742  0.00000039  0.0000267 0.0000
 12   -621.7684128738  -0.000000024529 0.00003255  0.00000036  0.0000069 0.0000
 13   -621.7684128886  -0.000000014811 0.00001139  0.00000012  0.0000080 0.0000
 14   -621.7684128910  -0.000000002375 0.00001658  0.00000018  0.0000069 0.0000
 15   -621.7684128935  -0.000000002505 0.00000927  0.00000010  0.0000030 0.0000
                 **** Energy Check signals convergence ****

               *****************************************************
               *                     SUCCESS                       *
               *           SCF CONVERGED AFTER  16 CYCLES          *
               *****************************************************

Setting up the final grid:

General Integration Accuracy     IntAcc      ...  4.670
Radial Grid Type                 RadialGrid  ... Gauss-Chebyshev
Angular Grid (max. acc.)         AngularGrid ... Lebedev-302
Angular grid pruning method      GridPruning ... 3 (G Style)
Weight generation scheme         WeightScheme... Becke
Basis function cutoff            BFCut       ...    1.0000e-11
Integration weight cutoff        WCut        ...    1.0000e-14
Grids for H and He will be reduced by one unit

# of grid points (after initial pruning)     ... 170666 (   0.0 sec)
# of grid points (after weights+screening)   ... 150000 (   0.3 sec)
nearest neighbour list constructed           ...    0.0 sec
Grid point re-assignment to atoms done       ...    0.0 sec
Grid point division into batches done        ...    0.5 sec
Reduced shell lists constructed in    0.7 sec

Total number of grid points                  ...   150000
Total number of batches                      ...     2363
Average number of points per batch           ...       63
Average number of grid points per atom       ...     4054
Average number of shells per batch           ...    95.77 (60.23%)
Average number of basis functions per batch  ...   191.69 (58.26%)
Average number of large shells per batch     ...    65.81 (68.72%)
Average number of large basis fcns per batch ...   135.97 (70.93%)
Maximum spatial batch extension              ...   5.59,  6.54, 15.64 au
Average spatial batch extension              ...   0.08,  0.08,  0.09 au

Final grid set up in    1.1 sec
Final integration                            ... done (   0.5 sec)
Change in XC energy                          ...     0.001848639
Integrated number of electrons               ...   117.000008094
Previous integrated no of electrons          ...   117.016641390

----------------
TOTAL SCF ENERGY
----------------

Total Energy       :         -621.76656425 Eh          -16919.12837 eV

Components:
Nuclear Repulsion  :         1002.54466956 Eh           27280.62738 eV
Electronic Energy  :        -1624.31123381 Eh          -44199.75574 eV
One Electron Energy:        -2826.95705103 Eh          -76925.41217 eV
Two Electron Energy:         1202.64581722 Eh           32725.65643 eV

Virial components:
Potential Energy   :        -1239.62249479 Eh          -33731.84298 eV
Kinetic Energy     :          617.85593054 Eh           16812.71461 eV
Virial Ratio       :            2.00632936


DFT components:
N(Alpha)           :       58.999994565421 electrons
N(Beta)            :       58.000013528295 electrons
N(Total)           :      117.000008093716 electrons
E(X)               :      -71.702730583854 Eh       
E(C)               :       -4.509574283811 Eh       
E(XC)              :      -76.212304867665 Eh       
DFET-embed. en.    :        0.000000000000 Eh       

---------------
SCF CONVERGENCE
---------------

  Last Energy change         ...   -2.9308e-10  Tolerance :   1.0000e-08
  Last MAX-Density change    ...    1.0153e-05  Tolerance :   1.0000e-07
  Last RMS-Density change    ...    1.1020e-07  Tolerance :   5.0000e-09
  Last DIIS Error            ...    8.1298e-07  Tolerance :   5.0000e-07

             **** THE GBW FILE WAS UPDATED (opt.gbw) ****
             **** DENSITY FILE WAS UPDATED (opt.scfp) ****
             **** ENERGY FILE WAS UPDATED (opt.en.tmp) ****
----------------------
UHF SPIN CONTAMINATION
----------------------

Warning: in a DFT calculation there is little theoretical justification to 
         calculate <S**2> as in Hartree-Fock theory. We will do it anyways
         but you should keep in mind that the values have only limited relevance

Expectation value of <S**2>     :     0.752604
Ideal value S*(S+1) for S=0.5   :     0.750000
Deviation                       :     0.002604

             **** THE GBW FILE WAS UPDATED (opt.gbw) ****
             **** DENSITY FILE WAS UPDATED (opt.scfp) ****
----------------
ORBITAL ENERGIES
----------------
                 SPIN UP ORBITALS
  NO   OCC          E(Eh)            E(eV) 
   0   1.0000     -10.210263      -277.8354 
   1   1.0000     -10.204295      -277.6730 
   2   1.0000     -10.196897      -277.4717 
   3   1.0000     -10.195111      -277.4231 
   4   1.0000     -10.192951      -277.3643 
   5   1.0000     -10.191694      -277.3301 
   6   1.0000     -10.185056      -277.1495 
   7   1.0000     -10.183374      -277.1037 
   8   1.0000     -10.182054      -277.0678 
   9   1.0000     -10.180474      -277.0248 
  10   1.0000     -10.179621      -277.0016 
  11   1.0000     -10.177852      -276.9534 
  12   1.0000     -10.177673      -276.9486 
  13   1.0000     -10.177293      -276.9382 
  14   1.0000     -10.173283      -276.8291 
  15   1.0000     -10.171937      -276.7925 
  16   1.0000      -0.872020       -23.7289 
  17   1.0000      -0.816556       -22.2196 
  18   1.0000      -0.799883       -21.7659 
  19   1.0000      -0.779242       -21.2043 
  20   1.0000      -0.767453       -20.8835 
  21   1.0000      -0.738282       -20.0897 
  22   1.0000      -0.723731       -19.6937 
  23   1.0000      -0.688028       -18.7222 
  24   1.0000      -0.673197       -18.3186 
  25   1.0000      -0.629662       -17.1340 
  26   1.0000      -0.621329       -16.9072 
  27   1.0000      -0.599995       -16.3267 
  28   1.0000      -0.577400       -15.7118 
  29   1.0000      -0.553783       -15.0692 
  30   1.0000      -0.521875       -14.2009 
  31   1.0000      -0.488450       -13.2914 
  32   1.0000      -0.475108       -12.9284 
  33   1.0000      -0.474173       -12.9029 
  34   1.0000      -0.470967       -12.8157 
  35   1.0000      -0.457043       -12.4368 
  36   1.0000      -0.427794       -11.6409 
  37   1.0000      -0.426808       -11.6140 
  38   1.0000      -0.417568       -11.3626 
  39   1.0000      -0.415874       -11.3165 
  40   1.0000      -0.413810       -11.2603 
  41   1.0000      -0.403104       -10.9690 
  42   1.0000      -0.390516       -10.6265 
  43   1.0000      -0.387880       -10.5548 
  44   1.0000      -0.370103       -10.0710 
  45   1.0000      -0.368026       -10.0145 
  46   1.0000      -0.361402        -9.8342 
  47   1.0000      -0.347105        -9.4452 
  48   1.0000      -0.342385        -9.3168 
  49   1.0000      -0.336041        -9.1441 
  50   1.0000      -0.327072        -8.9001 
  51   1.0000      -0.322503        -8.7758 
  52   1.0000      -0.322222        -8.7681 
  53   1.0000      -0.307267        -8.3612 
  54   1.0000      -0.286787        -7.8039 
  55   1.0000      -0.268663        -7.3107 
  56   1.0000      -0.258729        -7.0404 
  57   1.0000      -0.240485        -6.5439 
  58   1.0000      -0.212349        -5.7783 
  59   0.0000      -0.024870        -0.6767 
  60   0.0000       0.002225         0.0606 
  61   0.0000       0.047625         1.2959 
  62   0.0000       0.056610         1.5404 
  63   0.0000       0.064233         1.7479 
  64   0.0000       0.074501         2.0273 
  65   0.0000       0.079107         2.1526 
  66   0.0000       0.083614         2.2753 
  67   0.0000       0.090205         2.4546 
  68   0.0000       0.093972         2.5571 
  69   0.0000       0.098858         2.6901 
  70   0.0000       0.100732         2.7411 
  71   0.0000       0.108708         2.9581 
  72   0.0000       0.116069         3.1584 
  73   0.0000       0.135351         3.6831 
  74   0.0000       0.137734         3.7479 
  75   0.0000       0.144571         3.9340 
  76   0.0000       0.151634         4.1262 
  77   0.0000       0.153220         4.1693 
  78   0.0000       0.153989         4.1903 
  79   0.0000       0.159476         4.3396 
  80   0.0000       0.169680         4.6172 
  81   0.0000       0.171172         4.6578 
  82   0.0000       0.176638         4.8066 
  83   0.0000       0.188180         5.1206 
  84   0.0000       0.191066         5.1992 
  85   0.0000       0.212431         5.7805 
  86   0.0000       0.214872         5.8470 
  87   0.0000       0.223003         6.0682 
  88   0.0000       0.226313         6.1583 
  89   0.0000       0.243331         6.6214 
  90   0.0000       0.244183         6.6446 
  91   0.0000       0.266215         7.2441 
  92   0.0000       0.267928         7.2907 
  93   0.0000       0.301751         8.2111 
  94   0.0000       0.318686         8.6719 
  95   0.0000       0.327913         8.9230 
  96   0.0000       0.359219         9.7748 
  97   0.0000       0.368484        10.0270 
  98   0.0000       0.372480        10.1357 
  99   0.0000       0.386362        10.5135 
 100   0.0000       0.404936        11.0189 
 101   0.0000       0.414590        11.2816 
 102   0.0000       0.417173        11.3519 
 103   0.0000       0.423404        11.5214 
 104   0.0000       0.424457        11.5501 
 105   0.0000       0.428903        11.6710 
 106   0.0000       0.441017        12.0007 
 107   0.0000       0.451873        12.2961 
 108   0.0000       0.457630        12.4527 
 109   0.0000       0.473210        12.8767 
 110   0.0000       0.476385        12.9631 
 111   0.0000       0.491990        13.3877 
 112   0.0000       0.496391        13.5075 
 113   0.0000       0.508537        13.8380 
 114   0.0000       0.508928        13.8486 
 115   0.0000       0.513817        13.9817 
 116   0.0000       0.530609        14.4386 
 117   0.0000       0.532785        14.4978 
 118   0.0000       0.540134        14.6978 
 119   0.0000       0.548518        14.9259 
 120   0.0000       0.561697        15.2846 
 121   0.0000       0.562252        15.2997 
 122   0.0000       0.568748        15.4764 
 123   0.0000       0.589823        16.0499 
 124   0.0000       0.597764        16.2660 
 125   0.0000       0.606372        16.5002 
 126   0.0000       0.614445        16.7199 
 127   0.0000       0.619694        16.8627 
 128   0.0000       0.628631        17.1059 
 129   0.0000       0.629408        17.1271 
 130   0.0000       0.634749        17.2724 
 131   0.0000       0.640696        17.4342 
 132   0.0000       0.649902        17.6847 
 133   0.0000       0.651722        17.7343 
 134   0.0000       0.652099        17.7445 
 135   0.0000       0.654728        17.8160 
 136   0.0000       0.657013        17.8782 
 137   0.0000       0.664905        18.0930 
 138   0.0000       0.668861        18.2006 
 139   0.0000       0.674580        18.3563 
 140   0.0000       0.678820        18.4716 
 141   0.0000       0.680180        18.5086 
 142   0.0000       0.682947        18.5839 
 143   0.0000       0.693008        18.8577 
 144   0.0000       0.696800        18.9609 
 145   0.0000       0.699025        19.0214 
 146   0.0000       0.707696        19.2574 
 147   0.0000       0.716918        19.5083 
 148   0.0000       0.718584        19.5537 
 149   0.0000       0.726662        19.7735 
 150   0.0000       0.730103        19.8671 
 151   0.0000       0.732496        19.9322 
 152   0.0000       0.741611        20.1803 
 153   0.0000       0.744191        20.2505 
 154   0.0000       0.749813        20.4035 
 155   0.0000       0.756431        20.5835 
 156   0.0000       0.767330        20.8801 
 157   0.0000       0.776052        21.1175 
 158   0.0000       0.787601        21.4317 
 159   0.0000       0.821383        22.3510 
 160   0.0000       0.832066        22.6417 
 161   0.0000       0.841580        22.9006 
 162   0.0000       0.846130        23.0244 
 163   0.0000       0.864911        23.5354 
 164   0.0000       0.879209        23.9245 
 165   0.0000       0.881238        23.9797 
 166   0.0000       0.904730        24.6190 
 167   0.0000       0.914606        24.8877 
 168   0.0000       0.929633        25.2966 
 169   0.0000       0.939281        25.5591 
 170   0.0000       0.966982        26.3129 
 171   0.0000       0.982967        26.7479 
 172   0.0000       1.003159        27.2974 
 173   0.0000       1.021421        27.7943 
 174   0.0000       1.038369        28.2554 
 175   0.0000       1.042081        28.3565 
 176   0.0000       1.049389        28.5553 
 177   0.0000       1.064234        28.9593 
 178   0.0000       1.086046        29.5528 
 179   0.0000       1.089644        29.6507 
 180   0.0000       1.095832        29.8191 
 181   0.0000       1.123850        30.5815 
 182   0.0000       1.150416        31.3044 
 183   0.0000       1.163031        31.6477 
 184   0.0000       1.181485        32.1498 
 185   0.0000       1.192255        32.4429 
 186   0.0000       1.209620        32.9154 
 187   0.0000       1.211488        32.9663 
 188   0.0000       1.214404        33.0456 
 189   0.0000       1.221451        33.2374 
 190   0.0000       1.222659        33.2703 
 191   0.0000       1.228592        33.4317 
 192   0.0000       1.248490        33.9731 
 193   0.0000       1.290531        35.1171 
 194   0.0000       1.292939        35.1827 
 195   0.0000       1.310287        35.6547 
 196   0.0000       1.320892        35.9433 
 197   0.0000       1.328873        36.1605 
 198   0.0000       1.340214        36.4691 
 199   0.0000       1.346847        36.6496 
 200   0.0000       1.355302        36.8796 
 201   0.0000       1.361174        37.0394 
 202   0.0000       1.389386        37.8071 
 203   0.0000       1.395326        37.9688 
 204   0.0000       1.420997        38.6673 
 205   0.0000       1.424455        38.7614 
 206   0.0000       1.426767        38.8243 
 207   0.0000       1.433144        38.9978 
 208   0.0000       1.449239        39.4358 
 209   0.0000       1.464643        39.8550 
 210   0.0000       1.472582        40.0710 
 211   0.0000       1.477118        40.1944 
 212   0.0000       1.498641        40.7801 
 213   0.0000       1.514792        41.2196 
 214   0.0000       1.523705        41.4621 
 215   0.0000       1.525016        41.4978 
 216   0.0000       1.530346        41.6428 
 217   0.0000       1.546010        42.0691 
 218   0.0000       1.548977        42.1498 
 219   0.0000       1.572609        42.7929 
 220   0.0000       1.587379        43.1948 
 221   0.0000       1.588318        43.2203 
 222   0.0000       1.601727        43.5852 
 223   0.0000       1.609817        43.8053 
 224   0.0000       1.614855        43.9424 
 225   0.0000       1.626638        44.2631 
 226   0.0000       1.632043        44.4101 
 227   0.0000       1.636294        44.5258 
 228   0.0000       1.640008        44.6269 
 229   0.0000       1.640553        44.6417 
 230   0.0000       1.645886        44.7868 
 231   0.0000       1.649073        44.8735 
 232   0.0000       1.661610        45.2147 
 233   0.0000       1.665059        45.3086 
 234   0.0000       1.670217        45.4489 
 235   0.0000       1.678093        45.6632 
 236   0.0000       1.686379        45.8887 
 237   0.0000       1.692170        46.0463 
 238   0.0000       1.695515        46.1373 
 239   0.0000       1.707023        46.4505 
 240   0.0000       1.708143        46.4809 
 241   0.0000       1.711373        46.5688 
 242   0.0000       1.713304        46.6214 
 243   0.0000       1.714825        46.6628 
 244   0.0000       1.725957        46.9657 
 245   0.0000       1.737768        47.2871 
 246   0.0000       1.749539        47.6074 
 247   0.0000       1.763794        47.9953 
 248   0.0000       1.774758        48.2936 
 249   0.0000       1.779950        48.4349 
 250   0.0000       1.787106        48.6296 
 251   0.0000       1.792983        48.7896 
 252   0.0000       1.803775        49.0832 
 253   0.0000       1.808621        49.2151 
 254   0.0000       1.818968        49.4966 
 255   0.0000       1.833502        49.8921 
 256   0.0000       1.838816        50.0367 
 257   0.0000       1.844863        50.2013 
 258   0.0000       1.868727        50.8506 
 259   0.0000       1.879650        51.1479 
 260   0.0000       1.891793        51.4783 
 261   0.0000       1.904793        51.8321 
 262   0.0000       1.912239        52.0347 
 263   0.0000       1.918786        52.2128 
 264   0.0000       1.935167        52.6586 
 265   0.0000       1.957285        53.2604 
 266   0.0000       1.971532        53.6481 
 267   0.0000       1.986869        54.0655 
 268   0.0000       1.991692        54.1967 
 269   0.0000       1.999367        54.4055 
 270   0.0000       2.022645        55.0390 
 271   0.0000       2.029041        55.2130 
 272   0.0000       2.036895        55.4267 
 273   0.0000       2.058834        56.0237 
 274   0.0000       2.083640        56.6987 
 275   0.0000       2.084070        56.7104 
 276   0.0000       2.104962        57.2789 
 277   0.0000       2.117217        57.6124 
 278   0.0000       2.121720        57.7349 
 279   0.0000       2.133518        58.0560 
 280   0.0000       2.137791        58.1723 
 281   0.0000       2.182509        59.3891 
 282   0.0000       2.190200        59.5984 
 283   0.0000       2.207950        60.0814 
 284   0.0000       2.217651        60.3454 
 285   0.0000       2.221246        60.4432 
 286   0.0000       2.230049        60.6827 
 287   0.0000       2.233820        60.7853 
 288   0.0000       2.243260        61.0422 
 289   0.0000       2.252022        61.2806 
 290   0.0000       2.278354        61.9972 
 291   0.0000       2.289811        62.3089 
 292   0.0000       2.310812        62.8804 
 293   0.0000       2.315243        63.0010 
 294   0.0000       2.325673        63.2848 
 295   0.0000       2.335778        63.5597 
 296   0.0000       2.339596        63.6636 
 297   0.0000       2.365278        64.3625 
 298   0.0000       2.366691        64.4009 
 299   0.0000       2.407704        65.5169 
 300   0.0000       2.425409        65.9987 
 301   0.0000       2.432322        66.1868 
 302   0.0000       2.436643        66.3044 
 303   0.0000       2.442233        66.4565 
 304   0.0000       2.444732        66.5245 
 305   0.0000       2.456513        66.8451 
 306   0.0000       2.476623        67.3923 
 307   0.0000       2.487398        67.6855 
 308   0.0000       2.512332        68.3640 
 309   0.0000       2.519779        68.5667 
 310   0.0000       2.533780        68.9477 
 311   0.0000       2.542643        69.1888 
 312   0.0000       2.554179        69.5027 
 313   0.0000       2.599074        70.7244 
 314   0.0000       2.614075        71.1326 
 315   0.0000       2.625499        71.4435 
 316   0.0000       2.674817        72.7855 
 317   0.0000       2.680848        72.9496 
 318   0.0000       2.693704        73.2994 
 319   0.0000       2.700567        73.4862 
 320   0.0000       2.734229        74.4022 
 321   0.0000       2.741605        74.6029 
 322   0.0000       2.750949        74.8571 
 323   0.0000       2.810961        76.4901 
 324   0.0000       2.858259        77.7772 
 325   0.0000       2.878349        78.3239 
 326   0.0000       2.946204        80.1703 
 327   0.0000       3.247006        88.3555 
 328   0.0000       3.382196        92.0342 

                 SPIN DOWN ORBITALS
  NO   OCC          E(Eh)            E(eV) 
   0   1.0000     -10.203394      -277.6485 
   1   1.0000     -10.196922      -277.4724 
   2   1.0000     -10.195142      -277.4239 
   3   1.0000     -10.195087      -277.4224 
   4   1.0000     -10.192937      -277.3639 
   5   1.0000     -10.191867      -277.3348 
   6   1.0000     -10.185060      -277.1496 
   7   1.0000     -10.182992      -277.0933 
   8   1.0000     -10.182040      -277.0674 
   9   1.0000     -10.180475      -277.0248 
  10   1.0000     -10.179609      -277.0012 
  11   1.0000     -10.177851      -276.9534 
  12   1.0000     -10.177671      -276.9485 
  13   1.0000     -10.177161      -276.9346 
  14   1.0000     -10.173297      -276.8295 
  15   1.0000     -10.171937      -276.7925 
  16   1.0000      -0.870612       -23.6906 
  17   1.0000      -0.815576       -22.1929 
  18   1.0000      -0.799339       -21.7511 
  19   1.0000      -0.776348       -21.1255 
  20   1.0000      -0.765399       -20.8276 
  21   1.0000      -0.737044       -20.0560 
  22   1.0000      -0.718451       -19.5500 
  23   1.0000      -0.685201       -18.6453 
  24   1.0000      -0.665105       -18.0984 
  25   1.0000      -0.623601       -16.9690 
  26   1.0000      -0.620806       -16.8930 
  27   1.0000      -0.596009       -16.2182 
  28   1.0000      -0.576489       -15.6871 
  29   1.0000      -0.553473       -15.0608 
  30   1.0000      -0.519961       -14.1489 
  31   1.0000      -0.486611       -13.2413 
  32   1.0000      -0.474797       -12.9199 
  33   1.0000      -0.470986       -12.8162 
  34   1.0000      -0.470743       -12.8096 
  35   1.0000      -0.456870       -12.4321 
  36   1.0000      -0.427504       -11.6330 
  37   1.0000      -0.423883       -11.5344 
  38   1.0000      -0.414922       -11.2906 
  39   1.0000      -0.414543       -11.2803 
  40   1.0000      -0.411717       -11.2034 
  41   1.0000      -0.398734       -10.8501 
  42   1.0000      -0.388355       -10.5677 
  43   1.0000      -0.386834       -10.5263 
  44   1.0000      -0.369230       -10.0473 
  45   1.0000      -0.367565       -10.0019 
  46   1.0000      -0.358119        -9.7449 
  47   1.0000      -0.346868        -9.4388 
  48   1.0000      -0.340757        -9.2725 
  49   1.0000      -0.335811        -9.1379 
  50   1.0000      -0.326907        -8.8956 
  51   1.0000      -0.322392        -8.7727 
  52   1.0000      -0.321762        -8.7556 
  53   1.0000      -0.305498        -8.3130 
  54   1.0000      -0.286400        -7.7933 
  55   1.0000      -0.268355        -7.3023 
  56   1.0000      -0.240156        -6.5350 
  57   1.0000      -0.211903        -5.7662 
  58   0.0000      -0.087993        -2.3944 
  59   0.0000      -0.024257        -0.6601 
  60   0.0000       0.002150         0.0585 
  61   0.0000       0.048934         1.3316 
  62   0.0000       0.056877         1.5477 
  63   0.0000       0.064310         1.7500 
  64   0.0000       0.075438         2.0528 
  65   0.0000       0.080192         2.1821 
  66   0.0000       0.085498         2.3265 
  67   0.0000       0.090312         2.4575 
  68   0.0000       0.095313         2.5936 
  69   0.0000       0.098904         2.6913 
  70   0.0000       0.100791         2.7427 
  71   0.0000       0.108868         2.9625 
  72   0.0000       0.117631         3.2009 
  73   0.0000       0.135432         3.6853 
  74   0.0000       0.139409         3.7935 
  75   0.0000       0.148673         4.0456 
  76   0.0000       0.151724         4.1286 
  77   0.0000       0.153452         4.1756 
  78   0.0000       0.154182         4.1955 
  79   0.0000       0.159518         4.3407 
  80   0.0000       0.170161         4.6303 
  81   0.0000       0.171935         4.6786 
  82   0.0000       0.176703         4.8083 
  83   0.0000       0.188384         5.1262 
  84   0.0000       0.196318         5.3421 
  85   0.0000       0.212743         5.7890 
  86   0.0000       0.215095         5.8530 
  87   0.0000       0.224386         6.1059 
  88   0.0000       0.228262         6.2113 
  89   0.0000       0.244132         6.6432 
  90   0.0000       0.254221         6.9177 
  91   0.0000       0.267429         7.2771 
  92   0.0000       0.268968         7.3190 
  93   0.0000       0.302763         8.2386 
  94   0.0000       0.321068         8.7367 
  95   0.0000       0.331688         9.0257 
  96   0.0000       0.363050         9.8791 
  97   0.0000       0.371983        10.1222 
  98   0.0000       0.373391        10.1605 
  99   0.0000       0.393051        10.6955 
 100   0.0000       0.405049        11.0220 
 101   0.0000       0.414619        11.2824 
 102   0.0000       0.421122        11.4593 
 103   0.0000       0.423996        11.5375 
 104   0.0000       0.425969        11.5912 
 105   0.0000       0.434163        11.8142 
 106   0.0000       0.449048        12.2192 
 107   0.0000       0.455117        12.3844 
 108   0.0000       0.459520        12.5042 
 109   0.0000       0.475175        12.9302 
 110   0.0000       0.477824        13.0023 
 111   0.0000       0.493639        13.4326 
 112   0.0000       0.499793        13.6001 
 113   0.0000       0.509019        13.8511 
 114   0.0000       0.509687        13.8693 
 115   0.0000       0.519897        14.1471 
 116   0.0000       0.532143        14.4803 
 117   0.0000       0.533488        14.5169 
 118   0.0000       0.546150        14.8615 
 119   0.0000       0.549359        14.9488 
 120   0.0000       0.562858        15.3161 
 121   0.0000       0.565007        15.3746 
 122   0.0000       0.580046        15.7839 
 123   0.0000       0.593278        16.1439 
 124   0.0000       0.598074        16.2744 
 125   0.0000       0.609030        16.5726 
 126   0.0000       0.616480        16.7753 
 127   0.0000       0.620643        16.8886 
 128   0.0000       0.629745        17.1362 
 129   0.0000       0.630035        17.1441 
 130   0.0000       0.635657        17.2971 
 131   0.0000       0.643948        17.5227 
 132   0.0000       0.650432        17.6992 
 133   0.0000       0.652405        17.7528 
 134   0.0000       0.653267        17.7763 
 135   0.0000       0.655123        17.8268 
 136   0.0000       0.657247        17.8846 
 137   0.0000       0.665298        18.1037 
 138   0.0000       0.669333        18.2135 
 139   0.0000       0.674918        18.3655 
 140   0.0000       0.679100        18.4793 
 141   0.0000       0.683456        18.5978 
 142   0.0000       0.684850        18.6357 
 143   0.0000       0.693493        18.8709 
 144   0.0000       0.701254        19.0821 
 145   0.0000       0.702822        19.1248 
 146   0.0000       0.709851        19.3160 
 147   0.0000       0.717590        19.5266 
 148   0.0000       0.719541        19.5797 
 149   0.0000       0.727605        19.7991 
 150   0.0000       0.730882        19.8883 
 151   0.0000       0.732938        19.9442 
 152   0.0000       0.743835        20.2408 
 153   0.0000       0.746128        20.3032 
 154   0.0000       0.750588        20.4245 
 155   0.0000       0.757074        20.6010 
 156   0.0000       0.776912        21.1409 
 157   0.0000       0.778897        21.1949 
 158   0.0000       0.788371        21.4527 
 159   0.0000       0.822232        22.3741 
 160   0.0000       0.833013        22.6674 
 161   0.0000       0.841974        22.9113 
 162   0.0000       0.846517        23.0349 
 163   0.0000       0.866495        23.5785 
 164   0.0000       0.881137        23.9769 
 165   0.0000       0.883619        24.0445 
 166   0.0000       0.907512        24.6947 
 167   0.0000       0.915513        24.9124 
 168   0.0000       0.932085        25.3633 
 169   0.0000       0.946906        25.7666 
 170   0.0000       0.970464        26.4077 
 171   0.0000       0.984152        26.7801 
 172   0.0000       1.006935        27.4001 
 173   0.0000       1.022218        27.8160 
 174   0.0000       1.038663        28.2635 
 175   0.0000       1.047721        28.5099 
 176   0.0000       1.051906        28.6238 
 177   0.0000       1.067136        29.0383 
 178   0.0000       1.086662        29.5696 
 179   0.0000       1.091103        29.6904 
 180   0.0000       1.109592        30.1935 
 181   0.0000       1.131312        30.7846 
 182   0.0000       1.151162        31.3247 
 183   0.0000       1.163420        31.6583 
 184   0.0000       1.181812        32.1587 
 185   0.0000       1.192595        32.4522 
 186   0.0000       1.209697        32.9175 
 187   0.0000       1.211783        32.9743 
 188   0.0000       1.214657        33.0525 
 189   0.0000       1.221621        33.2420 
 190   0.0000       1.223171        33.2842 
 191   0.0000       1.228647        33.4332 
 192   0.0000       1.249078        33.9891 
 193   0.0000       1.291812        35.1520 
 194   0.0000       1.293570        35.1998 
 195   0.0000       1.312190        35.7065 
 196   0.0000       1.322213        35.9793 
 197   0.0000       1.330686        36.2098 
 198   0.0000       1.341234        36.4968 
 199   0.0000       1.347144        36.6576 
 200   0.0000       1.355624        36.8884 
 201   0.0000       1.361374        37.0449 
 202   0.0000       1.389945        37.8223 
 203   0.0000       1.407369        38.2965 
 204   0.0000       1.421097        38.6700 
 205   0.0000       1.424794        38.7706 
 206   0.0000       1.426907        38.8281 
 207   0.0000       1.433145        38.9979 
 208   0.0000       1.453053        39.5396 
 209   0.0000       1.465512        39.8786 
 210   0.0000       1.475802        40.1586 
 211   0.0000       1.477439        40.2032 
 212   0.0000       1.499439        40.8018 
 213   0.0000       1.515832        41.2479 
 214   0.0000       1.525282        41.5050 
 215   0.0000       1.529901        41.6307 
 216   0.0000       1.532707        41.7071 
 217   0.0000       1.549525        42.1647 
 218   0.0000       1.555060        42.3153 
 219   0.0000       1.573767        42.8244 
 220   0.0000       1.589594        43.2550 
 221   0.0000       1.590889        43.2903 
 222   0.0000       1.606603        43.7179 
 223   0.0000       1.615158        43.9507 
 224   0.0000       1.615486        43.9596 
 225   0.0000       1.629843        44.3503 
 226   0.0000       1.632888        44.4331 
 227   0.0000       1.636885        44.5419 
 228   0.0000       1.640159        44.6310 
 229   0.0000       1.641971        44.6803 
 230   0.0000       1.646998        44.8171 
 231   0.0000       1.649914        44.8965 
 232   0.0000       1.662204        45.2309 
 233   0.0000       1.666260        45.3412 
 234   0.0000       1.672662        45.5154 
 235   0.0000       1.680784        45.7365 
 236   0.0000       1.687609        45.9222 
 237   0.0000       1.692782        46.0629 
 238   0.0000       1.700088        46.2618 
 239   0.0000       1.708635        46.4943 
 240   0.0000       1.710248        46.5382 
 241   0.0000       1.712473        46.5988 
 242   0.0000       1.715893        46.6918 
 243   0.0000       1.716693        46.7136 
 244   0.0000       1.726172        46.9715 
 245   0.0000       1.738120        47.2967 
 246   0.0000       1.752578        47.6901 
 247   0.0000       1.764937        48.0264 
 248   0.0000       1.776591        48.3435 
 249   0.0000       1.783518        48.5320 
 250   0.0000       1.791387        48.7461 
 251   0.0000       1.798195        48.9314 
 252   0.0000       1.806258        49.1508 
 253   0.0000       1.809210        49.2311 
 254   0.0000       1.819881        49.5215 
 255   0.0000       1.837614        50.0040 
 256   0.0000       1.841101        50.0989 
 257   0.0000       1.850698        50.3600 
 258   0.0000       1.870262        50.8924 
 259   0.0000       1.883317        51.2477 
 260   0.0000       1.892854        51.5072 
 261   0.0000       1.905272        51.8451 
 262   0.0000       1.912978        52.0548 
 263   0.0000       1.919123        52.2220 
 264   0.0000       1.938369        52.7457 
 265   0.0000       1.957821        53.2750 
 266   0.0000       1.972301        53.6690 
 267   0.0000       1.989116        54.1266 
 268   0.0000       1.995165        54.2912 
 269   0.0000       2.004285        54.5394 
 270   0.0000       2.023385        55.0591 
 271   0.0000       2.029311        55.2204 
 272   0.0000       2.038331        55.4658 
 273   0.0000       2.061062        56.0844 
 274   0.0000       2.084124        56.7119 
 275   0.0000       2.089697        56.8635 
 276   0.0000       2.109584        57.4047 
 277   0.0000       2.122781        57.7638 
 278   0.0000       2.123606        57.7863 
 279   0.0000       2.134247        58.0758 
 280   0.0000       2.138647        58.1955 
 281   0.0000       2.185490        59.4702 
 282   0.0000       2.191689        59.6389 
 283   0.0000       2.209482        60.1231 
 284   0.0000       2.218635        60.3721 
 285   0.0000       2.221768        60.4574 
 286   0.0000       2.230490        60.6947 
 287   0.0000       2.234350        60.7997 
 288   0.0000       2.244011        61.0626 
 289   0.0000       2.252336        61.2892 
 290   0.0000       2.278491        62.0009 
 291   0.0000       2.290842        62.3370 
 292   0.0000       2.311151        62.8896 
 293   0.0000       2.315625        63.0114 
 294   0.0000       2.326154        63.2979 
 295   0.0000       2.337014        63.5934 
 296   0.0000       2.339710        63.6668 
 297   0.0000       2.365785        64.3763 
 298   0.0000       2.367976        64.4359 
 299   0.0000       2.407955        65.5238 
 300   0.0000       2.425475        66.0005 
 301   0.0000       2.432549        66.1930 
 302   0.0000       2.437136        66.3178 
 303   0.0000       2.442379        66.4605 
 304   0.0000       2.449551        66.6557 
 305   0.0000       2.459012        66.9131 
 306   0.0000       2.477863        67.4261 
 307   0.0000       2.492320        67.8195 
 308   0.0000       2.520090        68.5751 
 309   0.0000       2.520887        68.5968 
 310   0.0000       2.535232        68.9872 
 311   0.0000       2.542933        69.1967 
 312   0.0000       2.554265        69.5051 
 313   0.0000       2.602126        70.8074 
 314   0.0000       2.615492        71.1712 
 315   0.0000       2.627178        71.4892 
 316   0.0000       2.674844        72.7862 
 317   0.0000       2.681206        72.9593 
 318   0.0000       2.695890        73.3589 
 319   0.0000       2.701383        73.5084 
 320   0.0000       2.734246        74.4026 
 321   0.0000       2.741655        74.6042 
 322   0.0000       2.752283        74.8934 
 323   0.0000       2.811472        76.5040 
 324   0.0000       2.859589        77.8134 
 325   0.0000       2.878858        78.3377 
 326   0.0000       2.946369        80.1748 
 327   0.0000       3.247079        88.3575 
 328   0.0000       3.383116        92.0593 

                    ********************************
                    * MULLIKEN POPULATION ANALYSIS *
                    ********************************

--------------------------------------------
MULLIKEN ATOMIC CHARGES AND SPIN POPULATIONS
--------------------------------------------
   0 C :    0.619480    0.000962
   1 C :   -0.010951    0.034382
   2 C :   -0.089903   -0.047741
   3 C :    0.064139    0.011153
   4 C :   -0.066453   -0.003178
   5 C :   -0.080105    0.000854
   6 C :   -0.023950    0.004445
   7 H :   -0.061716    0.003842
   8 H :   -0.066236    0.002282
   9 C :   -0.016151    1.029116
  10 H :    0.046861   -0.018447
  11 H :    0.046507   -0.017713
  12 C :   -0.035806   -0.001874
  13 H :    0.044191    0.000208
  14 H :    0.038094    0.000091
  15 C :    0.007536    0.001093
  16 H :    0.011195    0.000477
  17 H :    0.009296    0.000460
  18 C :    0.013815    0.000770
  19 H :    0.017808    0.000048
  20 H :    0.016740    0.000018
  21 C :    0.053682   -0.000064
  22 H :    0.029746    0.000067
  23 H :    0.029777    0.000040
  24 C :   -0.036142   -0.000014
  25 H :    0.011069   -0.000012
  26 H :    0.010938   -0.000018
  27 C :   -0.017837    0.000053
  28 H :    0.003426    0.000002
  29 H :    0.003257    0.000002
  30 C :    0.014481   -0.000003
  31 H :    0.012876    0.000001
  32 H :    0.012901    0.000001
  33 C :   -0.594605   -0.001306
  34 H :   -0.037063    0.000044
  35 H :    0.009651   -0.000043
  36 H :    0.009453    0.000001
Sum of atomic charges         :    0.0000000
Sum of atomic spin populations:    1.0000000

-----------------------------------------------------
MULLIKEN REDUCED ORBITAL CHARGES AND SPIN POPULATIONS
-----------------------------------------------------
CHARGE
  0 C s       :     3.110590  s :     3.110590
      pz      :     0.958705  p :     2.213446
      px      :     0.317637
      py      :     0.937105
      dz2     :     0.003544  d :     0.056485
      dxz     :     0.023120
      dyz     :     0.000161
      dx2y2   :     0.009165
      dxy     :     0.020495
  1 C s       :     3.190181  s :     3.190181
      pz      :     0.954152  p :     2.726760
      px      :     0.897298
      py      :     0.875311
      dz2     :     0.004507  d :     0.094010
      dxz     :     0.016154
      dyz     :     0.014798
      dx2y2   :     0.028229
      dxy     :     0.030321
  2 C s       :     3.153615  s :     3.153615
[...]
 18 C s       :     2.807281  s :     2.807281
      pz      :     1.051039  p :     3.113889
      px      :     1.010365
      py      :     1.052485
      dz2     :     0.019688  d :     0.146153
      dxz     :     0.038284
      dyz     :     0.025717
      dx2y2   :     0.038344
      dxy     :     0.024120
 19 H s       :     0.899001  s :     0.899001
      pz      :     0.028708  p :     0.076097
      px      :     0.019448
      py      :     0.027941
 20 H s       :     0.899344  s :     0.899344
      pz      :     0.018830  p :     0.075959
      px      :     0.016884
      py      :     0.040245
 21 C s       :     2.791266  s :     2.791266
      pz      :     1.045585  p :     3.053271
      px      :     1.021148
      py      :     0.986539
      dz2     :     0.028786  d :     0.191667
      dxz     :     0.049895
      dyz     :     0.022188
      dx2y2   :     0.042827
      dxy     :     0.047970
 22 H s       :     0.882506  s :     0.882506
      pz      :     0.038347  p :     0.077706
      px      :     0.023747
      py      :     0.015613
 23 H s       :     0.881828  s :     0.881828
      pz      :     0.030296  p :     0.077589
      px      :     0.031975
      py      :     0.015317
 24 C s       :     2.799273  s :     2.799273
      pz      :     1.040367  p :     3.054185
      px      :     1.023532
      py      :     0.990286
      dz2     :     0.029489  d :     0.190788
      dxz     :     0.054451
      dyz     :     0.019913
      dx2y2   :     0.040139
      dxy     :     0.046797
 25 H s       :     0.899824  s :     0.899824
      pz      :     0.037994  p :     0.076893
      px      :     0.022728
      py      :     0.016171
 26 H s       :     0.899125  s :     0.899125
      pz      :     0.030527  p :     0.076850
      px      :     0.030501
      py      :     0.015822
 27 C s       :     2.799392  s :     2.799392
      pz      :     1.041665  p :     3.056140
      px      :     1.021417
      py      :     0.993058
      dz2     :     0.029546  d :     0.191844
      dxz     :     0.053680
      dyz     :     0.020103
      dx2y2   :     0.040593
      dxy     :     0.047922
 28 H s       :     0.900367  s :     0.900367
      pz      :     0.037242  p :     0.075763
      px      :     0.022661
      py      :     0.015860
 29 H s       :     0.899317  s :     0.899317
      pz      :     0.030185  p :     0.075827
      px      :     0.030083
      py      :     0.015558
 30 C s       :     2.806585  s :     2.806585
      pz      :     1.053550  p :     3.115178
      px      :     1.044830
      py      :     1.016798
      dz2     :     0.026568  d :     0.146073
      dxz     :     0.041169
      dyz     :     0.013290
      dx2y2   :     0.023801
      dxy     :     0.041245
 31 H s       :     0.898914  s :     0.898914
      pz      :     0.030956  p :     0.076051
      px      :     0.029363
      py      :     0.015732
 32 H s       :     0.899262  s :     0.899262
      pz      :     0.037656  p :     0.076059
      px      :     0.022169
      py      :     0.016234
 33 C s       :     2.908046  s :     2.908046
      pz      :     0.984994  p :     3.047571
      px      :     1.082413
      py      :     0.980164
      dz2     :     0.012553  d :     0.099861
      dxz     :     0.025916
      dyz     :     0.000934
      dx2y2   :     0.035904
      dxy     :     0.024554
 34 H s       :     0.883869  s :     0.883869
      pz      :     0.021120  p :     0.094338
      px      :     0.053276
      py      :     0.019942
 35 H s       :     0.895117  s :     0.895117
      pz      :     0.036825  p :     0.076480
      px      :     0.023671
      py      :     0.015984
 36 H s       :     0.895846  s :     0.895846
      pz      :     0.015942  p :     0.076417
      px      :     0.027964
      py      :     0.032511

SPIN
  0 C s       :     0.001380  s :     0.001380
      pz      :     0.013963  p :     0.019722
      px      :     0.001409
      py      :     0.004350
      dz2     :    -0.000546  d :    -0.007146
      dxz     :    -0.005604
      dyz     :    -0.000023
      dx2y2   :    -0.000424
      dxy     :    -0.000547
  1 C s       :     0.006456  s :     0.006456
      pz      :     0.169786  p :     0.183155
      px      :     0.007936
      py      :     0.005432
      dz2     :    -0.000808  d :    -0.007680
      dxz     :    -0.000647
      dyz     :    -0.004486
      dx2y2   :    -0.000873
      dxy     :    -0.000866
  2 C s       :    -0.006727  s :    -0.006727
      pz      :    -0.088427  p :    -0.106647
      px      :    -0.009431
      py      :    -0.008789
      dz2     :     0.002331  d :     0.041161
      dxz     :     0.010404
      dyz     :     0.024339
      dx2y2   :     0.001619
      dxy     :     0.002469
  3 C s       :     0.006051  s :     0.006051
      pz      :     0.165338  p :     0.178586
      px      :     0.008769
      py      :     0.004479
      dz2     :    -0.001038  d :    -0.008006
      dxz     :    -0.003774
      dyz     :    -0.001381
      dx2y2   :    -0.000740
      dxy     :    -0.001072
  4 C s       :    -0.003796  s :    -0.003796
      pz      :    -0.063795  p :    -0.073444
      px      :    -0.004564
      py      :    -0.005085
      dz2     :     0.000627  d :     0.017970
      dxz     :     0.001748
      dyz     :     0.013549
      dx2y2   :     0.000714
      dxy     :     0.001332
  5 C s       :     0.006719  s :     0.006719
      pz      :     0.179496  p :     0.193994
      px      :     0.009299
      py      :     0.005199
      dz2     :    -0.000884  d :    -0.006420
      dxz     :    -0.002584
      dyz     :    -0.001651
      dx2y2   :    -0.000684
      dxy     :    -0.000617
  6 C s       :    -0.004002  s :    -0.004002
      pz      :    -0.071376  p :    -0.081426
      px      :    -0.006506
      py      :    -0.003543
      dz2     :     0.001593  d :     0.018818
      dxz     :     0.011383
      dyz     :     0.004016
      dx2y2   :     0.000959
      dxy     :     0.000868
  7 H s       :    -0.005308  s :    -0.005308
      pz      :     0.004392  p :     0.005327
      px      :     0.000343
      py      :     0.000593
  8 H s       :     0.002144  s :     0.002144
      pz      :    -0.002129  p :    -0.002681
      px      :    -0.000253
      py      :    -0.000300
  9 C s       :     0.018934  s :     0.018934
      pz      :     0.569933  p :     0.613609
      px      :     0.030408
      py      :     0.013268
      dz2     :    -0.002196  d :    -0.006919
      dxz     :    -0.000721
      dyz     :    -0.001679
      dx2y2   :    -0.001165
      dxy     :    -0.001159
 10 H s       :    -0.015617  s :    -0.015617
      pz      :     0.016244  p :     0.019242
      px      :     0.002719
      py      :     0.000279
 11 H s       :    -0.015878  s :    -0.015878
      pz      :     0.015192  p :     0.018260
      px      :     0.001200
      py      :     0.001868
 12 C s       :    -0.001206  s :    -0.001206
      pz      :    -0.001557  p :    -0.006278
      px      :    -0.003962
      py      :    -0.000758
      dz2     :     0.000111  d :     0.007851
      dxz     :     0.006694
      dyz     :     0.000102
      dx2y2   :     0.000795
      dxy     :     0.000149
 13 H s       :     0.001823  s :     0.001823
      pz      :    -0.000035  p :    -0.000231
      px      :    -0.000138
      py      :    -0.000058
 14 H s       :     0.004350  s :     0.004350
      pz      :     0.000115  p :    -0.000101
      px      :    -0.000151
      py      :    -0.000065
 15 C s       :     0.001495  s :     0.001495
      pz      :     0.004431  p :     0.008474
      px      :     0.002068
      py      :     0.001975
      dz2     :    -0.000033  d :    -0.000066
      dxz     :    -0.000066
      dyz     :    -0.000025
      dx2y2   :     0.000070
      dxy     :    -0.000013
 16 H s       :    -0.000004  s :    -0.000004
      pz      :     0.000115  p :     0.000489
      px      :     0.000175
      py      :     0.000199
 17 H s       :    -0.000067  s :    -0.000067
      pz      :     0.000250  p :     0.000267
      px      :    -0.000020
      py      :     0.000037
 18 C s       :     0.000023  s :     0.000023
      pz      :    -0.000043  p :     0.000608
      px      :     0.000655
      py      :    -0.000004
      dz2     :     0.000001  d :     0.000332
      dxz     :     0.000144
      dyz     :     0.000017
      dx2y2   :     0.000088
      dxy     :     0.000082
 19 H s       :    -0.000018  s :    -0.000018
      pz      :     0.000007  p :     0.000040
      px      :     0.000032
      py      :     0.000001
 20 H s       :     0.000146  s :     0.000146
      pz      :     0.000003  p :     0.000017
      px      :     0.000012
      py      :     0.000003
 21 C s       :    -0.001304  s :    -0.001304
      pz      :    -0.000367  p :    -0.005718
      px      :    -0.002647
      py      :    -0.002705
      dz2     :     0.000674  d :     0.009540
      dxz     :     0.005340
      dyz     :     0.002732
      dx2y2   :     0.000306
      dxy     :     0.000488
 22 H s       :     0.008869  s :     0.008869
      pz      :    -0.000092  p :    -0.000217
      px      :    -0.000161
      py      :     0.000035
 23 H s       :     0.009299  s :     0.009299
      pz      :    -0.000084  p :    -0.000215
      px      :    -0.000181
      py      :     0.000050
 24 C s       :     0.000039  s :     0.000039
      pz      :     0.000033  p :     0.000212
      px      :     0.000096
      py      :     0.000083
      dz2     :    -0.000009  d :    -0.000069
      dxz     :     0.000122
      dyz     :    -0.000020
      dx2y2   :    -0.000088
      dxy     :    -0.000075
 25 H s       :     0.000050  s :     0.000050
      pz      :     0.000011  p :     0.000022
      px      :     0.000008
      py      :     0.000004
 26 H s       :     0.000054  s :     0.000054
      pz      :     0.000005  p :     0.000023
      px      :     0.000016
      py      :     0.000002
 27 C s       :    -0.000053  s :    -0.000053
      pz      :     0.000190  p :     0.000075
      px      :    -0.000027
      py      :    -0.000088
      dz2     :    -0.000002  d :    -0.000000
      dxz     :    -0.000001
      dyz     :     0.000012
      dx2y2   :    -0.000003
      dxy     :    -0.000006
 28 H s       :     0.000079  s :     0.000079
      pz      :     0.000001  p :     0.000021
      px      :     0.000004
      py      :     0.000016
 29 H s       :     0.000082  s :     0.000082
      pz      :     0.000001  p :     0.000023
      px      :     0.000005
      py      :     0.000017
 30 C s       :    -0.000011  s :    -0.000011
      pz      :    -0.000000  p :    -0.000051
      px      :    -0.000011
      py      :    -0.000039
      dz2     :     0.000000  d :     0.000019
      dxz     :     0.000011
      dyz     :     0.000009
      dx2y2   :    -0.000003
      dxy     :     0.000001
 31 H s       :     0.000020  s :     0.000020
      pz      :    -0.000000  p :    -0.000002
      px      :    -0.000001
      py      :    -0.000001
 32 H s       :     0.000018  s :     0.000018
      pz      :    -0.000000  p :    -0.000002
      px      :    -0.000000
      py      :    -0.000001
 33 C s       :    -0.001227  s :    -0.001227
      pz      :    -0.032108  p :    -0.038852
      px      :    -0.001508
      py      :    -0.005236
      dz2     :     0.000178  d :     0.001296
      dxz     :     0.000710
      dyz     :     0.000015
      dx2y2   :     0.000161
      dxy     :     0.000231
 34 H s       :     0.001243  s :     0.001243
      pz      :    -0.000950  p :    -0.001312
      px      :    -0.000217
      py      :    -0.000145
 35 H s       :     0.000226  s :     0.000226
      pz      :     0.000004  p :     0.000057
      px      :     0.000053
      py      :     0.000000
 36 H s       :    -0.000004  s :    -0.000004
      pz      :    -0.000000  p :    -0.000004
      px      :    -0.000001
      py      :    -0.000003


                      *****************************
                      * MAYER POPULATION ANALYSIS *
                      *****************************

  NA   - Mulliken gross atomic population
  ZA   - Total nuclear charge
  QA   - Mulliken gross atomic charge
  VA   - Mayer's total valence
  BVA  - Mayer's bonded valence
  FA   - Mayer's free valence

  ATOM       NA         ZA         QA         VA         BVA        FA
  0 C      5.3912     6.0000     0.6088     2.9364     2.9360     0.0004
  1 C      6.0665     6.0000    -0.0665     4.0903     4.0489     0.0414
  2 C      6.0438     6.0000    -0.0438     4.3001     4.2844     0.0157
  3 C      5.9759     6.0000     0.0241     3.8439     3.8062     0.0376
  4 C      6.0492     6.0000    -0.0492     3.8373     3.8299     0.0074
  5 C      6.0725     6.0000    -0.0725     4.1285     4.0815     0.0469
  6 C      5.9653     6.0000     0.0347     3.8871     3.8781     0.0090
  7 H      1.0516     1.0000    -0.0516     0.9912     0.9911     0.0001
  8 H      1.0618     1.0000    -0.0618     1.0008     1.0008     0.0000
  9 C      5.9611     6.0000     0.0389     3.9201     3.4952     0.4249
 10 H      0.9856     1.0000     0.0144     0.9813     0.9800     0.0012
 11 H      0.9929     1.0000     0.0071     0.9767     0.9755     0.0012
 12 C      5.9468     6.0000     0.0532     4.0152     4.0150     0.0002
 13 H      1.0033     1.0000    -0.0033     0.9754     0.9754     0.0000
 14 H      0.9903     1.0000     0.0097     0.9737     0.9736     0.0000
 15 C      6.0320     6.0000    -0.0320     4.0979     4.0978     0.0001
 16 H      0.9890     1.0000     0.0110     0.9760     0.9760     0.0000
 17 H      0.9914     1.0000     0.0086     0.9687     0.9687     0.0000
 18 C      6.0006     6.0000    -0.0006     4.0193     4.0193     0.0000
 19 H      0.9837     1.0000     0.0163     0.9769     0.9769     0.0000
 20 H      0.9858     1.0000     0.0142     0.9771     0.9771     0.0000
 21 C      5.9576     6.0000     0.0424     4.0250     4.0247     0.0003
 22 H      0.9690     1.0000     0.0310     0.9710     0.9709     0.0001
 23 H      0.9653     1.0000     0.0347     0.9697     0.9696     0.0001
 24 C      6.0375     6.0000    -0.0375     4.1125     4.1125     0.0000
 25 H      0.9860     1.0000     0.0140     0.9633     0.9633     0.0000
 26 H      0.9836     1.0000     0.0164     0.9635     0.9635     0.0000
 27 C      6.0258     6.0000    -0.0258     4.1179     4.1179     0.0000
 28 H      0.9961     1.0000     0.0039     0.9681     0.9681     0.0000
 29 H      0.9909     1.0000     0.0091     0.9679     0.9679     0.0000
 30 C      5.9964     6.0000     0.0036     4.0152     4.0152     0.0000
 31 H      0.9828     1.0000     0.0172     0.9775     0.9775     0.0000
 32 H      0.9848     1.0000     0.0152     0.9774     0.9774     0.0000
 33 C      6.5833     6.0000    -0.5833     3.4230     3.4216     0.0015
 34 H      1.0286     1.0000    -0.0286     1.0297     1.0297     0.0000
 35 H      0.9854     1.0000     0.0146     0.9734     0.9734     0.0000
 36 H      0.9865     1.0000     0.0135     0.9738     0.9738     0.0000

  Mayer bond orders larger than 0.100000
B(  0-C ,  4-C ) :   0.8992 B(  0-C , 33-C ) :   2.1662 B(  1-C ,  2-C ) :   1.2767 
B(  1-C ,  6-C ) :   1.4250 B(  1-C , 12-C ) :   1.1110 B(  2-C ,  3-C ) :   1.2648 
B(  2-C ,  9-C ) :   1.5072 B(  3-C ,  4-C ) :   1.4575 B(  3-C ,  7-H ) :   0.9268 
B(  4-C ,  5-C ) :   1.3535 B(  5-C ,  6-C ) :   1.3827 B(  5-C , 21-C ) :   1.0938 
B(  6-C ,  8-H ) :   0.9150 B(  9-C , 10-H ) :   0.9072 B(  9-C , 11-H ) :   0.9134 
B( 12-C , 13-H ) :   0.9106 B( 12-C , 14-H ) :   0.9064 B( 12-C , 15-C ) :   1.0588 
B( 15-C , 16-H ) :   0.9440 B( 15-C , 17-H ) :   0.9439 B( 15-C , 18-C ) :   1.1011 
B( 18-C , 19-H ) :   0.9666 B( 18-C , 20-H ) :   0.9672 B( 18-C , 35-H ) :   0.9641 
B( 21-C , 22-H ) :   0.8960 B( 21-C , 23-H ) :   0.8976 B( 21-C , 24-C ) :   1.1008 
B( 24-C , 25-H ) :   0.9285 B( 24-C , 26-H ) :   0.9301 B( 24-C , 27-C ) :   1.0767 
B( 27-C , 28-H ) :   0.9408 B( 27-C , 29-H ) :   0.9415 B( 27-C , 30-C ) :   1.1055 
B( 30-C , 31-H ) :   0.9663 B( 30-C , 32-H ) :   0.9661 B( 30-C , 36-H ) :   0.9620 
B( 33-C , 34-H ) :   1.1113 

-------
TIMINGS
-------

Total SCF time: 0 days 0 hours 0 min 29 sec 

Total time                  ....      29.069 sec
Sum of individual times     ....      28.001 sec  ( 96.3%)

Fock matrix formation       ....      25.193 sec  ( 86.7%)
  XC integration            ....       1.917 sec  (  7.6% of F)
    Basis function eval.    ....       0.351 sec  ( 18.3% of XC)
    Density eval.           ....       0.308 sec  ( 16.0% of XC)
    XC-Functional eval.     ....       0.060 sec  (  3.1% of XC)
    XC-Potential eval.      ....       0.342 sec  ( 17.8% of XC)
Diagonalization             ....       0.708 sec  (  2.4%)
Density matrix formation    ....       0.059 sec  (  0.2%)
Population analysis         ....       0.147 sec  (  0.5%)
Initial guess               ....       0.088 sec  (  0.3%)
Orbital Transformation      ....       0.000 sec  (  0.0%)
Orbital Orthonormalization  ....       0.063 sec  (  0.2%)
DIIS solution               ....       0.460 sec  (  1.6%)
Grid generation             ....       1.345 sec  (  4.6%)

-------------------------   --------------------
FINAL SINGLE POINT ENERGY      -621.857375019734
-------------------------   --------------------

                                *** OPTIMIZATION RUN DONE ***

                            ***************************************
                            *     ORCA property calculations      *
                            ***************************************

                                    ---------------------
                                    Active property flags
                                    ---------------------
   (+) Dipole Moment


------------------------------------------------------------------------------
                       ORCA ELECTRIC PROPERTIES CALCULATION
------------------------------------------------------------------------------

Dipole Moment Calculation                       ... on
Quadrupole Moment Calculation                   ... off
Polarizability Calculation                      ... off
GBWName                                         ... opt.gbw
Electron density file                           ... opt.scfp
The origin for moment calculation is the CENTER OF MASS  = ( 0.559569, -2.146441 -0.108350)

-------------
DIPOLE MOMENT
-------------
                                X             Y             Z
Electronic contribution:    -11.72654      14.81730      -1.70327
Nuclear contribution   :     11.94984     -15.09026       1.73111
                        -----------------------------------------
Total Dipole Moment    :      0.22329      -0.27296       0.02784
                        -----------------------------------------
Magnitude (a.u.)       :      0.35375
Magnitude (Debye)      :      0.89917



--------------------
Rotational spectrum 
--------------------
 
Rotational constants in cm-1:     0.018485     0.010277     0.006812 
Rotational constants in MHz :   554.171046   308.094263   204.210152 

 Dipole components along the rotational axes: 
x,y,z [a.u.] :    -0.016261     0.353165     0.012339 
x,y,z [Debye]:    -0.041333     0.897673     0.031362 

 

Timings for individual modules:

Sum of individual times         ...     1919.934 sec (=  31.999 min)
GTO integral calculation        ...       39.807 sec (=   0.663 min)   2.1 %
SCF iterations                  ...     1483.236 sec (=  24.721 min)  77.3 %
SCF Gradient evaluation         ...      386.261 sec (=   6.438 min)  20.1 %
Geometry relaxation             ...       10.630 sec (=   0.177 min)   0.6 %
                             ****ORCA TERMINATED NORMALLY****
TOTAL RUN TIME: 0 days 0 hours 32 minutes 10 seconds 437 msec
