
                                 *****************
                                 * O   R   C   A *
                                 *****************

                                            #,                                       
                                            ###                                      
                                            ####                                     
                                            #####                                    
                                            ######                                   
                                           ########,                                 
                                     ,,################,,,,,                         
                               ,,#################################,,                 
                          ,,##########################################,,             
                       ,#########################################, ''#####,          
                    ,#############################################,,   '####,        
                  ,##################################################,,,,####,       
                ,###########''''           ''''###############################       
              ,#####''   ,,,,##########,,,,          '''####'''          '####       
            ,##' ,,,,###########################,,,                        '##       
           ' ,,###''''                  '''############,,,                           
         ,,##''                                '''############,,,,        ,,,,,,###''
      ,#''                                            '''#######################'''  
     '                                                          ''''####''''         
             ,#######,   #######,   ,#######,      ##                                
            ,#'     '#,  ##    ##  ,#'     '#,    #''#        ######   ,####,        
            ##       ##  ##   ,#'  ##            #'  '#       #        #'  '#        
            ##       ##  #######   ##           ,######,      #####,   #    #        
            '#,     ,#'  ##    ##  '#,     ,#' ,#      #,         ##   #,  ,#        
             '#######'   ##     ##  '#######'  #'      '#     #####' # '####'        



                  #######################################################
                  #                        -***-                        #
                  #          Department of theory and spectroscopy      #
                  #    Directorship and core code : Frank Neese         #
                  #        Max Planck Institute fuer Kohlenforschung    #
                  #                Kaiser Wilhelm Platz 1               #
                  #                 D-45470 Muelheim/Ruhr               #
                  #                      Germany                        #
                  #                                                     #
                  #                  All rights reserved                #
                  #                        -***-                        #
                  #######################################################


                         Program Version 5.0.4 -  RELEASE  -


 With contributions from (in alphabetic order):
   Daniel Aravena         : Magnetic Suceptibility
   Michael Atanasov       : Ab Initio Ligand Field Theory (pilot matlab implementation)
   Alexander A. Auer      : GIAO ZORA, VPT2 properties, NMR spectrum
   Ute Becker             : Parallelization
   Giovanni Bistoni       : ED, misc. LED, open-shell LED, HFLD
   Martin Brehm           : Molecular dynamics
   Dmytro Bykov           : SCF Hessian
   Vijay G. Chilkuri      : MRCI spin determinant printing, contributions to CSF-ICE
   Dipayan Datta          : RHF DLPNO-CCSD density
   Achintya Kumar Dutta   : EOM-CC, STEOM-CC
   Dmitry Ganyushin       : Spin-Orbit,Spin-Spin,Magnetic field MRCI
   Miquel Garcia          : C-PCM and meta-GGA Hessian, CC/C-PCM, Gaussian charge scheme
   Yang Guo               : DLPNO-NEVPT2, F12-NEVPT2, CIM, IAO-localization
   Andreas Hansen         : Spin unrestricted coupled pair/coupled cluster methods
   Benjamin Helmich-Paris : MC-RPA, TRAH-SCF, COSX integrals
   Lee Huntington         : MR-EOM, pCC
   Robert Izsak           : Overlap fitted RIJCOSX, COSX-SCS-MP3, EOM
   Marcus Kettner         : VPT2
   Christian Kollmar      : KDIIS, OOCD, Brueckner-CCSD(T), CCSD density, CASPT2, CASPT2-K
   Simone Kossmann        : Meta GGA functionals, TD-DFT gradient, OOMP2, MP2 Hessian
   Martin Krupicka        : Initial AUTO-CI
   Lucas Lang             : DCDCAS
   Marvin Lechner         : AUTO-CI (C++ implementation), FIC-MRCC
   Dagmar Lenk            : GEPOL surface, SMD
   Dimitrios Liakos       : Extrapolation schemes; Compound Job, initial MDCI parallelization
   Dimitrios Manganas     : Further ROCIS development; embedding schemes
   Dimitrios Pantazis     : SARC Basis sets
   Anastasios Papadopoulos: AUTO-CI, single reference methods and gradients
   Taras Petrenko         : DFT Hessian,TD-DFT gradient, ASA, ECA, R-Raman, ABS, FL, XAS/XES, NRVS
   Peter Pinski           : DLPNO-MP2, DLPNO-MP2 Gradient
   Christoph Reimann      : Effective Core Potentials
   Marius Retegan         : Local ZFS, SOC
   Christoph Riplinger    : Optimizer, TS searches, QM/MM, DLPNO-CCSD(T), (RO)-DLPNO pert. Triples
   Tobias Risthaus        : Range-separated hybrids, TD-DFT gradient, RPA, STAB
   Michael Roemelt        : Original ROCIS implementation
   Masaaki Saitow         : Open-shell DLPNO-CCSD energy and density
   Barbara Sandhoefer     : DKH picture change effects
   Avijit Sen             : IP-ROCIS
   Kantharuban Sivalingam : CASSCF convergence, NEVPT2, FIC-MRCI
   Bernardo de Souza      : ESD, SOC TD-DFT
   Georgi Stoychev        : AutoAux, RI-MP2 NMR, DLPNO-MP2 response
   Willem Van den Heuvel  : Paramagnetic NMR
   Boris Wezisla          : Elementary symmetry handling
   Frank Wennmohs         : Technical directorship


 We gratefully acknowledge several colleagues who have allowed us to
 interface, adapt or use parts of their codes:
   Stefan Grimme, W. Hujo, H. Kruse, P. Pracht,  : VdW corrections, initial TS optimization,
                  C. Bannwarth, S. Ehlert          DFT functionals, gCP, sTDA/sTD-DF
   Ed Valeev, F. Pavosevic, A. Kumar             : LibInt (2-el integral package), F12 methods
   Garnet Chan, S. Sharma, J. Yang, R. Olivares  : DMRG
   Ulf Ekstrom                                   : XCFun DFT Library
   Mihaly Kallay                                 : mrcc  (arbitrary order and MRCC methods)
   Jiri Pittner, Ondrej Demel                    : Mk-CCSD
   Frank Weinhold                                : gennbo (NPA and NBO analysis)
   Christopher J. Cramer and Donald G. Truhlar   : smd solvation model
   Lars Goerigk                                  : TD-DFT with DH, B97 family of functionals
   V. Asgeirsson, H. Jonsson                     : NEB implementation
   FAccTs GmbH                                   : IRC, NEB, NEB-TS, DLPNO-Multilevel, CI-OPT
                                                   MM, QMMM, 2- and 3-layer-ONIOM, Crystal-QMMM,
                                                   LR-CPCM, SF, NACMEs, symmetry and pop. for TD-DFT,
                                                   nearIR, NL-DFT gradient (VV10), updates on ESD,
                                                   ML-optimized integration grids
   S Lehtola, MJT Oliveira, MAL Marques          : LibXC Library
   Liviu Ungur et al                             : ANISO software


 Your calculation uses the libint2 library for the computation of 2-el integrals
 For citations please refer to: http://libint.valeyev.net

 Your ORCA version has been built with support for libXC version: 5.1.0
 For citations please refer to: https://tddft.org/programs/libxc/

 This ORCA versions uses:
   CBLAS   interface :  Fast vector & matrix operations
   LAPACKE interface :  Fast linear algebra routines
   SCALAPACK package :  Parallel linear algebra routines
   Shared memory     :  Shared parallel matrices
   BLAS/LAPACK       :  OpenBLAS 0.3.15  USE64BITINT DYNAMIC_ARCH NO_AFFINITY SkylakeX SINGLE_THREADED
        Core in use  :  SkylakeX
   Copyright (c) 2011-2014, The OpenBLAS Project




***************************************
The coordinates will be read from file: model.xyz
***************************************


================================================================================

----- Orbital basis set information -----
Your calculation utilizes the basis: cc-pVDZ 
       H, B-Ne : Obtained from the ccRepo (grant-hill.group.shef.ac.uk/ccrepo) Feb. 2017
                 T. H. Dunning, Jr., J. Chem. Phys. 90, 1007 (1989)
            He : Obtained from the ccRepo (grant-hill.group.shef.ac.uk/ccrepo) Feb. 2017
                 D. E. Woon, T. H. Dunning, Jr., J. Chem. Phys. 100, 2975 (1994)
  Li-Be, Na-Mg : Obtained from the ccRepo (grant-hill.group.shef.ac.uk/ccrepo) Feb. 2017
                 B. P. Prascher, D. E. Woon, K. A. Peterson, T. H. Dunning, Jr., A. K. Wilson, Theor. Chem. Acc. 128, 69 (2011)
         Al-Ar : Obtained from the ccRepo (grant-hill.group.shef.ac.uk/ccrepo) Feb. 2017
                 D. E. Woon, T. H. Dunning, Jr., J. Chem. Phys. 98, 1358 (1993)
            Ca : Obtained from the Peterson Research Group Website (tyr0.chem.wsu.edu/~kipeters) Feb. 2017
                 J. Koput, K. A. Peterson, J. Phys. Chem. 106, 9595 (2002)
         Sc-Zn : Obtained from the ccRepo (grant-hill.group.shef.ac.uk/ccrepo) Feb. 2017
                 N. B. Balabanov, K. A. Peterson, J. Chem. Phys. 123, 064107 (2005)
                 N. B. Balabanov, K. A. Peterson, J. Chem. Phys. 125, 074110 (2006)
         Ga-Kr : Obtained from the ccRepo (grant-hill.group.shef.ac.uk/ccrepo) Feb. 2017
                 A. K. Wilson, D. E. Woon, K. A. Peterson, T. H. Dunning, Jr., J. Chem. Phys. 110, 7667 (1999)

----- AuxJ basis set information -----
Your calculation utilizes the auxiliary basis: def2/J
   F. Weigend, Phys. Chem. Chem. Phys. 8, 1057 (2006).

================================================================================
                                        WARNINGS
                       Please study these warnings very carefully!
================================================================================


WARNING: your system is open-shell and RHF/RKS was chosen
  ===> : WILL SWITCH to UHF/UKS


WARNING: Geometry Optimization
  ===> : Switching off AutoStart
         For restart on a previous wavefunction, please use MOREAD

INFO   : the flag for use of the SHARK integral package has been found!

================================================================================
                                       INPUT FILE
================================================================================
NAME = opt.inp
|  1> ! B3LYP cc-pVDZ OPT
|  2> %pal nprocs 16 end
|  3> *XYZFile 0 2 model.xyz
|  4> 
|  5>                          ****END OF INPUT****
================================================================================

                       *****************************
                       * Geometry Optimization Run *
                       *****************************

Geometry optimization settings:
Update method            Update   .... BFGS
Choice of coordinates    CoordSys .... Z-matrix Internals
Initial Hessian          InHess   .... Almoef's Model

Convergence Tolerances:
Energy Change            TolE     ....  5.0000e-06 Eh
Max. Gradient            TolMAXG  ....  3.0000e-04 Eh/bohr
RMS Gradient             TolRMSG  ....  1.0000e-04 Eh/bohr
Max. Displacement        TolMAXD  ....  4.0000e-03 bohr
RMS Displacement         TolRMSD  ....  2.0000e-03 bohr
Strict Convergence                ....  False
------------------------------------------------------------------------------
                        ORCA OPTIMIZATION COORDINATE SETUP
------------------------------------------------------------------------------

The optimization will be done in new redundant internal coordinates
Making redundant internal coordinates   ...  (new redundants) done
Evaluating the initial hessian          ...  (Almloef) done
Evaluating the coordinates              ...  done
Calculating the B-matrix                .... done
Calculating the G-matrix                .... done
Diagonalizing the G-matrix              .... done
Small eigenvalue found = 2.562e-03
Small eigenvalue found = 1.029e-02
Small eigenvalue found = 1.224e-02
Small eigenvalue found = 1.889e-02
Small eigenvalue found = 2.670e-02
The first mode is                       ....   84
The number of degrees of freedom        ....  105

    -----------------------------------------------------------------
                    Redundant Internal Coordinates


    -----------------------------------------------------------------
         Definition                    Initial Value    Approx d2E/dq
    -----------------------------------------------------------------
      1. B(C   2,C   1)                  1.4381         0.523549   
      2. B(C   3,C   2)                  1.4258         0.547703   
      3. B(C   4,C   0)                  1.4346         0.530393   
      4. B(C   4,C   3)                  1.3946         0.614438   
      5. B(C   5,C   4)                  1.4265         0.546360   
      6. B(C   6,C   5)                  1.4034         0.594872   
      7. B(C   6,C   1)                  1.3966         0.609730   
      8. B(H   7,C   3)                  1.0922         0.357145   
      9. B(H   8,C   6)                  1.0918         0.357714   
     10. B(C   9,C   2)                  1.4095         0.581676   
     11. B(H  10,C   9)                  1.0889         0.361518   
     12. B(H  11,C   9)                  1.0914         0.358225   
     13. B(C  12,C   1)                  1.5121         0.399034   
     14. B(H  13,C  12)                  1.1038         0.342346   
     15. B(H  14,C  12)                  1.1041         0.341883   
     16. B(C  15,C  12)                  1.5431         0.356063   
     17. B(H  16,C  15)                  1.1041         0.341934   
     18. B(H  17,C  15)                  1.1046         0.341336   
     19. B(C  18,C  15)                  1.5300         0.373532   
     20. B(H  19,C  18)                  1.1038         0.342361   
     21. B(H  20,C  18)                  1.1039         0.342171   
     22. B(C  21,C   5)                  1.5145         0.395502   
     23. B(H  22,C  21)                  1.1062         0.339356   
     24. B(H  23,C  21)                  1.1069         0.338447   
     25. B(C  24,C  21)                  1.5309         0.372399   
     26. B(H  25,C  24)                  1.1058         0.339814   
     27. B(H  26,C  24)                  1.1061         0.339442   
     28. B(C  27,C  24)                  1.5335         0.368799   
     29. B(H  28,C  27)                  1.1060         0.339588   
     30. B(H  29,C  27)                  1.1062         0.339338   
     31. B(C  30,C  27)                  1.5304         0.372965   
     32. B(H  31,C  30)                  1.1040         0.342037   
     33. B(H  32,C  30)                  1.1038         0.342242   
     34. B(C  33,C   0)                  1.2159         1.184604   
     35. B(H  34,C  33)                  1.0724         0.384142   
     36. B(H  35,C  18)                  1.1021         0.344482   
     37. B(H  36,C  30)                  1.1020         0.344621   
     38. L(C   4,C   0,C  33,C   3, 1) 179.6770         0.474656   
     39. L(C   4,C   0,C  33,C   3, 2) 180.4185         0.474656   
     40. A(C   6,C   1,C  12)          119.3884         0.400131   
     41. A(C   2,C   1,C   6)          118.9624         0.419856   
     42. A(C   2,C   1,C  12)          121.6316         0.389583   
     43. A(C   3,C   2,C   9)          119.3392         0.419706   
     44. A(C   1,C   2,C   3)          117.2699         0.411919   
     45. A(C   1,C   2,C   9)          123.3903         0.416348   
     46. A(C   4,C   3,H   7)          118.7048         0.351880   
     47. A(C   2,C   3,H   7)          118.6844         0.345128   
     48. A(C   2,C   3,C   4)          122.6106         0.423833   
     49. A(C   0,C   4,C   3)          119.3481         0.421408   
     50. A(C   0,C   4,C   5)          120.6730         0.412690   
     51. A(C   3,C   4,C   5)          119.9789         0.423647   
     52. A(C   4,C   5,C   6)          117.3386         0.421205   
     53. A(C   6,C   5,C  21)          123.0285         0.397777   
     54. A(C   4,C   5,C  21)          119.6322         0.391888   
     55. A(C   5,C   6,H   8)          118.6994         0.350056   
     56. A(C   1,C   6,H   8)          117.4623         0.351518   
     57. A(C   1,C   6,C   5)          123.8381         0.429560   
     58. A(C   2,C   9,H  10)          122.4396         0.349357   
     59. A(H  10,C   9,H  11)          117.4907         0.290781   
     60. A(C   2,C   9,H  11)          120.0597         0.348818   
     61. A(H  14,C  12,C  15)          109.0523         0.319056   
     62. A(H  13,C  12,C  15)          108.6068         0.319127   
     63. A(C   1,C  12,C  15)          113.6671         0.364466   
     64. A(H  13,C  12,H  14)          106.0442         0.286212   
     65. A(C   1,C  12,H  14)          110.3312         0.325066   
     66. A(C   1,C  12,H  13)          108.8448         0.325139   
     67. A(H  17,C  15,C  18)          109.8971         0.321480   
     68. A(H  16,C  15,C  18)          109.8923         0.321572   
     69. A(C  12,C  15,C  18)          112.7744         0.360379   
     70. A(H  16,C  15,H  17)          105.9917         0.286087   
     71. A(C  12,C  15,H  17)          108.7402         0.318973   
     72. A(C  12,C  15,H  16)          109.3123         0.319064   
     73. A(H  19,C  18,H  35)          107.6568         0.286552   
     74. A(C  15,C  18,H  35)          111.4058         0.321963   
     75. A(H  19,C  18,H  20)          107.3181         0.286252   
     76. A(C  15,C  18,H  20)          111.3275         0.321608   
     77. A(C  15,C  18,H  19)          111.3869         0.321638   
     78. A(H  20,C  18,H  35)          107.5364         0.286527   
     79. A(H  23,C  21,C  24)          109.2012         0.320873   
     80. A(H  22,C  21,C  24)          109.2088         0.321014   
     81. A(C   5,C  21,C  24)          117.0869         0.366718   
     82. A(H  22,C  21,H  23)          104.1884         0.285371   
     83. A(C   5,C  21,H  23)          108.1729         0.324054   
     84. A(C   5,C  21,H  22)          108.2089         0.324197   
     85. A(H  26,C  24,C  27)          109.1242         0.320518   
     86. A(H  25,C  24,C  27)          108.9680         0.320575   
     87. A(C  21,C  24,C  27)          112.5952         0.362359   
     88. A(H  25,C  24,H  26)          106.1746         0.285562   
     89. A(C  21,C  24,H  26)          109.8575         0.321028   
     90. A(C  21,C  24,H  25)          109.9117         0.321085   
     91. A(H  29,C  27,C  30)          109.5833         0.321091   
     92. A(H  28,C  27,C  30)          109.5696         0.321130   
     93. A(C  24,C  27,C  30)          113.2197         0.362453   
     94. A(H  28,C  27,H  29)          105.8570         0.285519   
     95. A(C  24,C  27,H  29)          109.1646         0.320502   
     96. A(C  24,C  27,H  28)          109.1813         0.320540   
     97. A(H  31,C  30,H  32)          107.3339         0.286218   
     98. A(C  27,C  30,H  32)          111.2947         0.321539   
     99. A(C  27,C  30,H  31)          111.3168         0.321508   
    100. A(H  32,C  30,H  36)          107.6005         0.286555   
    101. A(H  31,C  30,H  36)          107.6022         0.286528   
    102. A(C  27,C  30,H  36)          111.4846         0.321904   
    103. L(C   0,C  33,H  34, 2)       180.4009         0.399062   
    104. L(C   0,C  33,H  34, 1)       179.6865         0.399062   
    105. D(C   3,C   2,C   1,C   6)      0.4047         0.018699   
    106. D(C   3,C   2,C   1,C  12)   -178.0601         0.018699   
    107. D(C   9,C   2,C   1,C  12)      2.1984         0.018699   
    108. D(C   9,C   2,C   1,C   6)   -179.3368         0.018699   
    109. D(C   4,C   3,C   2,C   9)    179.5903         0.020515   
    110. D(H   7,C   3,C   2,C   1)   -179.9949         0.020515   
    111. D(H   7,C   3,C   2,C   9)     -0.2425         0.020515   
    112. D(C   4,C   3,C   2,C   1)     -0.1621         0.020515   
    113. D(C   5,C   4,C   3,C   2)     -0.2038         0.026096   
    114. D(C   0,C   4,C   3,C   2)    179.8446         0.026096   
    115. D(C   0,C   4,C   3,H   7)     -0.3226         0.026096   
    116. D(C   5,C   4,C   3,H   7)    179.6290         0.026096   
    117. D(C  21,C   5,C   4,C   0)      0.5509         0.020412   
    118. D(C   6,C   5,C   4,C   0)   -179.7334         0.020412   
    119. D(C  21,C   5,C   4,C   3)   -179.4001         0.020412   
    120. D(C   6,C   5,C   4,C   3)      0.3156         0.020412   
    121. D(H   8,C   6,C   5,C  21)     -0.1560         0.024373   
    122. D(C   1,C   6,C   5,C  21)    179.6413         0.024373   
    123. D(H   8,C   6,C   1,C  12)     -2.0026         0.025675   
    124. D(C   5,C   6,C   1,C  12)    178.1977         0.025675   
    125. D(C   1,C   6,C   5,C   4)     -0.0639         0.024373   
    126. D(H   8,C   6,C   5,C   4)   -179.8612         0.024373   
    127. D(C   5,C   6,C   1,C   2)     -0.3021         0.025675   
    128. D(H   8,C   6,C   1,C   2)    179.4976         0.025675   
    129. D(H  11,C   9,C   2,C   3)      0.1157         0.023252   
    130. D(H  11,C   9,C   2,C   1)    179.8521         0.023252   
    131. D(H  10,C   9,C   2,C   3)   -178.7061         0.023252   
    132. D(H  10,C   9,C   2,C   1)      1.0303         0.023252   
    133. D(H  14,C  12,C   1,C   2)    -41.9545         0.011819   
    134. D(H  13,C  12,C   1,C   6)     23.6174         0.011819   
    135. D(H  13,C  12,C   1,C   2)   -157.9242         0.011819   
    136. D(C  15,C  12,C   1,C   6)    -97.5600         0.011819   
    137. D(C  15,C  12,C   1,C   2)     80.8984         0.011819   
    138. D(H  14,C  12,C   1,C   6)    139.5871         0.011819   
    139. D(C  18,C  15,C  12,C   1)    179.5520         0.010188   
    140. D(C  18,C  15,C  12,H  13)     58.2417         0.010188   
    141. D(H  17,C  15,C  12,H  14)   -179.0505         0.010188   
    142. D(H  17,C  15,C  12,H  13)    -63.9131         0.010188   
    143. D(H  17,C  15,C  12,C   1)     57.3973         0.010188   
    144. D(H  16,C  15,C  12,H  14)     65.6622         0.010188   
    145. D(H  16,C  15,C  12,H  13)   -179.2004         0.010188   
    146. D(C  18,C  15,C  12,H  14)    -56.8957         0.010188   
    147. D(H  16,C  15,C  12,C   1)    -57.8900         0.010188   
    148. D(H  35,C  18,C  15,H  17)    -58.0982         0.011141   
    149. D(H  35,C  18,C  15,H  16)     58.1680         0.011141   
    150. D(H  35,C  18,C  15,C  12)   -179.5996         0.011141   
    151. D(H  20,C  18,C  15,H  17)     61.9339         0.011141   
    152. D(H  20,C  18,C  15,H  16)    178.2001         0.011141   
    153. D(H  20,C  18,C  15,C  12)    -59.5675         0.011141   
    154. D(H  19,C  18,C  15,H  17)   -178.3238         0.011141   
    155. D(H  19,C  18,C  15,H  16)    -62.0576         0.011141   
    156. D(H  19,C  18,C  15,C  12)     60.1749         0.011141   
    157. D(C  24,C  21,C   5,C   6)      1.1978         0.011621   
    158. D(C  24,C  21,C   5,C   4)   -179.1035         0.011621   
    159. D(H  23,C  21,C   5,C   6)   -122.6288         0.011621   
    160. D(H  23,C  21,C   5,C   4)     57.0699         0.011621   
    161. D(H  22,C  21,C   5,C   6)    125.0647         0.011621   
    162. D(H  22,C  21,C   5,C   4)    -55.2366         0.011621   
    163. D(H  26,C  24,C  21,H  22)    -64.7963         0.011078   
    164. D(H  26,C  24,C  21,C   5)     58.5612         0.011078   
    165. D(H  25,C  24,C  21,H  23)     65.3874         0.011078   
    166. D(H  25,C  24,C  21,H  22)    178.7275         0.011078   
    167. D(H  25,C  24,C  21,C   5)    -57.9150         0.011078   
    168. D(C  27,C  24,C  21,H  23)    -56.2938         0.011078   
    169. D(C  27,C  24,C  21,H  22)     57.0463         0.011078   
    170. D(C  27,C  24,C  21,C   5)   -179.5962         0.011078   
    171. D(H  26,C  24,C  21,H  23)   -178.1364         0.011078   
    172. D(C  30,C  27,C  24,H  26)    -57.4684         0.010877   
    173. D(C  30,C  27,C  24,C  21)   -179.7255         0.010877   
    174. D(H  29,C  27,C  24,H  26)   -179.8270         0.010877   
    175. D(H  29,C  27,C  24,H  25)    -64.2994         0.010877   
    176. D(H  29,C  27,C  24,C  21)     57.9159         0.010877   
    177. D(H  28,C  27,C  24,H  26)     64.8848         0.010877   
    178. D(C  30,C  27,C  24,H  25)     58.0592         0.010877   
    179. D(H  28,C  27,C  24,H  25)   -179.5876         0.010877   
    180. D(H  28,C  27,C  24,C  21)    -57.3723         0.010877   
    181. D(H  36,C  30,C  27,H  29)    -57.7194         0.011109   
    182. D(H  36,C  30,C  27,H  28)     58.0186         0.011109   
    183. D(H  36,C  30,C  27,C  24)   -179.8447         0.011109   
    184. D(H  32,C  30,C  27,H  29)     62.4253         0.011109   
    185. D(H  32,C  30,C  27,H  28)    178.1634         0.011109   
    186. D(H  32,C  30,C  27,C  24)    -59.6999         0.011109   
    187. D(H  31,C  30,C  27,H  29)   -177.8814         0.011109   
    188. D(H  31,C  30,C  27,H  28)    -62.1433         0.011109   
    189. D(H  31,C  30,C  27,C  24)     59.9934         0.011109   
    -----------------------------------------------------------------

Number of atoms                         .... 37
Number of degrees of freedom            .... 189

         *************************************************************
         *                GEOMETRY OPTIMIZATION CYCLE   1            *
         *************************************************************
---------------------------------
CARTESIAN COORDINATES (ANGSTROEM)
---------------------------------
  C     -2.629810    0.131627    0.162858
  C      1.575037   -0.216712   -0.510283
  C      0.963312    1.084335   -0.474588
  C     -0.443109    1.138937   -0.246461
  C     -1.220090   -0.004870   -0.065413
  C     -0.611482   -1.294297   -0.109269
  C      0.773237   -1.346173   -0.331260
  H     -0.931590    2.115353   -0.214935
  H      1.261625   -2.321838   -0.371309
  C      1.680391    2.283916   -0.657338
  H      2.751074    2.300061   -0.855192
  H      1.160107    3.242687   -0.621812
  C      3.065124   -0.387397   -0.702152
  H      3.260826   -1.402495   -1.088894
  H      3.434851    0.309876   -1.474304
  C      3.883125   -0.186945    0.590812
  H      3.684707    0.820809    0.995880
  H      3.520635   -0.898464    1.353970
  C      5.386267   -0.374945    0.375837
  H      5.780551    0.345274   -0.361788
  H      5.614618   -1.387734    0.000718
  C     -1.464926   -2.531794    0.074762
  H     -2.011807   -2.435387    1.031422
  H     -2.260385   -2.520141   -0.694845
  C     -0.748697   -3.884273    0.038120
  H     -0.216378   -4.002580   -0.923856
  H      0.026896   -3.920157    0.825892
  C     -1.709325   -5.064954    0.224713
  H     -2.249194   -4.946276    1.182636
  H     -2.483484   -5.031489   -0.564691
  C     -1.006992   -6.424449    0.197118
  H     -0.252756   -6.502888    0.999495
  H     -0.485018   -6.586611   -0.761904
  C     -3.823237    0.254311    0.360312
  H     -4.874141    0.369781    0.540099
  H      5.947470   -0.233864    1.313763
  H     -1.722967   -7.251389    0.330784

----------------------------
CARTESIAN COORDINATES (A.U.)
----------------------------
  NO LB      ZA    FRAG     MASS         X           Y           Z
   0 C     6.0000    0    12.011   -4.969620    0.248738    0.307757
   1 C     6.0000    0    12.011    2.976389   -0.409527   -0.964295
   2 C     6.0000    0    12.011    1.820396    2.049095   -0.896842
   3 C     6.0000    0    12.011   -0.837354    2.152279   -0.465743
   4 C     6.0000    0    12.011   -2.305636   -0.009203   -0.123613
   5 C     6.0000    0    12.011   -1.155534   -2.445868   -0.206488
   6 C     6.0000    0    12.011    1.461206   -2.543899   -0.625991
   7 H     1.0000    0     1.008   -1.760449    3.997437   -0.406167
   8 H     1.0000    0     1.008    2.384125   -4.387639   -0.701673
   9 C     6.0000    0    12.011    3.175479    4.315977   -1.242188
  10 H     1.0000    0     1.008    5.198776    4.346486   -1.616078
  11 H     1.0000    0     1.008    2.192284    6.127791   -1.175054
  12 C     6.0000    0    12.011    5.792245   -0.732074   -1.326875
  13 H     1.0000    0     1.008    6.162069   -2.650331   -2.057711
  14 H     1.0000    0     1.008    6.490927    0.585582   -2.786030
  15 C     6.0000    0    12.011    7.338042   -0.353275    1.116473
  16 H     1.0000    0     1.008    6.963088    1.551104    1.881941
  17 H     1.0000    0     1.008    6.653035   -1.697852    2.558632
  18 C     6.0000    0    12.011   10.178570   -0.708543    0.710229
  19 H     1.0000    0     1.008   10.923658    0.652474   -0.683679
  20 H     1.0000    0     1.008   10.610090   -2.622437    0.001358
  21 C     6.0000    0    12.011   -2.768309   -4.784397    0.141280
  22 H     1.0000    0     1.008   -3.801763   -4.602215    1.949104
  23 H     1.0000    0     1.008   -4.271508   -4.762377   -1.313067
  24 C     6.0000    0    12.011   -1.414833   -7.340213    0.072036
  25 H     1.0000    0     1.008   -0.408896   -7.563780   -1.745835
  26 H     1.0000    0     1.008    0.050826   -7.408022    1.560709
  27 C     6.0000    0    12.011   -3.230157   -9.571376    0.424647
  28 H     1.0000    0     1.008   -4.250361   -9.347107    2.234858
  29 H     1.0000    0     1.008   -4.693105   -9.508136   -1.067111
  30 C     6.0000    0    12.011   -1.902939  -12.140450    0.372498
  31 H     1.0000    0     1.008   -0.477639  -12.288677    1.888772
  32 H     1.0000    0     1.008   -0.916552  -12.446892   -1.439790
  33 C     6.0000    0    12.011   -7.224870    0.480578    0.680891
  34 H     1.0000    0     1.008   -9.210791    0.698784    1.020639
  35 H     1.0000    0     1.008   11.239090   -0.441938    2.482653
  36 H     1.0000    0     1.008   -3.255936  -13.703140    0.625092

--------------------------------
INTERNAL COORDINATES (ANGSTROEM)
--------------------------------
 C      0   0   0     0.000000000000     0.00000000     0.00000000
 C      1   0   0     4.272610240157     0.00000000     0.00000000
 C      2   1   0     1.438125324390    60.24552033     0.00000000
 C      3   2   1     1.425848293951   117.26990964     0.00000000
 C      4   3   2     1.394550728569   122.61055854   359.83785937
 C      5   4   3     1.426516485839   119.97887465   359.79624859
 C      2   1   3     1.396644556490    58.71813929   180.41905600
 H      4   3   2     1.092243355031   118.68444512   180.00508086
 H      7   2   1     1.091809868125   117.46229028   179.91337232
 C      3   2   1     1.409466609286   123.39034766   180.25391086
 H     10   3   2     1.088930012121   122.43963380     1.03031875
 H     10   3   2     1.091420817464   120.05965022   179.85206872
 C      2   1   3     1.512053481354   177.48621497   138.79855544
 H     13   2   7     1.103762637295   108.84475263    23.61736388
 H     13   2   7     1.104131283142   110.33115400   139.58705119
 C     13   2   7     1.543069080322   113.66706589   262.43995349
 H     16  13   2     1.104091011157   109.31232478   302.10998132
 H     16  13   2     1.104567095054   108.74019833    57.39727594
 C     16  13   2     1.530031484904   112.77443986   179.55202757
 H     19  16  13     1.103750832062   111.38687676    60.17487367
 H     19  16  13     1.103901864798   111.32750082   300.43251127
 C      6   5   4     1.514473940543   119.63223426   180.59990438
 H     22   6   5     1.106150845304   108.20894830   304.76341125
 H     22   6   5     1.106881284587   108.17289650    57.06993635
 C     22   6   5     1.530858015518   117.08692832   180.89650613
 H     25  22   6     1.105783574916   109.91168449   302.08501453
 H     25  22   6     1.106082018337   109.85747792    58.56124947
 C     25  22   6     1.533502635689   112.59519212   180.40380791
 H     28  25  22     1.105964893624   109.18126977   302.62769295
 H     28  25  22     1.106165189333   109.16458957    57.91587622
 C     28  25  22     1.530444509652   113.21970407   180.27451933
 H     31  28  25     1.104008538557   111.31679819    59.99337564
 H     31  28  25     1.103845782783   111.29473236   300.30012473
 C      1   2   3     1.215856577242   178.84603709   342.21745026
 H     34   1   5     1.072406703451   179.50064448   351.94937777
 H     19  16  13     1.102069744278   111.40579065   180.40040565
 H     31  28  25     1.101960317542   111.48462708   180.15533911

---------------------------
INTERNAL COORDINATES (A.U.)
---------------------------
 C      0   0   0     0.000000000000     0.00000000     0.00000000
 C      1   0   0     8.074063230885     0.00000000     0.00000000
 C      2   1   0     2.717663009354    60.24552033     0.00000000
 C      3   2   1     2.694462784087   117.26990964     0.00000000
 C      4   3   2     2.635318956856   122.61055854   359.83785937
 C      5   4   3     2.695725483759   119.97887465   359.79624859
 C      2   1   3     2.639275718198    58.71813929   180.41905600
 H      4   3   2     2.064040812604   118.68444512   180.00508086
 H      7   2   1     2.063221641068   117.46229028   179.91337232
 C      3   2   1     2.663505886458   123.39034766   180.25391086
 H     10   3   2     2.057779501917   122.43963380     1.03031875
 H     10   3   2     2.062486441868   120.05965022   179.85206872
 C      2   1   3     2.857366979601   177.48621497   138.79855544
 H     13   2   7     2.085809101342   108.84475263    23.61736388
 H     13   2   7     2.086505741034   110.33115400   139.58705119
 C     13   2   7     2.915977967531   113.66706589   262.43995349
 H     16  13   2     2.086429638010   109.31232478   302.10998132
 H     16  13   2     2.087329306194   108.74019833    57.39727594
 C     16  13   2     2.891340482745   112.77443986   179.55202757
 H     19  16  13     2.085786792686   111.38687676    60.17487367
 H     19  16  13     2.086072203193   111.32750082   300.43251127
 C      6   5   4     2.861940984587   119.63223426   180.59990438
 H     22   6   5     2.090322160429   108.20894830   304.76341125
 H     22   6   5     2.091702490632   108.17289650    57.06993635
 C     22   6   5     2.892902399246   117.08692832   180.89650613
 H     25  22   6     2.089628119979   109.91168449   302.08501453
 H     25  22   6     2.090192096312   109.85747792    58.56124947
 C     25  22   6     2.897900007099   112.59519212   180.40380791
 H     28  25  22     2.089970762680   109.18126977   302.62769295
 H     28  25  22     2.090349266716   109.16458957    57.91587622
 C     28  25  22     2.892120986405   113.21970407   180.27451933
 H     31  28  25     2.086273787383   111.31679819    59.99337564
 H     31  28  25     2.085966223544   111.29473236   300.30012473
 C      1   2   3     2.297635949114   178.84603709   342.21745026
 H     34   1   5     2.026554973704   179.50064448   351.94937777
 H     19  16  13     2.082609997167   111.40579065   180.40040565
 H     31  28  25     2.082403210602   111.48462708   180.15533911

---------------------
BASIS SET INFORMATION
---------------------
There are 2 groups of distinct atoms

 Group   1 Type C   : 17s4p1d contracted to 3s2p1d pattern {881/31/1}
 Group   2 Type H   : 4s1p contracted to 2s1p pattern {31/1}

Atom   0C    basis set group =>   1
Atom   1C    basis set group =>   1
Atom   2C    basis set group =>   1
Atom   3C    basis set group =>   1
Atom   4C    basis set group =>   1
Atom   5C    basis set group =>   1
Atom   6C    basis set group =>   1
Atom   7H    basis set group =>   2
Atom   8H    basis set group =>   2
Atom   9C    basis set group =>   1
Atom  10H    basis set group =>   2
Atom  11H    basis set group =>   2
Atom  12C    basis set group =>   1
Atom  13H    basis set group =>   2
Atom  14H    basis set group =>   2
Atom  15C    basis set group =>   1
Atom  16H    basis set group =>   2
Atom  17H    basis set group =>   2
Atom  18C    basis set group =>   1
Atom  19H    basis set group =>   2
Atom  20H    basis set group =>   2
Atom  21C    basis set group =>   1
Atom  22H    basis set group =>   2
Atom  23H    basis set group =>   2
Atom  24C    basis set group =>   1
Atom  25H    basis set group =>   2
Atom  26H    basis set group =>   2
Atom  27C    basis set group =>   1
Atom  28H    basis set group =>   2
Atom  29H    basis set group =>   2
Atom  30C    basis set group =>   1
Atom  31H    basis set group =>   2
Atom  32H    basis set group =>   2
Atom  33C    basis set group =>   1
Atom  34H    basis set group =>   2
Atom  35H    basis set group =>   2
Atom  36H    basis set group =>   2
---------------------------------
AUXILIARY/J BASIS SET INFORMATION
---------------------------------
There are 2 groups of distinct atoms

 Group   1 Type C   : 12s5p4d2f1g contracted to 6s4p3d1f1g pattern {711111/2111/211/2/1}
 Group   2 Type H   : 5s2p1d contracted to 3s1p1d pattern {311/2/1}

Atom   0C    basis set group =>   1
Atom   1C    basis set group =>   1
Atom   2C    basis set group =>   1
Atom   3C    basis set group =>   1
Atom   4C    basis set group =>   1
Atom   5C    basis set group =>   1
Atom   6C    basis set group =>   1
Atom   7H    basis set group =>   2
Atom   8H    basis set group =>   2
Atom   9C    basis set group =>   1
Atom  10H    basis set group =>   2
Atom  11H    basis set group =>   2
Atom  12C    basis set group =>   1
Atom  13H    basis set group =>   2
Atom  14H    basis set group =>   2
Atom  15C    basis set group =>   1
Atom  16H    basis set group =>   2
Atom  17H    basis set group =>   2
Atom  18C    basis set group =>   1
Atom  19H    basis set group =>   2
Atom  20H    basis set group =>   2
Atom  21C    basis set group =>   1
Atom  22H    basis set group =>   2
Atom  23H    basis set group =>   2
Atom  24C    basis set group =>   1
Atom  25H    basis set group =>   2
Atom  26H    basis set group =>   2
Atom  27C    basis set group =>   1
Atom  28H    basis set group =>   2
Atom  29H    basis set group =>   2
Atom  30C    basis set group =>   1
Atom  31H    basis set group =>   2
Atom  32H    basis set group =>   2
Atom  33C    basis set group =>   1
Atom  34H    basis set group =>   2
Atom  35H    basis set group =>   2
Atom  36H    basis set group =>   2


           ************************************************************
           *        Program running with 16 parallel MPI-processes    *
           *              working on a common directory               *
           ************************************************************
------------------------------------------------------------------------------
                           ORCA GTO INTEGRAL CALCULATION
                           -- RI-GTO INTEGRALS CHOSEN --
------------------------------------------------------------------------------
------------------------------------------------------------------------------
                   ___                                                        
                  /   \      - P O W E R E D   B Y -                         
                 /     \                                                     
                 |  |  |   _    _      __       _____    __    __             
                 |  |  |  | |  | |    /  \     |  _  \  |  |  /  |          
                  \  \/   | |  | |   /    \    | | | |  |  | /  /          
                 / \  \   | |__| |  /  /\  \   | |_| |  |  |/  /          
                |  |  |   |  __  | /  /__\  \  |    /   |      \           
                |  |  |   | |  | | |   __   |  |    \   |  |\   \          
                \     /   | |  | | |  |  |  |  | |\  \  |  | \   \       
                 \___/    |_|  |_| |__|  |__|  |_| \__\ |__|  \__/        
                                                                              
                      - O R C A' S   B I G   F R I E N D -                    
                                      &                                       
                       - I N T E G R A L  F E E D E R -                       
                                                                              
 v1 FN, 2020, v2 2021                                                         
------------------------------------------------------------------------------


Reading SHARK input file opt.SHARKINP.tmp ... ok
----------------------
SHARK INTEGRAL PACKAGE
----------------------

Number of atoms                             ...     37
Number of basis functions                   ...    425
Number of shells                            ...    255
Maximum angular momentum                    ...      2
Integral batch strategy                     ... SHARK/LIBINT Hybrid
RI-J (if used) integral strategy            ... SPLIT-RIJ (Revised 2003 algorithm where possible)
Printlevel                                  ...      1
Contraction scheme used                     ... PARTIAL GENERAL contraction
Coulomb Range Separation                    ... NOT USED
Exchange Range Separation                   ... NOT USED
Finite Nucleus Model                        ... NOT USED
Auxiliary Coulomb fitting basis             ... AVAILABLE
   # of basis functions in Aux-J            ...   1015
   # of shells in Aux-J                     ...    345
   Maximum angular momentum in Aux-J        ...      4
Auxiliary J/K fitting basis                 ... NOT available
Auxiliary Correlation fitting basis         ... NOT available
Auxiliary 'external' fitting basis          ... NOT available
Integral threshold                          ...     2.500000e-11
Primitive cut-off                           ...     2.500000e-12
Primitive pair pre-selection threshold      ...     2.500000e-12

Calculating pre-screening integrals         ... done (  0.0 sec) Dimension = 255
Calculating pre-screening integrals (ORCA)  ... done (  0.1 sec) Dimension = 159
Organizing shell pair data                  ... done (  0.1 sec)
Shell pair information
Total number of shell pairs                 ...     32640
Shell pairs after pre-screening             ...     17922
Total number of primitive shell pairs       ...     54396
Primitive shell pairs kept                  ...     25073
          la=0 lb=0:   8060 shell pairs
          la=1 lb=0:   6210 shell pairs
          la=1 lb=1:   1079 shell pairs
          la=2 lb=0:   1841 shell pairs
          la=2 lb=1:    627 shell pairs
          la=2 lb=2:    105 shell pairs

Calculating one electron integrals          ... done (  0.0 sec)
Calculating RI/J V-Matrix + Cholesky decomp.... done (  0.1 sec)
Calculating Nuclear repulsion               ... done (  0.0 sec) ENN=   1004.470910353308 Eh

SHARK setup successfully completed in   0.7 seconds

Maximum memory used throughout the entire GTOINT-calculation: 26.8 MB


           ************************************************************
           *        Program running with 16 parallel MPI-processes    *
           *              working on a common directory               *
           ************************************************************
-------------------------------------------------------------------------------
                                 ORCA SCF
-------------------------------------------------------------------------------

------------
SCF SETTINGS
------------
Hamiltonian:
 Density Functional     Method          .... DFT(GTOs)
 Exchange Functional    Exchange        .... B88
   X-Alpha parameter    XAlpha          ....  0.666667
   Becke's b parameter  XBeta           ....  0.004200
 Correlation Functional Correlation     .... LYP
 LDA part of GGA corr.  LDAOpt          .... VWN-5
 Gradients option       PostSCFGGA      .... off
 Hybrid DFT is turned on
   Fraction HF Exchange ScalHFX         ....  0.200000
   Scaling of DF-GGA-X  ScalDFX         ....  0.720000
   Scaling of DF-GGA-C  ScalDFC         ....  0.810000
   Scaling of DF-LDA-C  ScalLDAC        ....  1.000000
   Perturbative correction              ....  0.000000
   Density functional embedding theory  .... OFF
   NL short-range parameter             ....  4.800000
 RI-approximation to the Coulomb term is turned on
   Number of AuxJ basis functions       .... 1015
   RIJ-COSX (HFX calculated with COS-X)).... on


General Settings:
 Integral files         IntName         .... opt
 Hartree-Fock type      HFTyp           .... UHF
 Total Charge           Charge          ....    0
 Multiplicity           Mult            ....    2
 Number of Electrons    NEL             ....  117
 Basis Dimension        Dim             ....  329
 Nuclear Repulsion      ENuc            ....   1004.4709103533 Eh

Convergence Acceleration:
 DIIS                   CNVDIIS         .... on
   Start iteration      DIISMaxIt       ....    12
   Startup error        DIISStart       ....  0.200000
   # of expansion vecs  DIISMaxEq       ....     5
   Bias factor          DIISBfac        ....   1.050
   Max. coefficient     DIISMaxC        ....  10.000
 Trust-Rad. Augm. Hess. CNVTRAH         .... auto
   Auto Start mean grad. ratio tolernc. ....  1.125000
   Auto Start start iteration           ....    20
   Auto Start num. interpolation iter.  ....    10
   Max. Number of Micro iterations      ....    16
   Max. Number of Macro iterations      .... Maxiter - #DIIS iter
   Number of Davidson start vectors     ....     2
   Converg. threshold I  (grad. norm)   ....   1.000e-05
   Converg. threshold II (energy diff.) ....   1.000e-08
   Grad. Scal. Fac. for Micro threshold ....   0.100
   Minimum threshold for Micro iter.    ....   0.010
   NR start threshold (gradient norm)   ....   0.001
   Initial trust radius                 ....   0.400
   Minimum AH scaling param. (alpha)    ....   1.000
   Maximum AH scaling param. (alpha)    .... 1000.000
   Orbital update algorithm             .... Taylor
   White noise on init. David. guess    .... on
   Maximum white noise                  ....   0.010
   Quad. conv. algorithm                .... NR
 SOSCF                  CNVSOSCF        .... off
 Level Shifting         CNVShift        .... on
   Level shift para.    LevelShift      ....    0.2500
   Turn off err/grad.   ShiftErr        ....    0.0010
 Zerner damping         CNVZerner       .... off
 Static damping         CNVDamp         .... on
   Fraction old density DampFac         ....    0.7000
   Max. Damping (<1)    DampMax         ....    0.9800
   Min. Damping (>=0)   DampMin         ....    0.0000
   Turn off err/grad.   DampErr         ....    0.1000
 Fernandez-Rico         CNVRico         .... off

SCF Procedure:
 Maximum # iterations   MaxIter         ....   125
 SCF integral mode      SCFMode         .... Direct
   Integral package                     .... SHARK and LIBINT hybrid scheme
 Reset frequency        DirectResetFreq ....    20
 Integral Threshold     Thresh          ....  2.500e-11 Eh
 Primitive CutOff       TCut            ....  2.500e-12 Eh

Convergence Tolerance:
 Convergence Check Mode ConvCheckMode   .... Total+1el-Energy
 Convergence forced     ConvForced      .... 0
 Energy Change          TolE            ....  1.000e-08 Eh
 1-El. energy change                    ....  1.000e-05 Eh
 DIIS Error             TolErr          ....  5.000e-07


Diagonalization of the overlap matrix:
Smallest eigenvalue                        ... 1.517e-04
Time for diagonalization                   ...    0.023 sec
Threshold for overlap eigenvalues          ... 1.000e-08
Number of eigenvalues below threshold      ... 0
Time for construction of square roots      ...    0.034 sec
Total time needed                          ...    0.057 sec

Time for model grid setup =    0.197 sec

------------------------------
INITIAL GUESS: MODEL POTENTIAL
------------------------------
Loading Hartree-Fock densities                     ... done
Calculating cut-offs                               ... done
Initializing the effective Hamiltonian             ... done
Setting up the integral package (SHARK)            ... done
Starting the Coulomb interaction                   ... done (   0.2 sec)
Reading the grid                                   ... done
Mapping shells                                     ... done
Starting the XC term evaluation                    ... done (   0.1 sec)
  promolecular density results
     # of electrons  =    116.995908674
     EX              =    -88.402117289
     EC              =     -3.814437851
     EX+EC           =    -92.216555140
Transforming the Hamiltonian                       ... done (   0.0 sec)
Diagonalizing the Hamiltonian                      ... done (   0.0 sec)
Back transforming the eigenvectors                 ... done (   0.0 sec)
Now organizing SCF variables                       ... done
                      ------------------
                      INITIAL GUESS DONE (   0.7 sec)
                      ------------------
-------------------
DFT GRID GENERATION
-------------------

General Integration Accuracy     IntAcc      ... 4.388
Radial Grid Type                 RadialGrid  ... OptM3 with GC (2021)
Angular Grid (max. ang.)         AngularGrid ... 4 (Lebedev-302)
Angular grid pruning method      GridPruning ... 4 (adaptive)
Weight generation scheme         WeightScheme... Becke
Basis function cutoff            BFCut       ... 1.0000e-11
Integration weight cutoff        WCut        ... 1.0000e-14
Angular grids for H and He will be reduced by one unit
Partially contracted basis set               ... off
Rotationally invariant grid construction     ... off

Total number of grid points                  ...   162648
Total number of batches                      ...     2559
Average number of points per batch           ...       63
Average number of grid points per atom       ...     4396
Time for grid setup =    0.863 sec

--------------------
COSX GRID GENERATION
--------------------

GRIDX 1
-------
General Integration Accuracy     IntAcc      ... 3.816
Radial Grid Type                 RadialGrid  ... OptM3 with GC (2021)
Angular Grid (max. ang.)         AngularGrid ... 1 (Lebedev-50)
Angular grid pruning method      GridPruning ... 4 (adaptive)
Weight generation scheme         WeightScheme... Becke
Basis function cutoff            BFCut       ... 1.0000e-11
Integration weight cutoff        WCut        ... 1.0000e-14
Angular grids for H and He will be reduced by one unit
Partially contracted basis set               ... on
Rotationally invariant grid construction     ... off

Total number of grid points                  ...    20775
Total number of batches                      ...      346
Average number of points per batch           ...       60
Average number of grid points per atom       ...      561
UseSFitting                                  ... on

GRIDX 2
-------
General Integration Accuracy     IntAcc      ... 4.020
Radial Grid Type                 RadialGrid  ... OptM3 with GC (2021)
Angular Grid (max. ang.)         AngularGrid ... 2 (Lebedev-110)
Angular grid pruning method      GridPruning ... 4 (adaptive)
Weight generation scheme         WeightScheme... Becke
Basis function cutoff            BFCut       ... 1.0000e-11
Integration weight cutoff        WCut        ... 1.0000e-14
Angular grids for H and He will be reduced by one unit
Partially contracted basis set               ... on
Rotationally invariant grid construction     ... off

Total number of grid points                  ...    43752
Total number of batches                      ...      702
Average number of points per batch           ...       62
Average number of grid points per atom       ...     1182
UseSFitting                                  ... on

GRIDX 3
-------
General Integration Accuracy     IntAcc      ... 4.338
Radial Grid Type                 RadialGrid  ... OptM3 with GC (2021)
Angular Grid (max. ang.)         AngularGrid ... 3 (Lebedev-194)
Angular grid pruning method      GridPruning ... 4 (adaptive)
Weight generation scheme         WeightScheme... Becke
Basis function cutoff            BFCut       ... 1.0000e-11
Integration weight cutoff        WCut        ... 1.0000e-14
Angular grids for H and He will be reduced by one unit
Partially contracted basis set               ... on
Rotationally invariant grid construction     ... off

Total number of grid points                  ...    95337
Total number of batches                      ...     1509
Average number of points per batch           ...       63
Average number of grid points per atom       ...     2577
UseSFitting                                  ... on

Time for X-Grid setup             =    1.589 sec

 re-compute Schwartz prescreening matrix in partically contracted basis (1) ...done (   0.118 sec)
--------------
SCF ITERATIONS
--------------
ITER       Energy         Delta-E        Max-DP      RMS-DP      [F,P]     Damp
               ***  Starting incremental Fock matrix formation  ***
  0   -621.4416791180   0.000000000000 0.06242195  0.00092757  0.0869849 0.7000
  1   -621.6266879487  -0.185008830727 0.04589025  0.00068279  0.0458217 0.7000
                               ***Turning on DIIS***
  2   -621.7089452571  -0.082257308390 0.09070389  0.00129800  0.0180277 0.0000
  3   -621.8238546382  -0.114909381069 0.01789202  0.00036751  0.0249292 0.0000
  4   -621.8554119414  -0.031557303232 0.00843460  0.00012915  0.0071871 0.0000
  5   -621.8574195714  -0.002007630008 0.00407688  0.00004721  0.0032557 0.0000
  6   -621.8577336993  -0.000314127839 0.00295531  0.00002751  0.0020270 0.0000
  7   -621.8578545945  -0.000120895239 0.00199988  0.00001892  0.0014039 0.0000
  8   -621.8579126028  -0.000058008324 0.00225245  0.00002893  0.0008161 0.0000
               *** Restarting incremental Fock matrix formation ***
                                   *** Resetting DIIS ***
  9   -621.8579735707  -0.000060967833 0.00096191  0.00001073  0.0004216 0.0000
 10   -621.8579744544  -0.000000883717 0.00042380  0.00000534  0.0006633 0.0000
 11   -621.8579791152  -0.000004660789 0.00037839  0.00000327  0.0002766 0.0000
 12   -621.8579801093  -0.000000994104 0.00036304  0.00000326  0.0002386 0.0000
 13   -621.8579807739  -0.000000664617 0.00017250  0.00000177  0.0001464 0.0000
 14   -621.8579810055  -0.000000231565 0.00010068  0.00000108  0.0000469 0.0000
 15   -621.8579810752  -0.000000069767 0.00002596  0.00000034  0.0000131 0.0000
 16   -621.8579810798  -0.000000004544 0.00001705  0.00000022  0.0000093 0.0000
 17   -621.8579810870  -0.000000007277 0.00001046  0.00000011  0.0000046 0.0000
 18   -621.8579810907  -0.000000003665 0.00000767  0.00000007  0.0000031 0.0000
                 **** Energy Check signals convergence ****

               *****************************************************
               *                     SUCCESS                       *
               *           SCF CONVERGED AFTER  19 CYCLES          *
               *****************************************************

Old exchange energy                            =    -18.068911000 Eh
New exchange energy                            =    -18.068902914 Eh
Exchange energy change after final integration =      0.000008085 Eh
Total energy after final integration           =   -621.857973012 Eh
Final COS-X integration done in                =     4.028 sec

----------------
TOTAL SCF ENERGY
----------------

Total Energy       :         -621.85797301 Eh          -16921.61572 eV

Components:
Nuclear Repulsion  :         1004.47091035 Eh           27333.04306 eV
Electronic Energy  :        -1626.32888337 Eh          -44254.65878 eV
One Electron Energy:        -2831.05765675 Eh          -77036.99533 eV
Two Electron Energy:         1204.72877338 Eh           32782.33655 eV
Max COSX asymmetry :            0.00000054 Eh               0.00001 eV

Virial components:
Potential Energy   :        -1239.23483391 Eh          -33721.29419 eV
Kinetic Energy     :          617.37686090 Eh           16799.67846 eV
Virial Ratio       :            2.00725831


DFT components:
N(Alpha)           :       59.000031974109 electrons
N(Beta)            :       58.000026308583 electrons
N(Total)           :      117.000058282692 electrons
E(X)               :      -71.620906052815 Eh       
E(C)               :       -4.508349169003 Eh       
E(XC)              :      -76.129255221819 Eh       
DFET-embed. en.    :        0.000000000000 Eh       

---------------
SCF CONVERGENCE
---------------

  Last Energy change         ...   -6.4364e-09  Tolerance :   1.0000e-08
  Last MAX-Density change    ...    0.0000e+00  Tolerance :   1.0000e-07
  Last RMS-Density change    ...    0.0000e+00  Tolerance :   5.0000e-09
  Last DIIS Error            ...    2.5110e-06  Tolerance :   5.0000e-07

             **** THE GBW FILE WAS UPDATED (opt.gbw) ****
             **** DENSITY opt.scfp WAS UPDATED ****
             **** ENERGY FILE WAS UPDATED (opt.en.tmp) ****
----------------------
UHF SPIN CONTAMINATION
----------------------

Warning: in a DFT calculation there is little theoretical justification to 
         calculate <S**2> as in Hartree-Fock theory. We will do it anyways
         but you should keep in mind that the values have only limited relevance

Expectation value of <S**2>     :     0.785718
Ideal value S*(S+1) for S=0.5   :     0.750000
Deviation                       :     0.035718

             **** THE GBW FILE WAS UPDATED (opt.gbw) ****
             **** DENSITY opt.scfp WAS UPDATED ****
----------------
ORBITAL ENERGIES
----------------
                 SPIN UP ORBITALS
  NO   OCC          E(Eh)            E(eV) 
   0   1.0000     -10.206353      -277.7290 
   1   1.0000     -10.201073      -277.5853 
   2   1.0000     -10.197128      -277.4780 
   3   1.0000     -10.195302      -277.4283 
   4   1.0000     -10.192849      -277.3615 
   5   1.0000     -10.189975      -277.2833 
   6   1.0000     -10.188508      -277.2434 
   7   1.0000     -10.186249      -277.1819 
   8   1.0000     -10.185517      -277.1620 
   9   1.0000     -10.184121      -277.1240 
  10   1.0000     -10.182699      -277.0853 
  11   1.0000     -10.182399      -277.0772 
  12   1.0000     -10.181738      -277.0592 
  13   1.0000     -10.181552      -277.0541 
  14   1.0000     -10.177719      -276.9498 
  15   1.0000     -10.175896      -276.9002 
  16   1.0000      -0.869146       -23.6507 
  17   1.0000      -0.814446       -22.1622 
  18   1.0000      -0.797081       -21.6897 
  19   1.0000      -0.776563       -21.1314 
  20   1.0000      -0.764112       -20.7925 
  21   1.0000      -0.731966       -19.9178 
  22   1.0000      -0.723688       -19.6926 
  23   1.0000      -0.684544       -18.6274 
  24   1.0000      -0.669478       -18.2174 
  25   1.0000      -0.624248       -16.9867 
  26   1.0000      -0.611220       -16.6321 
  27   1.0000      -0.591202       -16.0874 
  28   1.0000      -0.576201       -15.6792 
  29   1.0000      -0.564741       -15.3674 
  30   1.0000      -0.524693       -14.2776 
  31   1.0000      -0.492862       -13.4114 
  32   1.0000      -0.489568       -13.3218 
  33   1.0000      -0.470192       -12.7946 
  34   1.0000      -0.457460       -12.4481 
  35   1.0000      -0.447719       -12.1830 
  36   1.0000      -0.427985       -11.6461 
  37   1.0000      -0.421728       -11.4758 
  38   1.0000      -0.421040       -11.4571 
  39   1.0000      -0.418263       -11.3815 
  40   1.0000      -0.411364       -11.1938 
  41   1.0000      -0.399826       -10.8798 
  42   1.0000      -0.387038       -10.5318 
  43   1.0000      -0.379670       -10.3313 
  44   1.0000      -0.374447       -10.1892 
  45   1.0000      -0.367217        -9.9925 
  46   1.0000      -0.351877        -9.5751 
  47   1.0000      -0.350734        -9.5440 
  48   1.0000      -0.339295        -9.2327 
  49   1.0000      -0.335138        -9.1196 
  50   1.0000      -0.328338        -8.9345 
  51   1.0000      -0.323248        -8.7960 
  52   1.0000      -0.322500        -8.7757 
  53   1.0000      -0.321215        -8.7407 
  54   1.0000      -0.305928        -8.3247 
  55   1.0000      -0.275861        -7.5065 
  56   1.0000      -0.271990        -7.4012 
  57   1.0000      -0.233057        -6.3418 
  58   1.0000      -0.177616        -4.8332 
  59   0.0000      -0.030410        -0.8275 
  60   0.0000       0.011651         0.3170 
  61   0.0000       0.047297         1.2870 
  62   0.0000       0.058676         1.5967 
  63   0.0000       0.063056         1.7158 
  64   0.0000       0.078403         2.1334 
  65   0.0000       0.085663         2.3310 
  66   0.0000       0.087864         2.3909 
  67   0.0000       0.088795         2.4162 
  68   0.0000       0.094284         2.5656 
  69   0.0000       0.099213         2.6997 
  70   0.0000       0.101997         2.7755 
  71   0.0000       0.108287         2.9466 
  72   0.0000       0.117014         3.1841 
  73   0.0000       0.133019         3.6196 
  74   0.0000       0.141102         3.8396 
  75   0.0000       0.144677         3.9369 
  76   0.0000       0.147927         4.0253 
  77   0.0000       0.149950         4.0804 
  78   0.0000       0.152463         4.1487 
  79   0.0000       0.161148         4.3851 
  80   0.0000       0.164240         4.4692 
  81   0.0000       0.165789         4.5113 
  82   0.0000       0.175460         4.7745 
  83   0.0000       0.185992         5.0611 
  84   0.0000       0.190245         5.1768 
  85   0.0000       0.211480         5.7547 
  86   0.0000       0.214749         5.8436 
  87   0.0000       0.230195         6.2639 
  88   0.0000       0.238614         6.4930 
  89   0.0000       0.247666         6.7393 
  90   0.0000       0.250379         6.8131 
  91   0.0000       0.260939         7.1005 
  92   0.0000       0.268577         7.3083 
  93   0.0000       0.297730         8.1016 
  94   0.0000       0.330857         9.0031 
  95   0.0000       0.331730         9.0268 
  96   0.0000       0.348870         9.4932 
  97   0.0000       0.358592         9.7578 
  98   0.0000       0.369060        10.0426 
  99   0.0000       0.406390        11.0584 
 100   0.0000       0.409171        11.1341 
 101   0.0000       0.412399        11.2219 
 102   0.0000       0.415927        11.3180 
 103   0.0000       0.419459        11.4141 
 104   0.0000       0.427656        11.6371 
 105   0.0000       0.437799        11.9131 
 106   0.0000       0.452456        12.3120 
 107   0.0000       0.458683        12.4814 
 108   0.0000       0.465619        12.6701 
 109   0.0000       0.473837        12.8938 
 110   0.0000       0.476660        12.9706 
 111   0.0000       0.484433        13.1821 
 112   0.0000       0.491207        13.3664 
 113   0.0000       0.501879        13.6568 
 114   0.0000       0.505403        13.7527 
 115   0.0000       0.514218        13.9926 
 116   0.0000       0.517195        14.0736 
 117   0.0000       0.534103        14.5337 
 118   0.0000       0.536815        14.6075 
 119   0.0000       0.544917        14.8279 
 120   0.0000       0.552534        15.0352 
 121   0.0000       0.565137        15.3782 
 122   0.0000       0.569457        15.4957 
 123   0.0000       0.580327        15.7915 
 124   0.0000       0.599434        16.3114 
 125   0.0000       0.607313        16.5258 
 126   0.0000       0.612406        16.6644 
 127   0.0000       0.615793        16.7566 
 128   0.0000       0.617323        16.7982 
 129   0.0000       0.626952        17.0602 
 130   0.0000       0.635263        17.2864 
 131   0.0000       0.637995        17.3607 
 132   0.0000       0.641791        17.4640 
 133   0.0000       0.643693        17.5158 
 134   0.0000       0.645110        17.5543 
 135   0.0000       0.651043        17.7158 
 136   0.0000       0.657369        17.8879 
 137   0.0000       0.658017        17.9056 
 138   0.0000       0.661969        18.0131 
 139   0.0000       0.664047        18.0696 
 140   0.0000       0.672070        18.2880 
 141   0.0000       0.679819        18.4988 
 142   0.0000       0.682084        18.5604 
 143   0.0000       0.686275        18.6745 
 144   0.0000       0.694775        18.9058 
 145   0.0000       0.699685        19.0394 
 146   0.0000       0.703739        19.1497 
 147   0.0000       0.708629        19.2828 
 148   0.0000       0.711932        19.3727 
 149   0.0000       0.714948        19.4547 
 150   0.0000       0.729514        19.8511 
 151   0.0000       0.733344        19.9553 
 152   0.0000       0.743476        20.2310 
 153   0.0000       0.748090        20.3566 
 154   0.0000       0.760316        20.6892 
 155   0.0000       0.773074        21.0364 
 156   0.0000       0.796586        21.6762 
 157   0.0000       0.799456        21.7543 
 158   0.0000       0.818217        22.2648 
 159   0.0000       0.833143        22.6710 
 160   0.0000       0.836032        22.7496 
 161   0.0000       0.838449        22.8154 
 162   0.0000       0.844831        22.9890 
 163   0.0000       0.872547        23.7432 
 164   0.0000       0.892161        24.2769 
 165   0.0000       0.902994        24.5717 
 166   0.0000       0.912891        24.8410 
 167   0.0000       0.935667        25.4608 
 168   0.0000       0.956771        26.0351 
 169   0.0000       0.962544        26.1921 
 170   0.0000       0.981046        26.6956 
 171   0.0000       0.987262        26.8648 
 172   0.0000       1.002661        27.2838 
 173   0.0000       1.012696        27.5568 
 174   0.0000       1.022320        27.8187 
 175   0.0000       1.034590        28.1526 
 176   0.0000       1.045243        28.4425 
 177   0.0000       1.064210        28.9586 
 178   0.0000       1.070298        29.1243 
 179   0.0000       1.081013        29.4159 
 180   0.0000       1.083448        29.4821 
 181   0.0000       1.106081        30.0980 
 182   0.0000       1.124290        30.5935 
 183   0.0000       1.147515        31.2255 
 184   0.0000       1.160695        31.5841 
 185   0.0000       1.180522        32.1236 
 186   0.0000       1.188910        32.3519 
 187   0.0000       1.193559        32.4784 
 188   0.0000       1.204785        32.7839 
 189   0.0000       1.215632        33.0790 
 190   0.0000       1.220131        33.2015 
 191   0.0000       1.223794        33.3011 
 192   0.0000       1.246903        33.9300 
 193   0.0000       1.252277        34.0762 
 194   0.0000       1.291631        35.1471 
 195   0.0000       1.302065        35.4310 
 196   0.0000       1.322909        35.9982 
 197   0.0000       1.332383        36.2560 
 198   0.0000       1.338604        36.4253 
 199   0.0000       1.344635        36.5894 
 200   0.0000       1.371556        37.3219 
 201   0.0000       1.392958        37.9043 
 202   0.0000       1.395944        37.9856 
 203   0.0000       1.412728        38.4423 
 204   0.0000       1.416537        38.5459 
 205   0.0000       1.425434        38.7880 
 206   0.0000       1.426228        38.8096 
 207   0.0000       1.431852        38.9627 
 208   0.0000       1.438319        39.1386 
 209   0.0000       1.448179        39.4070 
 210   0.0000       1.460673        39.7469 
 211   0.0000       1.463229        39.8165 
 212   0.0000       1.471050        40.0293 
 213   0.0000       1.488034        40.4915 
 214   0.0000       1.497921        40.7605 
 215   0.0000       1.521725        41.4082 
 216   0.0000       1.534694        41.7611 
 217   0.0000       1.543012        41.9875 
 218   0.0000       1.551797        42.2266 
 219   0.0000       1.563484        42.5446 
 220   0.0000       1.578541        42.9543 
 221   0.0000       1.600638        43.5556 
 222   0.0000       1.601162        43.5698 
 223   0.0000       1.606558        43.7167 
 224   0.0000       1.611186        43.8426 
 225   0.0000       1.622566        44.1523 
 226   0.0000       1.624501        44.2049 
 227   0.0000       1.629922        44.3524 
 228   0.0000       1.631849        44.4049 
 229   0.0000       1.635877        44.5145 
 230   0.0000       1.637148        44.5491 
 231   0.0000       1.645739        44.7828 
 232   0.0000       1.653935        45.0058 
 233   0.0000       1.658089        45.1189 
 234   0.0000       1.667058        45.3630 
 235   0.0000       1.673801        45.5465 
 236   0.0000       1.682324        45.7784 
 237   0.0000       1.687544        45.9204 
 238   0.0000       1.691060        46.0161 
 239   0.0000       1.696087        46.1529 
 240   0.0000       1.703251        46.3478 
 241   0.0000       1.704923        46.3933 
 242   0.0000       1.708736        46.4971 
 243   0.0000       1.716909        46.7195 
 244   0.0000       1.722170        46.8626 
 245   0.0000       1.732145        47.1341 
 246   0.0000       1.741797        47.3967 
 247   0.0000       1.744940        47.4822 
 248   0.0000       1.754891        47.7530 
 249   0.0000       1.766282        48.0630 
 250   0.0000       1.774805        48.2949 
 251   0.0000       1.782184        48.4957 
 252   0.0000       1.795576        48.8601 
 253   0.0000       1.808374        49.2084 
 254   0.0000       1.818590        49.4863 
 255   0.0000       1.833789        49.8999 
 256   0.0000       1.841424        50.1077 
 257   0.0000       1.845069        50.2069 
 258   0.0000       1.861686        50.6591 
 259   0.0000       1.875322        51.0301 
 260   0.0000       1.882437        51.2237 
 261   0.0000       1.904677        51.8289 
 262   0.0000       1.909001        51.9466 
 263   0.0000       1.915217        52.1157 
 264   0.0000       1.923098        52.3302 
 265   0.0000       1.932609        52.5890 
 266   0.0000       1.945783        52.9474 
 267   0.0000       1.961910        53.3863 
 268   0.0000       1.973736        53.7081 
 269   0.0000       1.992158        54.2094 
 270   0.0000       2.013596        54.7927 
 271   0.0000       2.019803        54.9616 
 272   0.0000       2.032307        55.3019 
 273   0.0000       2.043593        55.6090 
 274   0.0000       2.062626        56.1269 
 275   0.0000       2.070680        56.3461 
 276   0.0000       2.085318        56.7444 
 277   0.0000       2.095689        57.0266 
 278   0.0000       2.108681        57.3801 
 279   0.0000       2.114018        57.5254 
 280   0.0000       2.133114        58.0450 
 281   0.0000       2.156195        58.6730 
 282   0.0000       2.182963        59.4014 
 283   0.0000       2.190122        59.5962 
 284   0.0000       2.195510        59.7429 
 285   0.0000       2.202884        59.9435 
 286   0.0000       2.213478        60.2318 
 287   0.0000       2.219887        60.4062 
 288   0.0000       2.243148        61.0392 
 289   0.0000       2.253505        61.3210 
 290   0.0000       2.261248        61.5317 
 291   0.0000       2.275015        61.9063 
 292   0.0000       2.285521        62.1922 
 293   0.0000       2.291474        62.3542 
 294   0.0000       2.298755        62.5523 
 295   0.0000       2.306588        62.7654 
 296   0.0000       2.314713        62.9865 
 297   0.0000       2.321257        63.1646 
 298   0.0000       2.341940        63.7274 
 299   0.0000       2.362109        64.2763 
 300   0.0000       2.403401        65.3999 
 301   0.0000       2.410641        65.5969 
 302   0.0000       2.411416        65.6180 
 303   0.0000       2.417051        65.7713 
 304   0.0000       2.424851        65.9836 
 305   0.0000       2.462964        67.0207 
 306   0.0000       2.469723        67.2046 
 307   0.0000       2.480413        67.4955 
 308   0.0000       2.487274        67.6822 
 309   0.0000       2.508644        68.2637 
 310   0.0000       2.534671        68.9719 
 311   0.0000       2.543667        69.2167 
 312   0.0000       2.555933        69.5505 
 313   0.0000       2.584775        70.3353 
 314   0.0000       2.604268        70.8657 
 315   0.0000       2.611562        71.0642 
 316   0.0000       2.616864        71.2085 
 317   0.0000       2.673746        72.7563 
 318   0.0000       2.687114        73.1201 
 319   0.0000       2.715310        73.8873 
 320   0.0000       2.722609        74.0860 
 321   0.0000       2.777183        75.5710 
 322   0.0000       2.784566        75.7719 
 323   0.0000       2.811006        76.4914 
 324   0.0000       2.865781        77.9819 
 325   0.0000       2.918957        79.4289 
 326   0.0000       3.008436        81.8637 
 327   0.0000       3.192872        86.8825 
 328   0.0000       3.359249        91.4098 

                 SPIN DOWN ORBITALS
  NO   OCC          E(Eh)            E(eV) 
   0   1.0000     -10.207995      -277.7737 
   1   1.0000     -10.197826      -277.4969 
   2   1.0000     -10.197258      -277.4815 
   3   1.0000     -10.193498      -277.3792 
   4   1.0000     -10.189475      -277.2697 
   5   1.0000     -10.188101      -277.2323 
   6   1.0000     -10.186484      -277.1883 
   7   1.0000     -10.185742      -277.1681 
   8   1.0000     -10.184353      -277.1303 
   9   1.0000     -10.183847      -277.1166 
  10   1.0000     -10.183030      -277.0943 
  11   1.0000     -10.181735      -277.0591 
  12   1.0000     -10.181551      -277.0541 
  13   1.0000     -10.179882      -277.0087 
  14   1.0000     -10.177705      -276.9494 
  15   1.0000     -10.175898      -276.9003 
  16   1.0000      -0.865420       -23.5493 
  17   1.0000      -0.811300       -22.0766 
  18   1.0000      -0.796196       -21.6656 
  19   1.0000      -0.773206       -21.0400 
  20   1.0000      -0.762628       -20.7522 
  21   1.0000      -0.729740       -19.8572 
  22   1.0000      -0.720295       -19.6002 
  23   1.0000      -0.682264       -18.5654 
  24   1.0000      -0.662228       -18.0201 
  25   1.0000      -0.617831       -16.8120 
  26   1.0000      -0.608669       -16.5627 
  27   1.0000      -0.589499       -16.0411 
  28   1.0000      -0.575310       -15.6550 
  29   1.0000      -0.563231       -15.3263 
  30   1.0000      -0.522743       -14.2246 
  31   1.0000      -0.491319       -13.3695 
  32   1.0000      -0.487664       -13.2700 
  33   1.0000      -0.469288       -12.7700 
  34   1.0000      -0.455332       -12.3902 
  35   1.0000      -0.447136       -12.1672 
  36   1.0000      -0.426540       -11.6067 
  37   1.0000      -0.419998       -11.4287 
  38   1.0000      -0.418535       -11.3889 
  39   1.0000      -0.416206       -11.3255 
  40   1.0000      -0.409388       -11.1400 
  41   1.0000      -0.396537       -10.7903 
  42   1.0000      -0.384180       -10.4541 
  43   1.0000      -0.377195       -10.2640 
  44   1.0000      -0.371777       -10.1166 
  45   1.0000      -0.365960        -9.9583 
  46   1.0000      -0.350818        -9.5462 
  47   1.0000      -0.347526        -9.4567 
  48   1.0000      -0.337799        -9.1920 
  49   1.0000      -0.334461        -9.1011 
  50   1.0000      -0.327729        -8.9179 
  51   1.0000      -0.322444        -8.7742 
  52   1.0000      -0.321712        -8.7542 
  53   1.0000      -0.320280        -8.7153 
  54   1.0000      -0.301285        -8.1984 
  55   1.0000      -0.271919        -7.3993 
  56   1.0000      -0.257980        -7.0200 
  57   1.0000      -0.224933        -6.1207 
  58   0.0000      -0.081162        -2.2085 
  59   0.0000      -0.019883        -0.5411 
  60   0.0000       0.028402         0.7729 
  61   0.0000       0.047831         1.3015 
  62   0.0000       0.059597         1.6217 
  63   0.0000       0.063245         1.7210 
  64   0.0000       0.079131         2.1533 
  65   0.0000       0.086592         2.3563 
  66   0.0000       0.089363         2.4317 
  67   0.0000       0.091859         2.4996 
  68   0.0000       0.094430         2.5696 
  69   0.0000       0.100674         2.7395 
  70   0.0000       0.102816         2.7978 
  71   0.0000       0.108755         2.9594 
  72   0.0000       0.118152         3.2151 
  73   0.0000       0.134766         3.6672 
  74   0.0000       0.142006         3.8642 
  75   0.0000       0.145137         3.9494 
  76   0.0000       0.149073         4.0565 
  77   0.0000       0.151165         4.1134 
  78   0.0000       0.153855         4.1866 
  79   0.0000       0.161650         4.3987 
  80   0.0000       0.164699         4.4817 
  81   0.0000       0.166916         4.5420 
  82   0.0000       0.177660         4.8344 
  83   0.0000       0.186972         5.0878 
  84   0.0000       0.193347         5.2612 
  85   0.0000       0.212663         5.7868 
  86   0.0000       0.215285         5.8582 
  87   0.0000       0.231051         6.2872 
  88   0.0000       0.240648         6.5484 
  89   0.0000       0.248324         6.7572 
  90   0.0000       0.251979         6.8567 
  91   0.0000       0.261184         7.1072 
  92   0.0000       0.269814         7.3420 
  93   0.0000       0.299436         8.1481 
  94   0.0000       0.332542         9.0489 
  95   0.0000       0.332635         9.0514 
  96   0.0000       0.349785         9.5181 
  97   0.0000       0.360424         9.8076 
  98   0.0000       0.369773        10.0620 
  99   0.0000       0.407528        11.0894 
 100   0.0000       0.409607        11.1460 
 101   0.0000       0.412786        11.2325 
 102   0.0000       0.416358        11.3297 
 103   0.0000       0.420629        11.4459 
 104   0.0000       0.429899        11.6981 
 105   0.0000       0.441258        12.0072 
 106   0.0000       0.454166        12.3585 
 107   0.0000       0.464102        12.6288 
 108   0.0000       0.467768        12.7286 
 109   0.0000       0.475290        12.9333 
 110   0.0000       0.481849        13.1118 
 111   0.0000       0.493499        13.4288 
 112   0.0000       0.500003        13.6058 
 113   0.0000       0.506186        13.7740 
 114   0.0000       0.510128        13.8813 
 115   0.0000       0.516501        14.0547 
 116   0.0000       0.520752        14.1704 
 117   0.0000       0.541784        14.7427 
 118   0.0000       0.545175        14.8350 
 119   0.0000       0.547049        14.8860 
 120   0.0000       0.555793        15.1239 
 121   0.0000       0.566488        15.4149 
 122   0.0000       0.575118        15.6498 
 123   0.0000       0.584597        15.9077 
 124   0.0000       0.601578        16.3698 
 125   0.0000       0.609000        16.5717 
 126   0.0000       0.612567        16.6688 
 127   0.0000       0.616995        16.7893 
 128   0.0000       0.621357        16.9080 
 129   0.0000       0.628829        17.1113 
 130   0.0000       0.637862        17.3571 
 131   0.0000       0.639559        17.4033 
 132   0.0000       0.641878        17.4664 
 133   0.0000       0.644864        17.5476 
 134   0.0000       0.646152        17.5827 
 135   0.0000       0.651589        17.7306 
 136   0.0000       0.658023        17.9057 
 137   0.0000       0.658156        17.9093 
 138   0.0000       0.662296        18.0220 
 139   0.0000       0.664303        18.0766 
 140   0.0000       0.672918        18.3110 
 141   0.0000       0.679303        18.4848 
 142   0.0000       0.683233        18.5917 
 143   0.0000       0.687274        18.7017 
 144   0.0000       0.695781        18.9332 
 145   0.0000       0.701017        19.0756 
 146   0.0000       0.704118        19.1600 
 147   0.0000       0.709445        19.3050 
 148   0.0000       0.713787        19.4231 
 149   0.0000       0.716359        19.4931 
 150   0.0000       0.731724        19.9112 
[...]
      dxz     :     0.038289
      dyz     :     0.025880
      dx2y2   :     0.038366
      dxy     :     0.024010
 19 H s       :     0.898950  s :     0.898950
      pz      :     0.028759  p :     0.076069
      px      :     0.019375
      py      :     0.027934
 20 H s       :     0.898825  s :     0.898825
      pz      :     0.018872  p :     0.076072
      px      :     0.016902
      py      :     0.040298
 21 C s       :     2.791055  s :     2.791055
      pz      :     1.045216  p :     3.052753
      px      :     1.021162
      py      :     0.986375
      dz2     :     0.029143  d :     0.191821
      dxz     :     0.049524
      dyz     :     0.022243
      dx2y2   :     0.042970
      dxy     :     0.047942
 22 H s       :     0.882414  s :     0.882414
      pz      :     0.038592  p :     0.077713
      px      :     0.023531
      py      :     0.015590
 23 H s       :     0.882358  s :     0.882358
      pz      :     0.030063  p :     0.077690
      px      :     0.032292
      py      :     0.015335
 24 C s       :     2.799195  s :     2.799195
      pz      :     1.040116  p :     3.053869
      px      :     1.023336
      py      :     0.990416
      dz2     :     0.029928  d :     0.190782
      dxz     :     0.053902
      dyz     :     0.019976
      dx2y2   :     0.040317
      dxy     :     0.046658
 25 H s       :     0.899485  s :     0.899485
      pz      :     0.038336  p :     0.076950
      px      :     0.022446
      py      :     0.016167
 26 H s       :     0.899670  s :     0.899670
      pz      :     0.030212  p :     0.076915
      px      :     0.030833
      py      :     0.015871
 27 C s       :     2.799261  s :     2.799261
      pz      :     1.041569  p :     3.055798
      px      :     1.021264
      py      :     0.992965
      dz2     :     0.030050  d :     0.191844
      dxz     :     0.053026
      dyz     :     0.020176
      dx2y2   :     0.040800
      dxy     :     0.047792
 28 H s       :     0.899965  s :     0.899965
      pz      :     0.037649  p :     0.075849
      px      :     0.022340
      py      :     0.015860
 29 H s       :     0.899855  s :     0.899855
      pz      :     0.029790  p :     0.075862
      px      :     0.030492
      py      :     0.015581
 30 C s       :     2.806614  s :     2.806614
      pz      :     1.053711  p :     3.115002
      px      :     1.044793
      py      :     1.016499
      dz2     :     0.026915  d :     0.146072
      dxz     :     0.040589
      dyz     :     0.013443
      dx2y2   :     0.023986
      dxy     :     0.041138
 31 H s       :     0.899127  s :     0.899127
      pz      :     0.030503  p :     0.076099
      px      :     0.029845
      py      :     0.015751
 32 H s       :     0.899059  s :     0.899059
      pz      :     0.038090  p :     0.076077
      px      :     0.021792
      py      :     0.016194
 33 C s       :     2.908210  s :     2.908210
      pz      :     0.984686  p :     3.047528
      px      :     1.082316
      py      :     0.980526
      dz2     :     0.012564  d :     0.099807
      dxz     :     0.025818
      dyz     :     0.000869
      dx2y2   :     0.036027
      dxy     :     0.024529
 34 H s       :     0.883916  s :     0.883916
      pz      :     0.021015  p :     0.094372
      px      :     0.053431
      py      :     0.019926
 35 H s       :     0.894939  s :     0.894939
      pz      :     0.036743  p :     0.076475
      px      :     0.023749
      py      :     0.015983
 36 H s       :     0.896069  s :     0.896069
      pz      :     0.015986  p :     0.076389
      px      :     0.027955
      py      :     0.032448

SPIN
  0 C s       :     0.001384  s :     0.001384
      pz      :     0.014021  p :     0.019770
      px      :     0.001380
      py      :     0.004369
      dz2     :    -0.000510  d :    -0.007160
      dxz     :    -0.005663
      dyz     :    -0.000020
      dx2y2   :    -0.000414
      dxy     :    -0.000553
  1 C s       :     0.006472  s :     0.006472
      pz      :     0.169951  p :     0.183398
      px      :     0.007985
      py      :     0.005462
      dz2     :    -0.000811  d :    -0.007691
      dxz     :    -0.000651
      dyz     :    -0.004492
      dx2y2   :    -0.000875
      dxy     :    -0.000863
  2 C s       :    -0.006741  s :    -0.006741
      pz      :    -0.088605  p :    -0.106792
      px      :    -0.009373
      py      :    -0.008814
      dz2     :     0.002307  d :     0.041157
      dxz     :     0.010511
      dyz     :     0.024308
      dx2y2   :     0.001589
      dxy     :     0.002441
  3 C s       :     0.006072  s :     0.006072
      pz      :     0.165700  p :     0.178994
      px      :     0.008761
      py      :     0.004534
      dz2     :    -0.001035  d :    -0.008018
      dxz     :    -0.003790
      dyz     :    -0.001382
      dx2y2   :    -0.000737
      dxy     :    -0.001073
  4 C s       :    -0.003809  s :    -0.003809
      pz      :    -0.063996  p :    -0.073593
      px      :    -0.004475
      py      :    -0.005122
      dz2     :     0.000639  d :     0.018016
      dxz     :     0.001753
      dyz     :     0.013574
      dx2y2   :     0.000718
      dxy     :     0.001332
  5 C s       :     0.006738  s :     0.006738
      pz      :     0.180018  p :     0.194540
      px      :     0.009243
      py      :     0.005280
      dz2     :    -0.000880  d :    -0.006430
      dxz     :    -0.002594
      dyz     :    -0.001656
      dx2y2   :    -0.000684
      dxy     :    -0.000616
  6 C s       :    -0.004015  s :    -0.004015
      pz      :    -0.071472  p :    -0.081555
      px      :    -0.006515
      py      :    -0.003569
      dz2     :     0.001600  d :     0.018865
      dxz     :     0.011419
      dyz     :     0.004005
      dx2y2   :     0.000961
      dxy     :     0.000880
  7 H s       :    -0.005328  s :    -0.005328
      pz      :     0.004399  p :     0.005339
      px      :     0.000344
      py      :     0.000597
  8 H s       :     0.002153  s :     0.002153
      pz      :    -0.002127  p :    -0.002683
      px      :    -0.000254
      py      :    -0.000301
  9 C s       :     0.018906  s :     0.018906
      pz      :     0.571026  p :     0.612900
      px      :     0.028483
      py      :     0.013391
      dz2     :    -0.002216  d :    -0.006926
      dxz     :    -0.000697
      dyz     :    -0.001681
      dx2y2   :    -0.001177
      dxy     :    -0.001155
 10 H s       :    -0.015639  s :    -0.015639
      pz      :     0.016256  p :     0.019210
      px      :     0.002670
      py      :     0.000285
 11 H s       :    -0.015895  s :    -0.015895
      pz      :     0.015202  p :     0.018231
      px      :     0.001159
      py      :     0.001870
 12 C s       :    -0.001208  s :    -0.001208
      pz      :    -0.001584  p :    -0.006310
      px      :    -0.003971
      py      :    -0.000755
      dz2     :     0.000111  d :     0.007868
      dxz     :     0.006695
      dyz     :     0.000103
      dx2y2   :     0.000808
      dxy     :     0.000150
 13 H s       :     0.001826  s :     0.001826
      pz      :    -0.000036  p :    -0.000233
      px      :    -0.000138
      py      :    -0.000059
 14 H s       :     0.004413  s :     0.004413
      pz      :     0.000117  p :    -0.000097
      px      :    -0.000151
      py      :    -0.000063
 15 C s       :     0.001502  s :     0.001502
      pz      :     0.004386  p :     0.008444
      px      :     0.002083
      py      :     0.001975
      dz2     :    -0.000033  d :    -0.000065
      dxz     :    -0.000064
      dyz     :    -0.000024
      dx2y2   :     0.000069
      dxy     :    -0.000013
 16 H s       :    -0.000033  s :    -0.000033
      pz      :     0.000114  p :     0.000484
      px      :     0.000176
      py      :     0.000195
 17 H s       :    -0.000057  s :    -0.000057
      pz      :     0.000249  p :     0.000264
      px      :    -0.000020
      py      :     0.000036
 18 C s       :     0.000023  s :     0.000023
      pz      :    -0.000042  p :     0.000614
      px      :     0.000660
      py      :    -0.000004
      dz2     :     0.000001  d :     0.000330
      dxz     :     0.000141
      dyz     :     0.000017
      dx2y2   :     0.000089
      dxy     :     0.000082
 19 H s       :    -0.000019  s :    -0.000019
      pz      :     0.000007  p :     0.000041
      px      :     0.000033
      py      :     0.000001
 20 H s       :     0.000144  s :     0.000144
      pz      :     0.000003  p :     0.000017
      px      :     0.000012
      py      :     0.000003
 21 C s       :    -0.001308  s :    -0.001308
      pz      :    -0.000368  p :    -0.005731
      px      :    -0.002655
      py      :    -0.002708
      dz2     :     0.000725  d :     0.009564
      dxz     :     0.005326
      dyz     :     0.002727
      dx2y2   :     0.000304
      dxy     :     0.000482
 22 H s       :     0.009012  s :     0.009012
      pz      :    -0.000094  p :    -0.000218
      px      :    -0.000160
      py      :     0.000036
 23 H s       :     0.009202  s :     0.009202
      pz      :    -0.000083  p :    -0.000217
      px      :    -0.000182
      py      :     0.000048
 24 C s       :     0.000038  s :     0.000038
      pz      :     0.000028  p :     0.000207
      px      :     0.000097
      py      :     0.000082
      dz2     :    -0.000008  d :    -0.000069
      dxz     :     0.000123
      dyz     :    -0.000021
      dx2y2   :    -0.000087
      dxy     :    -0.000075
 25 H s       :     0.000053  s :     0.000053
      pz      :     0.000011  p :     0.000022
      px      :     0.000008
      py      :     0.000003
 26 H s       :     0.000054  s :     0.000054
      pz      :     0.000005  p :     0.000022
      px      :     0.000015
      py      :     0.000003
 27 C s       :    -0.000053  s :    -0.000053
      pz      :     0.000189  p :     0.000071
      px      :    -0.000028
      py      :    -0.000089
      dz2     :    -0.000002  d :    -0.000000
      dxz     :    -0.000001
      dyz     :     0.000012
      dx2y2   :    -0.000003
      dxy     :    -0.000005
 28 H s       :     0.000077  s :     0.000077
      pz      :     0.000001  p :     0.000021
      px      :     0.000004
      py      :     0.000016
 29 H s       :     0.000079  s :     0.000079
      pz      :     0.000001  p :     0.000022
      px      :     0.000005
      py      :     0.000016
 30 C s       :    -0.000011  s :    -0.000011
      pz      :    -0.000001  p :    -0.000051
      px      :    -0.000011
      py      :    -0.000039
      dz2     :     0.000000  d :     0.000019
      dxz     :     0.000011
      dyz     :     0.000009
      dx2y2   :    -0.000003
      dxy     :     0.000001
 31 H s       :     0.000020  s :     0.000020
      pz      :    -0.000000  p :    -0.000002
      px      :    -0.000001
      py      :    -0.000001
 32 H s       :     0.000019  s :     0.000019
      pz      :    -0.000000  p :    -0.000002
      px      :    -0.000000
      py      :    -0.000001
 33 C s       :    -0.001230  s :    -0.001230
      pz      :    -0.032240  p :    -0.038932
      px      :    -0.001426
      py      :    -0.005267
      dz2     :     0.000175  d :     0.001299
      dxz     :     0.000716
      dyz     :     0.000015
      dx2y2   :     0.000161
      dxy     :     0.000233
 34 H s       :     0.001246  s :     0.001246
      pz      :    -0.000953  p :    -0.001314
      px      :    -0.000216
      py      :    -0.000146
 35 H s       :     0.000223  s :     0.000223
      pz      :     0.000004  p :     0.000057
      px      :     0.000053
      py      :     0.000000
 36 H s       :    -0.000004  s :    -0.000004
      pz      :    -0.000000  p :    -0.000004
      px      :    -0.000001
      py      :    -0.000003


                      *****************************
                      * MAYER POPULATION ANALYSIS *
                      *****************************

  NA   - Mulliken gross atomic population
  ZA   - Total nuclear charge
  QA   - Mulliken gross atomic charge
  VA   - Mayer's total valence
  BVA  - Mayer's bonded valence
  FA   - Mayer's free valence

  ATOM       NA         ZA         QA         VA         BVA        FA
  0 C      5.3810     6.0000     0.6190     2.9057     2.9053     0.0004
  1 C      6.0620     6.0000    -0.0620     4.0893     4.0478     0.0416
  2 C      6.0467     6.0000    -0.0467     4.3051     4.2895     0.0157
  3 C      5.9747     6.0000     0.0253     3.8406     3.8028     0.0378
  4 C      6.0475     6.0000    -0.0475     3.8392     3.8318     0.0074
  5 C      6.0733     6.0000    -0.0733     4.1295     4.0823     0.0472
  6 C      5.9687     6.0000     0.0313     3.8918     3.8827     0.0090
  7 H      1.0524     1.0000    -0.0524     0.9910     0.9908     0.0001
  8 H      1.0633     1.0000    -0.0633     1.0002     1.0002     0.0000
  9 C      5.9569     6.0000     0.0431     3.9198     3.4961     0.4237
 10 H      0.9885     1.0000     0.0115     0.9812     0.9799     0.0013
 11 H      0.9924     1.0000     0.0076     0.9761     0.9749     0.0012
 12 C      5.9476     6.0000     0.0524     4.0153     4.0151     0.0002
 13 H      1.0011     1.0000    -0.0011     0.9753     0.9753     0.0000
 14 H      0.9919     1.0000     0.0081     0.9742     0.9741     0.0000
 15 C      6.0288     6.0000    -0.0288     4.0980     4.0979     0.0001
 16 H      0.9883     1.0000     0.0117     0.9761     0.9761     0.0000
 17 H      0.9931     1.0000     0.0069     0.9689     0.9689     0.0000
 18 C      6.0057     6.0000    -0.0057     4.0197     4.0197     0.0000
 19 H      0.9838     1.0000     0.0162     0.9773     0.9773     0.0000
 20 H      0.9833     1.0000     0.0167     0.9771     0.9771     0.0000
 21 C      5.9554     6.0000     0.0446     4.0271     4.0268     0.0003
 22 H      0.9684     1.0000     0.0316     0.9700     0.9698     0.0001
 23 H      0.9682     1.0000     0.0318     0.9698     0.9696     0.0001
 24 C      6.0357     6.0000    -0.0357     4.1134     4.1134     0.0000
 25 H      0.9849     1.0000     0.0151     0.9626     0.9626     0.0000
 26 H      0.9858     1.0000     0.0142     0.9629     0.9629     0.0000
 27 C      6.0238     6.0000    -0.0238     4.1179     4.1179     0.0000
 28 H      0.9942     1.0000     0.0058     0.9677     0.9677     0.0000
 29 H      0.9939     1.0000     0.0061     0.9676     0.9676     0.0000
 30 C      5.9961     6.0000     0.0039     4.0165     4.0165     0.0000
 31 H      0.9840     1.0000     0.0160     0.9772     0.9772     0.0000
 32 H      0.9837     1.0000     0.0163     0.9772     0.9772     0.0000
 33 C      6.5921     6.0000    -0.5921     3.4075     3.4061     0.0015
 34 H      1.0311     1.0000    -0.0311     1.0297     1.0297     0.0000
 35 H      0.9845     1.0000     0.0155     0.9734     0.9734     0.0000
 36 H      0.9871     1.0000     0.0129     0.9734     0.9734     0.0000

  Mayer bond orders larger than 0.100000
B(  0-C ,  4-C ) :   0.8971 B(  0-C , 33-C ) :   2.1447 B(  1-C ,  2-C ) :   1.2752 
B(  1-C ,  6-C ) :   1.4275 B(  1-C , 12-C ) :   1.1090 B(  2-C ,  3-C ) :   1.2638 
B(  2-C ,  9-C ) :   1.5112 B(  3-C ,  4-C ) :   1.4584 B(  3-C ,  7-H ) :   0.9257 
B(  4-C ,  5-C ) :   1.3540 B(  5-C ,  6-C ) :   1.3831 B(  5-C , 21-C ) :   1.0934 
B(  6-C ,  8-H ) :   0.9132 B(  9-C , 10-H ) :   0.9055 B(  9-C , 11-H ) :   0.9119 
B( 12-C , 13-H ) :   0.9113 B( 12-C , 14-H ) :   0.9047 B( 12-C , 15-C ) :   1.0597 
B( 15-C , 16-H ) :   0.9440 B( 15-C , 17-H ) :   0.9435 B( 15-C , 18-C ) :   1.1014 
B( 18-C , 19-H ) :   0.9664 B( 18-C , 20-H ) :   0.9668 B( 18-C , 35-H ) :   0.9640 
B( 21-C , 22-H ) :   0.8962 B( 21-C , 23-H ) :   0.8968 B( 21-C , 24-C ) :   1.1022 
B( 24-C , 25-H ) :   0.9289 B( 24-C , 26-H ) :   0.9297 B( 24-C , 27-C ) :   1.0757 
B( 27-C , 28-H ) :   0.9410 B( 27-C , 29-H ) :   0.9411 B( 27-C , 30-C ) :   1.1059 
B( 30-C , 31-H ) :   0.9662 B( 30-C , 32-H ) :   0.9662 B( 30-C , 36-H ) :   0.9618 
B( 33-C , 34-H ) :   1.1167 

-------
TIMINGS
-------

Total SCF time: 0 days 0 hours 0 min 34 sec 

Total time                  ....      34.810 sec
Sum of individual times     ....      32.389 sec  ( 93.0%)

Fock matrix formation       ....      28.650 sec  ( 82.3%)
  Split-RI-J                ....       2.596 sec  (  9.1% of F)
  Chain of spheres X        ....      16.383 sec  ( 57.2% of F)
  XC integration            ....       7.207 sec  ( 25.2% of F)
    Basis function eval.    ....       0.628 sec  (  8.7% of XC)
    Density eval.           ....       0.731 sec  ( 10.1% of XC)
    XC-Functional eval.     ....       0.169 sec  (  2.3% of XC)
    XC-Potential eval.      ....       0.503 sec  (  7.0% of XC)
Diagonalization             ....       0.536 sec  (  1.5%)
Density matrix formation    ....       0.060 sec  (  0.2%)
Population analysis         ....       0.246 sec  (  0.7%)
Initial guess               ....       0.082 sec  (  0.2%)
Orbital Transformation      ....       0.000 sec  (  0.0%)
Orbital Orthonormalization  ....       0.060 sec  (  0.2%)
DIIS solution               ....       0.383 sec  (  1.1%)
Grid generation             ....       2.432 sec  (  7.0%)

Maximum memory used throughout the entire SCF-calculation: 90.2 MB

-------------------------   --------------------
FINAL SINGLE POINT ENERGY      -621.857979213412
-------------------------   --------------------

                                *** OPTIMIZATION RUN DONE ***

                            ***************************************
                            *     ORCA property calculations      *
                            ***************************************

                                    ---------------------
                                    Active property flags
                                    ---------------------
   (+) Dipole Moment


------------------------------------------------------------------------------
                       ORCA ELECTRIC PROPERTIES CALCULATION
------------------------------------------------------------------------------

Dipole Moment Calculation                       ... on
Quadrupole Moment Calculation                   ... off
Polarizability Calculation                      ... off
GBWName                                         ... opt.gbw
Electron density                                ... opt.scfp
The origin for moment calculation is the CENTER OF MASS  = ( 0.559477, -2.147015 -0.108219)

-------------
DIPOLE MOMENT
-------------
                                X             Y             Z
Electronic contribution:    -11.73261      14.80532      -1.69653
Nuclear contribution   :     11.95169     -15.07875       1.72848
                        -----------------------------------------
Total Dipole Moment    :      0.21908      -0.27343       0.03196
                        -----------------------------------------
Magnitude (a.u.)       :      0.35182
Magnitude (Debye)      :      0.89426



--------------------
Rotational spectrum 
--------------------
 
Rotational constants in cm-1:     0.018509     0.010263     0.006806 
Rotational constants in MHz :   554.888538   307.670825   204.032667 

 Dipole components along the rotational axes: 
x,y,z [a.u.] :    -0.019494     0.350916     0.016012 
x,y,z [Debye]:    -0.049549     0.891958     0.040700 

 

Timings for individual modules:

Sum of individual times         ...      194.726 sec (=   3.245 min)
GTO integral calculation        ...        9.299 sec (=   0.155 min)   4.8 %
SCF iterations                  ...      158.900 sec (=   2.648 min)  81.6 %
SCF Gradient evaluation         ...       25.944 sec (=   0.432 min)  13.3 %
Geometry relaxation             ...        0.582 sec (=   0.010 min)   0.3 %
                             ****ORCA TERMINATED NORMALLY****
TOTAL RUN TIME: 0 days 0 hours 3 minutes 22 seconds 372 msec
