
                                 *****************
                                 * O   R   C   A *
                                 *****************

                                            #,                                       
                                            ###                                      
                                            ####                                     
                                            #####                                    
                                            ######                                   
                                           ########,                                 
                                     ,,################,,,,,                         
                               ,,#################################,,                 
                          ,,##########################################,,             
                       ,#########################################, ''#####,          
                    ,#############################################,,   '####,        
                  ,##################################################,,,,####,       
                ,###########''''           ''''###############################       
              ,#####''   ,,,,##########,,,,          '''####'''          '####       
            ,##' ,,,,###########################,,,                        '##       
           ' ,,###''''                  '''############,,,                           
         ,,##''                                '''############,,,,        ,,,,,,###''
      ,#''                                            '''#######################'''  
     '                                                          ''''####''''         
             ,#######,   #######,   ,#######,      ##                                
            ,#'     '#,  ##    ##  ,#'     '#,    #''#        ######   ,####,        
            ##       ##  ##   ,#'  ##            #'  '#       #        #'  '#        
            ##       ##  #######   ##           ,######,      #####,   #    #        
            '#,     ,#'  ##    ##  '#,     ,#' ,#      #,         ##   #,  ,#        
             '#######'   ##     ##  '#######'  #'      '#     #####' # '####'        



                  #######################################################
                  #                        -***-                        #
                  #          Department of theory and spectroscopy      #
                  #    Directorship and core code : Frank Neese         #
                  #        Max Planck Institute fuer Kohlenforschung    #
                  #                Kaiser Wilhelm Platz 1               #
                  #                 D-45470 Muelheim/Ruhr               #
                  #                      Germany                        #
                  #                                                     #
                  #                  All rights reserved                #
                  #                        -***-                        #
                  #######################################################


                         Program Version 5.0.4 -  RELEASE  -


 With contributions from (in alphabetic order):
   Daniel Aravena         : Magnetic Suceptibility
   Michael Atanasov       : Ab Initio Ligand Field Theory (pilot matlab implementation)
   Alexander A. Auer      : GIAO ZORA, VPT2 properties, NMR spectrum
   Ute Becker             : Parallelization
   Giovanni Bistoni       : ED, misc. LED, open-shell LED, HFLD
   Martin Brehm           : Molecular dynamics
   Dmytro Bykov           : SCF Hessian
   Vijay G. Chilkuri      : MRCI spin determinant printing, contributions to CSF-ICE
   Dipayan Datta          : RHF DLPNO-CCSD density
   Achintya Kumar Dutta   : EOM-CC, STEOM-CC
   Dmitry Ganyushin       : Spin-Orbit,Spin-Spin,Magnetic field MRCI
   Miquel Garcia          : C-PCM and meta-GGA Hessian, CC/C-PCM, Gaussian charge scheme
   Yang Guo               : DLPNO-NEVPT2, F12-NEVPT2, CIM, IAO-localization
   Andreas Hansen         : Spin unrestricted coupled pair/coupled cluster methods
   Benjamin Helmich-Paris : MC-RPA, TRAH-SCF, COSX integrals
   Lee Huntington         : MR-EOM, pCC
   Robert Izsak           : Overlap fitted RIJCOSX, COSX-SCS-MP3, EOM
   Marcus Kettner         : VPT2
   Christian Kollmar      : KDIIS, OOCD, Brueckner-CCSD(T), CCSD density, CASPT2, CASPT2-K
   Simone Kossmann        : Meta GGA functionals, TD-DFT gradient, OOMP2, MP2 Hessian
   Martin Krupicka        : Initial AUTO-CI
   Lucas Lang             : DCDCAS
   Marvin Lechner         : AUTO-CI (C++ implementation), FIC-MRCC
   Dagmar Lenk            : GEPOL surface, SMD
   Dimitrios Liakos       : Extrapolation schemes; Compound Job, initial MDCI parallelization
   Dimitrios Manganas     : Further ROCIS development; embedding schemes
   Dimitrios Pantazis     : SARC Basis sets
   Anastasios Papadopoulos: AUTO-CI, single reference methods and gradients
   Taras Petrenko         : DFT Hessian,TD-DFT gradient, ASA, ECA, R-Raman, ABS, FL, XAS/XES, NRVS
   Peter Pinski           : DLPNO-MP2, DLPNO-MP2 Gradient
   Christoph Reimann      : Effective Core Potentials
   Marius Retegan         : Local ZFS, SOC
   Christoph Riplinger    : Optimizer, TS searches, QM/MM, DLPNO-CCSD(T), (RO)-DLPNO pert. Triples
   Tobias Risthaus        : Range-separated hybrids, TD-DFT gradient, RPA, STAB
   Michael Roemelt        : Original ROCIS implementation
   Masaaki Saitow         : Open-shell DLPNO-CCSD energy and density
   Barbara Sandhoefer     : DKH picture change effects
   Avijit Sen             : IP-ROCIS
   Kantharuban Sivalingam : CASSCF convergence, NEVPT2, FIC-MRCI
   Bernardo de Souza      : ESD, SOC TD-DFT
   Georgi Stoychev        : AutoAux, RI-MP2 NMR, DLPNO-MP2 response
   Willem Van den Heuvel  : Paramagnetic NMR
   Boris Wezisla          : Elementary symmetry handling
   Frank Wennmohs         : Technical directorship


 We gratefully acknowledge several colleagues who have allowed us to
 interface, adapt or use parts of their codes:
   Stefan Grimme, W. Hujo, H. Kruse, P. Pracht,  : VdW corrections, initial TS optimization,
                  C. Bannwarth, S. Ehlert          DFT functionals, gCP, sTDA/sTD-DF
   Ed Valeev, F. Pavosevic, A. Kumar             : LibInt (2-el integral package), F12 methods
   Garnet Chan, S. Sharma, J. Yang, R. Olivares  : DMRG
   Ulf Ekstrom                                   : XCFun DFT Library
   Mihaly Kallay                                 : mrcc  (arbitrary order and MRCC methods)
   Jiri Pittner, Ondrej Demel                    : Mk-CCSD
   Frank Weinhold                                : gennbo (NPA and NBO analysis)
   Christopher J. Cramer and Donald G. Truhlar   : smd solvation model
   Lars Goerigk                                  : TD-DFT with DH, B97 family of functionals
   V. Asgeirsson, H. Jonsson                     : NEB implementation
   FAccTs GmbH                                   : IRC, NEB, NEB-TS, DLPNO-Multilevel, CI-OPT
                                                   MM, QMMM, 2- and 3-layer-ONIOM, Crystal-QMMM,
                                                   LR-CPCM, SF, NACMEs, symmetry and pop. for TD-DFT,
                                                   nearIR, NL-DFT gradient (VV10), updates on ESD,
                                                   ML-optimized integration grids
   S Lehtola, MJT Oliveira, MAL Marques          : LibXC Library
   Liviu Ungur et al                             : ANISO software


 Your calculation uses the libint2 library for the computation of 2-el integrals
 For citations please refer to: http://libint.valeyev.net

 Your ORCA version has been built with support for libXC version: 5.1.0
 For citations please refer to: https://tddft.org/programs/libxc/

 This ORCA versions uses:
   CBLAS   interface :  Fast vector & matrix operations
   LAPACKE interface :  Fast linear algebra routines
   SCALAPACK package :  Parallel linear algebra routines
   Shared memory     :  Shared parallel matrices
   BLAS/LAPACK       :  OpenBLAS 0.3.15  USE64BITINT DYNAMIC_ARCH NO_AFFINITY SkylakeX SINGLE_THREADED
        Core in use  :  SkylakeX
   Copyright (c) 2011-2014, The OpenBLAS Project




***************************************
The coordinates will be read from file: model.xyz
***************************************


================================================================================

----- Orbital basis set information -----
Your calculation utilizes the basis: EPR-II
   V. Barone, in Recent Advances in Density Functional Methods, Part 1 (ed. D. P. Chong), World Scientific, Singapore, 1995, p. 287.

----- AuxJ basis set information -----
Your calculation utilizes the auxiliary basis: def2/J
   F. Weigend, Phys. Chem. Chem. Phys. 8, 1057 (2006).

================================================================================
                                        WARNINGS
                       Please study these warnings very carefully!
================================================================================


WARNING: your system is open-shell and RHF/RKS was chosen
  ===> : WILL SWITCH to UHF/UKS


WARNING: Geometry Optimization
  ===> : Switching off AutoStart
         For restart on a previous wavefunction, please use MOREAD

INFO   : the flag for use of the SHARK integral package has been found!

================================================================================
                                       INPUT FILE
================================================================================
NAME = opt_EPRII.inp
|  1> ! B3LYP EPR-II OPT
|  2> %pal nprocs 16 end
|  3> *XYZFile 0 2 model.xyz
|  4> 
|  5>                          ****END OF INPUT****
================================================================================

                       *****************************
                       * Geometry Optimization Run *
                       *****************************

Geometry optimization settings:
Update method            Update   .... BFGS
Choice of coordinates    CoordSys .... Z-matrix Internals
Initial Hessian          InHess   .... Almoef's Model

Convergence Tolerances:
Energy Change            TolE     ....  5.0000e-06 Eh
Max. Gradient            TolMAXG  ....  3.0000e-04 Eh/bohr
RMS Gradient             TolRMSG  ....  1.0000e-04 Eh/bohr
Max. Displacement        TolMAXD  ....  4.0000e-03 bohr
RMS Displacement         TolRMSD  ....  2.0000e-03 bohr
Strict Convergence                ....  False
------------------------------------------------------------------------------
                        ORCA OPTIMIZATION COORDINATE SETUP
------------------------------------------------------------------------------

The optimization will be done in new redundant internal coordinates
Making redundant internal coordinates   ...  (new redundants) done
Evaluating the initial hessian          ...  (Almloef) done
Evaluating the coordinates              ...  done
Calculating the B-matrix                .... done
Calculating the G-matrix                .... done
Diagonalizing the G-matrix              .... done
Small eigenvalue found = 2.564e-03
Small eigenvalue found = 1.030e-02
Small eigenvalue found = 1.225e-02
Small eigenvalue found = 1.885e-02
Small eigenvalue found = 2.671e-02
The first mode is                       ....   84
The number of degrees of freedom        ....  105

    -----------------------------------------------------------------
                    Redundant Internal Coordinates


    -----------------------------------------------------------------
         Definition                    Initial Value    Approx d2E/dq
    -----------------------------------------------------------------
      1. B(C   2,C   1)                  1.4387         0.522512   
      2. B(C   3,C   2)                  1.4259         0.547579   
      3. B(C   4,C   0)                  1.4346         0.530457   
      4. B(C   4,C   3)                  1.3946         0.614286   
      5. B(C   5,C   4)                  1.4266         0.546156   
      6. B(C   6,C   5)                  1.4034         0.594822   
      7. B(C   6,C   1)                  1.3966         0.609937   
      8. B(H   7,C   3)                  1.0923         0.357082   
      9. B(H   8,C   6)                  1.0920         0.357452   
     10. B(C   9,C   2)                  1.4094         0.581784   
     11. B(H  10,C   9)                  1.0889         0.361501   
     12. B(H  11,C   9)                  1.0915         0.358174   
     13. B(C  12,C   1)                  1.5122         0.398892   
     14. B(H  13,C  12)                  1.1036         0.342495   
     15. B(H  14,C  12)                  1.1041         0.341975   
     16. B(C  15,C  12)                  1.5433         0.355734   
     17. B(H  16,C  15)                  1.1040         0.342009   
     18. B(H  17,C  15)                  1.1047         0.341205   
     19. B(C  18,C  15)                  1.5303         0.373223   
     20. B(H  19,C  18)                  1.1039         0.342204   
     21. B(H  20,C  18)                  1.1039         0.342174   
     22. B(C  21,C   5)                  1.5143         0.395692   
     23. B(H  22,C  21)                  1.1062         0.339349   
     24. B(H  23,C  21)                  1.1062         0.339251   
     25. B(C  24,C  21)                  1.5310         0.372179   
     26. B(H  25,C  24)                  1.1056         0.339983   
     27. B(H  26,C  24)                  1.1057         0.339979   
     28. B(C  27,C  24)                  1.5337         0.368497   
     29. B(H  28,C  27)                  1.1058         0.339834   
     30. B(H  29,C  27)                  1.1057         0.339907   
     31. B(C  30,C  27)                  1.5308         0.372486   
     32. B(H  31,C  30)                  1.1037         0.342400   
     33. B(H  32,C  30)                  1.1038         0.342261   
     34. B(C  33,C   0)                  1.2158         1.184885   
     35. B(H  34,C  33)                  1.0723         0.384233   
     36. B(H  35,C  18)                  1.1022         0.344257   
     37. B(H  36,C  30)                  1.1022         0.344366   
     38. L(C   4,C   0,C  33,C   3, 1) 179.7661         0.474687   
     39. L(C   4,C   0,C  33,C   3, 2) 180.3750         0.474687   
     40. A(C   6,C   1,C  12)          119.4185         0.400130   
     41. A(C   2,C   1,C   6)          118.9551         0.419733   
     42. A(C   2,C   1,C  12)          121.6112         0.389424   
     43. A(C   3,C   2,C   9)          119.3778         0.419703   
     44. A(C   1,C   2,C   3)          117.2799         0.411758   
     45. A(C   1,C   2,C   9)          123.3416         0.416215   
     46. A(C   4,C   3,H   7)          118.7137         0.351855   
     47. A(C   2,C   3,H   7)          118.6948         0.345104   
     48. A(C   2,C   3,C   4)          122.5914         0.423798   
     49. A(C   0,C   4,C   3)          119.3925         0.421399   
     50. A(C   0,C   4,C   5)          120.6176         0.412671   
     51. A(C   3,C   4,C   5)          119.9894         0.423601   
     52. A(C   4,C   5,C   6)          117.3485         0.421171   
     53. A(C   6,C   5,C  21)          123.0243         0.397804   
     54. A(C   4,C   5,C  21)          119.6265         0.391896   
     55. A(C   5,C   6,H   8)          118.6847         0.350008   
     56. A(C   1,C   6,H   8)          117.4801         0.351494   
     57. A(C   1,C   6,C   5)          123.8350         0.429580   
     58. A(C   2,C   9,H  10)          122.4066         0.349365   
     59. A(H  10,C   9,H  11)          117.5067         0.290772   
     60. A(C   2,C   9,H  11)          120.0847         0.348820   
     61. A(H  14,C  12,C  15)          109.0382         0.319022   
     62. A(H  13,C  12,C  15)          108.5845         0.319101   
     63. A(C   1,C  12,C  15)          113.7357         0.364387   
     64. A(H  13,C  12,H  14)          106.0257         0.286243   
     65. A(C   1,C  12,H  14)          110.2812         0.325062   
     66. A(C   1,C  12,H  13)          108.8754         0.325143   
     67. A(H  17,C  15,C  18)          109.9103         0.321416   
     68. A(H  16,C  15,C  18)          109.9082         0.321540   
     69. A(C  12,C  15,C  18)          112.7328         0.360272   
     70. A(H  16,C  15,H  17)          105.9895         0.286079   
     71. A(C  12,C  15,H  17)          108.7642         0.318905   
     72. A(C  12,C  15,H  16)          109.3056         0.319028   
     73. A(H  19,C  18,H  35)          107.6139         0.286503   
     74. A(C  15,C  18,H  35)          111.3701         0.321885   
     75. A(H  19,C  18,H  20)          107.3308         0.286231   
     76. A(C  15,C  18,H  20)          111.3414         0.321565   
     77. A(C  15,C  18,H  19)          111.3672         0.321570   
     78. A(H  20,C  18,H  35)          107.6111         0.286499   
     79. A(H  23,C  21,C  24)          109.1512         0.320967   
     80. A(H  22,C  21,C  24)          109.2351         0.320982   
     81. A(C   5,C  21,C  24)          117.1170         0.366711   
     82. A(H  22,C  21,H  23)          104.2154         0.285476   
     83. A(C   5,C  21,H  23)          108.1429         0.324206   
     84. A(C   5,C  21,H  22)          108.2057         0.324221   
     85. A(H  26,C  24,C  27)          109.0866         0.320558   
     86. A(H  25,C  24,C  27)          108.9961         0.320559   
     87. A(C  21,C  24,C  27)          112.5856         0.362271   
     88. A(H  25,C  24,H  26)          106.1908         0.285654   
     89. A(C  21,C  24,H  26)          109.8803         0.321080   
     90. A(C  21,C  24,H  25)          109.8931         0.321080   
     91. A(H  29,C  27,C  30)          109.5623         0.321112   
     92. A(H  28,C  27,C  30)          109.5983         0.321100   
     93. A(C  24,C  27,C  30)          113.2325         0.362322   
     94. A(H  28,C  27,H  29)          105.8515         0.285625   
     95. A(C  24,C  27,H  29)          109.1405         0.320547   
     96. A(C  24,C  27,H  28)          109.1890         0.320535   
     97. A(H  31,C  30,H  32)          107.3545         0.286268   
     98. A(C  27,C  30,H  32)          111.2811         0.321475   
     99. A(C  27,C  30,H  31)          111.3009         0.321496   
    100. A(H  32,C  30,H  36)          107.5901         0.286524   
    101. A(H  31,C  30,H  36)          107.5902         0.286542   
    102. A(C  27,C  30,H  36)          111.5158         0.321797   
    103. L(C   0,C  33,H  34, 2)       180.3548         0.399096   
    104. L(C   0,C  33,H  34, 1)       179.7542         0.399096   
    105. D(C   3,C   2,C   1,C   6)      0.2267         0.018623   
    106. D(C   3,C   2,C   1,C  12)   -178.3476         0.018623   
    107. D(C   9,C   2,C   1,C  12)      1.9624         0.018623   
    108. D(C   9,C   2,C   1,C   6)   -179.4633         0.018623   
    109. D(C   4,C   3,C   2,C   9)    179.6830         0.020506   
    110. D(H   7,C   3,C   2,C   1)   -179.9255         0.020506   
    111. D(H   7,C   3,C   2,C   9)     -0.2227         0.020506   
    112. D(C   4,C   3,C   2,C   1)     -0.0198         0.020506   
    113. D(C   5,C   4,C   3,C   2)     -0.1926         0.026083   
    114. D(C   0,C   4,C   3,C   2)   -179.9267         0.026083   
    115. D(C   0,C   4,C   3,H   7)     -0.0210         0.026083   
    116. D(C   5,C   4,C   3,H   7)    179.7130         0.026083   
    117. D(C  21,C   5,C   4,C   0)      0.2158         0.020396   
    118. D(C   6,C   5,C   4,C   0)    179.9208         0.020396   
    119. D(C  21,C   5,C   4,C   3)   -179.5150         0.020396   
    120. D(C   6,C   5,C   4,C   3)      0.1900         0.020396   
    121. D(H   8,C   6,C   5,C  21)     -0.0908         0.024369   
    122. D(C   1,C   6,C   5,C  21)    179.7174         0.024369   
    123. D(H   8,C   6,C   1,C  12)     -1.8182         0.025693   
    124. D(C   5,C   6,C   1,C  12)    178.3714         0.025693   
    125. D(C   1,C   6,C   5,C   4)      0.0233         0.024369   
    126. D(H   8,C   6,C   5,C   4)   -179.7849         0.024369   
    127. D(C   5,C   6,C   1,C   2)     -0.2348         0.025693   
    128. D(H   8,C   6,C   1,C   2)    179.5756         0.025693   
    129. D(H  11,C   9,C   2,C   3)      0.1034         0.023261   
    130. D(H  11,C   9,C   2,C   1)    179.7872         0.023261   
    131. D(H  10,C   9,C   2,C   3)   -179.3727         0.023261   
    132. D(H  10,C   9,C   2,C   1)      0.3111         0.023261   
    133. D(H  14,C  12,C   1,C   2)    -42.0144         0.011811   
    134. D(H  13,C  12,C   1,C   6)     23.4804         0.011811   
    135. D(H  13,C  12,C   1,C   2)   -157.9517         0.011811   
    136. D(C  15,C  12,C   1,C   6)    -97.7362         0.011811   
    137. D(C  15,C  12,C   1,C   2)     80.8317         0.011811   
    138. D(H  14,C  12,C   1,C   6)    139.4177         0.011811   
    139. D(C  18,C  15,C  12,C   1)    179.6363         0.010170   
    140. D(C  18,C  15,C  12,H  13)     58.2574         0.010170   
    141. D(H  17,C  15,C  12,H  14)   -178.9994         0.010170   
    142. D(H  17,C  15,C  12,H  13)    -63.9034         0.010170   
    143. D(H  17,C  15,C  12,C   1)     57.4754         0.010170   
    144. D(H  16,C  15,C  12,H  14)     65.7064         0.010170   
    145. D(H  16,C  15,C  12,H  13)   -179.1976         0.010170   
    146. D(C  18,C  15,C  12,H  14)    -56.8386         0.010170   
    147. D(H  16,C  15,C  12,C   1)    -57.8187         0.010170   
    148. D(H  35,C  18,C  15,H  17)    -58.0051         0.011124   
    149. D(H  35,C  18,C  15,H  16)     58.2754         0.011124   
    150. D(H  35,C  18,C  15,C  12)   -179.5182         0.011124   
    151. D(H  20,C  18,C  15,H  17)     62.1072         0.011124   
    152. D(H  20,C  18,C  15,H  16)    178.3876         0.011124   
    153. D(H  20,C  18,C  15,C  12)    -59.4059         0.011124   
    154. D(H  19,C  18,C  15,H  17)   -178.1383         0.011124   
    155. D(H  19,C  18,C  15,H  16)    -61.8578         0.011124   
    156. D(H  19,C  18,C  15,C  12)     60.3486         0.011124   
    157. D(C  24,C  21,C   5,C   6)      0.4832         0.011632   
    158. D(C  24,C  21,C   5,C   4)   -179.8293         0.011632   
    159. D(H  23,C  21,C   5,C   6)   -123.2733         0.011632   
    160. D(H  23,C  21,C   5,C   4)     56.4142         0.011632   
    161. D(H  22,C  21,C   5,C   6)    124.4052         0.011632   
    162. D(H  22,C  21,C   5,C   4)    -55.9074         0.011632   
    163. D(H  26,C  24,C  21,H  22)    -64.9547         0.011065   
    164. D(H  26,C  24,C  21,C   5)     58.4433         0.011065   
    165. D(H  25,C  24,C  21,H  23)     65.1873         0.011065   
    166. D(H  25,C  24,C  21,H  22)    178.5469         0.011065   
    167. D(H  25,C  24,C  21,C   5)    -58.0551         0.011065   
    168. D(C  27,C  24,C  21,H  23)    -56.5101         0.011065   
    169. D(C  27,C  24,C  21,H  22)     56.8494         0.011065   
    170. D(C  27,C  24,C  21,C   5)   -179.7525         0.011065   
    171. D(H  26,C  24,C  21,H  23)   -178.3143         0.011065   
    172. D(C  30,C  27,C  24,H  26)    -57.6756         0.010861   
    173. D(C  30,C  27,C  24,C  21)   -179.9286         0.010861   
    174. D(H  29,C  27,C  24,H  26)   -179.9984         0.010861   
    175. D(H  29,C  27,C  24,H  25)    -64.4566         0.010861   
    176. D(H  29,C  27,C  24,C  21)     57.7486         0.010861   
    177. D(H  28,C  27,C  24,H  26)     64.7289         0.010861   
    178. D(C  30,C  27,C  24,H  25)     57.8662         0.010861   
    179. D(H  28,C  27,C  24,H  25)   -179.7293         0.010861   
    180. D(H  28,C  27,C  24,C  21)    -57.5242         0.010861   
    181. D(H  36,C  30,C  27,H  29)    -57.8282         0.011083   
    182. D(H  36,C  30,C  27,H  28)     57.9077         0.011083   
    183. D(H  36,C  30,C  27,C  24)   -179.9159         0.011083   
    184. D(H  32,C  30,C  27,H  29)     62.3152         0.011083   
    185. D(H  32,C  30,C  27,H  28)    178.0511         0.011083   
    186. D(H  32,C  30,C  27,C  24)    -59.7724         0.011083   
    187. D(H  31,C  30,C  27,H  29)   -177.9853         0.011083   
    188. D(H  31,C  30,C  27,H  28)    -62.2494         0.011083   
    189. D(H  31,C  30,C  27,C  24)     59.9271         0.011083   
    -----------------------------------------------------------------

Number of atoms                         .... 37
Number of degrees of freedom            .... 189

         *************************************************************
         *                GEOMETRY OPTIMIZATION CYCLE   1            *
         *************************************************************
---------------------------------
CARTESIAN COORDINATES (ANGSTROEM)
---------------------------------
  C     -2.631597    0.129889    0.152946
  C      1.575864   -0.218018   -0.504992
  C      0.963822    1.083546   -0.471921
  C     -0.443340    1.138551   -0.248119
  C     -1.220279   -0.005180   -0.065902
  C     -0.611010   -1.294596   -0.103795
  C      0.773999   -1.347005   -0.323995
  H     -0.932113    2.114973   -0.219804
  H      1.262338   -2.323049   -0.360688
  C      1.682287    2.282286   -0.654363
  H      2.755459    2.297223   -0.838416
  H      1.162943    3.241730   -0.622224
  C      3.065834   -0.388546   -0.698656
  H      3.262023   -1.404533   -1.082470
  H      3.432977    0.306369   -1.474054
  C      3.887515   -0.182955    0.591465
  H      3.688811    0.825725    0.993912
  H      3.528649   -0.892624    1.358202
  C      5.390342   -0.369448    0.371431
  H      5.781137    0.351469   -0.367554
  H      5.618742   -1.381978   -0.004350
  C     -1.464202   -2.531527    0.084086
  H     -2.003034   -2.436934    1.045488
  H     -2.265137   -2.516675   -0.678829
  C     -0.750622   -3.885261    0.036886
  H     -0.229468   -4.002281   -0.931186
  H      0.033199   -3.924469    0.815700
  C     -1.711359   -5.064693    0.232430
  H     -2.238010   -4.948281    1.197733
  H     -2.495639   -5.026358   -0.546048
  C     -1.012747   -6.426102    0.189580
  H     -0.246895   -6.508811    0.980041
  H     -0.505961   -6.586065   -0.777902
  C     -3.826626    0.249482    0.342032
  H     -4.879280    0.361416    0.513224
  H      5.954180   -0.226136    1.307646
  H     -1.728336   -7.252292    0.331363

----------------------------
CARTESIAN COORDINATES (A.U.)
----------------------------
  NO LB      ZA    FRAG     MASS         X           Y           Z
   0 C     6.0000    0    12.011   -4.972997    0.245455    0.289025
   1 C     6.0000    0    12.011    2.977951   -0.411995   -0.954296
   2 C     6.0000    0    12.011    1.821360    2.047605   -0.891801
   3 C     6.0000    0    12.011   -0.837792    2.151550   -0.468878
   4 C     6.0000    0    12.011   -2.305994   -0.009789   -0.124537
   5 C     6.0000    0    12.011   -1.154641   -2.446432   -0.196145
   6 C     6.0000    0    12.011    1.462646   -2.545470   -0.612261
   7 H     1.0000    0     1.008   -1.761437    3.996720   -0.415368
   8 H     1.0000    0     1.008    2.385473   -4.389926   -0.681601
   9 C     6.0000    0    12.011    3.179061    4.312895   -1.236567
  10 H     1.0000    0     1.008    5.207062    4.341122   -1.584377
  11 H     1.0000    0     1.008    2.197643    6.125981   -1.175832
  12 C     6.0000    0    12.011    5.793587   -0.734246   -1.320269
  13 H     1.0000    0     1.008    6.164330   -2.654183   -2.045573
  14 H     1.0000    0     1.008    6.487387    0.578953   -2.785559
  15 C     6.0000    0    12.011    7.346338   -0.345736    1.117707
  16 H     1.0000    0     1.008    6.970843    1.560395    1.878222
  17 H     1.0000    0     1.008    6.668180   -1.686814    2.566630
  18 C     6.0000    0    12.011   10.186270   -0.698156    0.701903
  19 H     1.0000    0     1.008   10.924767    0.664181   -0.694576
  20 H     1.0000    0     1.008   10.617884   -2.611559   -0.008220
  21 C     6.0000    0    12.011   -2.766941   -4.783893    0.158899
  22 H     1.0000    0     1.008   -3.785186   -4.605138    1.975686
  23 H     1.0000    0     1.008   -4.280488   -4.755826   -1.282801
  24 C     6.0000    0    12.011   -1.418470   -7.342079    0.069704
  25 H     1.0000    0     1.008   -0.433631   -7.563214   -1.759686
  26 H     1.0000    0     1.008    0.062738   -7.416172    1.541450
  27 C     6.0000    0    12.011   -3.234000   -9.570882    0.439229
  28 H     1.0000    0     1.008   -4.229225   -9.350895    2.263388
  29 H     1.0000    0     1.008   -4.716075   -9.498440   -1.031882
  30 C     6.0000    0    12.011   -1.913814  -12.143574    0.358254
  31 H     1.0000    0     1.008   -0.466565  -12.299870    1.852010
  32 H     1.0000    0     1.008   -0.956128  -12.445860   -1.470022
  33 C     6.0000    0    12.011   -7.231274    0.471453    0.646348
  34 H     1.0000    0     1.008   -9.220504    0.682977    0.969853
  35 H     1.0000    0     1.008   11.251769   -0.427335    2.471093
  36 H     1.0000    0     1.008   -3.266081  -13.704845    0.626186

--------------------------------
INTERNAL COORDINATES (ANGSTROEM)
--------------------------------
 C      0   0   0     0.000000000000     0.00000000     0.00000000
 C      1   0   0     4.272779435977     0.00000000     0.00000000
 C      2   1   0     1.438665364702    60.25611533     0.00000000
 C      3   2   1     1.425909955027   117.27985933     0.03056544
 C      4   3   2     1.394617996884   122.59142877     0.00000000
 C      5   4   3     1.426618075074   119.98942380   359.80738789
 C      2   1   3     1.396552108681    58.69928977   180.20089569
 H      4   3   2     1.092290782554   118.69476616   180.07450551
 H      7   2   1     1.092009065491   117.48005890   179.77496584
 C      3   2   1     1.409415733623   123.34163715   180.34056982
 H     10   3   2     1.088942817265   122.40656763     0.31108613
 H     10   3   2     1.091459767040   120.08473860   179.78721641
 C      2   1   3     1.512150120827   177.66932669   143.65206630
 H     13   2   7     1.103644831562   108.87542942    23.48041639
 H     13   2   7     1.104057719813   110.28123973   139.41768004
 C     13   2   7     1.543320706672   113.73569286   262.26377449
 H     16  13   2     1.104030754152   109.30558255   302.18129664
 H     16  13   2     1.104671644864   108.76417815    57.47544640
 C     16  13   2     1.530256370807   112.73280384   179.63630008
 H     19  16  13     1.103875839750   111.36717896    60.34862434
 H     19  16  13     1.103899331665   111.34143478   300.59408759
 C      6   5   4     1.514343105447   119.62648733   180.48504428
 H     22   6   5     1.106156347871   108.20573503   304.09262205
 H     22   6   5     1.106235176143   108.14286371    56.41421033
 C     22   6   5     1.531019144681   117.11695442   180.17068255
 H     25  22   6     1.105648136158   109.89308124   301.94491832
 H     25  22   6     1.105651246714   109.88026936    58.44334784
 C     25  22   6     1.533725208941   112.58561711   180.24750891
 H     28  25  22     1.105767807906   109.18900891   302.47583204
 H     28  25  22     1.105709478380   109.14051315    57.74857142
 C     28  25  22     1.530794590614   113.23248136   180.07138713
 H     31  28  25     1.103719938677   111.30088794    59.92707409
 H     31  28  25     1.103830607285   111.28105466   300.22757938
 C      1   2   3     1.215792146495   179.01985546   351.11928114
 H     34   1   5     1.072342109159   179.57594182     0.77152932
 H     19  16  13     1.102247628085   111.37006533   180.48184891
 H     31  28  25     1.102161137344   111.51578224   180.08412230

---------------------------
INTERNAL COORDINATES (A.U.)
---------------------------
 C      0   0   0     0.000000000000     0.00000000     0.00000000
 C      1   0   0     8.074382964647     0.00000000     0.00000000
 C      2   1   0     2.718683537644    60.25611533     0.00000000
 C      3   2   1     2.694579306633   117.27985933     0.03056544
 C      4   3   2     2.635446075549   122.59142877     0.00000000
 C      5   4   3     2.695917459592   119.98942380   359.80738789
 C      2   1   3     2.639101017158    58.69928977   180.20089569
 H      4   3   2     2.064130437634   118.69476616   180.07450551
 H      7   2   1     2.063598069537   117.48005890   179.77496584
 C      3   2   1     2.663409745388   123.34163715   180.34056982
 H     10   3   2     2.057803700132   122.40656763     0.31108613
 H     10   3   2     2.062560045900   120.08473860   179.78721641
 C      2   1   3     2.857549601739   177.66932669   143.65206630
 H     13   2   7     2.085586480770   108.87542942    23.48041639
 H     13   2   7     2.086366726488   110.28123973   139.41768004
 C     13   2   7     2.916453472420   113.73569286   262.26377449
 H     16  13   2     2.086315768774   109.30558255   302.18129664
 H     16  13   2     2.087526876701   108.76417815    57.47544640
 C     16  13   2     2.891765455514   112.73280384   179.63630008
 H     19  16  13     2.086023022980   111.36717896    60.34862434
 H     19  16  13     2.086067416266   111.34143478   300.59408759
 C      6   5   4     2.861693742086   119.62648733   180.48504428
 H     22   6   5     2.090332558774   108.20573503   304.09262205
 H     22   6   5     2.090481522620   108.14286371    56.41421033
 C     22   6   5     2.893206889237   117.11695442   180.17068255
 H     25  22   6     2.089372177819   109.89308124   301.94491832
 H     25  22   6     2.089378055919   109.88026936    58.44334784
 C     25  22   6     2.898320609589   112.58561711   180.24750891
 H     28  25  22     2.089598324648   109.18900891   302.47583204
 H     28  25  22     2.089488097819   109.14051315    57.74857142
 C     28  25  22     2.892782543549   113.23248136   180.07138713
 H     31  28  25     2.085728412647   111.30088794    59.92707409
 H     31  28  25     2.085937546008   111.28105466   300.22757938
 C      1   2   3     2.297514192648   179.01985546   351.11928114
 H     34   1   5     2.026432908181   179.57594182     0.77152932
 H     19  16  13     2.082946148845   111.37006533   180.48184891
 H     31  28  25     2.082782705032   111.51578224   180.08412230

---------------------
BASIS SET INFORMATION
---------------------
There are 2 groups of distinct atoms

 Group   1 Type C   : 10s5p1d contracted to 6s2p1d pattern {511111/41/1}
 Group   2 Type H   : 6s1p contracted to 4s1p pattern {3111/1}

Atom   0C    basis set group =>   1
Atom   1C    basis set group =>   1
Atom   2C    basis set group =>   1
Atom   3C    basis set group =>   1
Atom   4C    basis set group =>   1
Atom   5C    basis set group =>   1
Atom   6C    basis set group =>   1
Atom   7H    basis set group =>   2
Atom   8H    basis set group =>   2
Atom   9C    basis set group =>   1
Atom  10H    basis set group =>   2
Atom  11H    basis set group =>   2
Atom  12C    basis set group =>   1
Atom  13H    basis set group =>   2
Atom  14H    basis set group =>   2
Atom  15C    basis set group =>   1
Atom  16H    basis set group =>   2
Atom  17H    basis set group =>   2
Atom  18C    basis set group =>   1
Atom  19H    basis set group =>   2
Atom  20H    basis set group =>   2
Atom  21C    basis set group =>   1
Atom  22H    basis set group =>   2
Atom  23H    basis set group =>   2
Atom  24C    basis set group =>   1
Atom  25H    basis set group =>   2
Atom  26H    basis set group =>   2
Atom  27C    basis set group =>   1
Atom  28H    basis set group =>   2
Atom  29H    basis set group =>   2
Atom  30C    basis set group =>   1
Atom  31H    basis set group =>   2
Atom  32H    basis set group =>   2
Atom  33C    basis set group =>   1
Atom  34H    basis set group =>   2
Atom  35H    basis set group =>   2
Atom  36H    basis set group =>   2
---------------------------------
AUXILIARY/J BASIS SET INFORMATION
---------------------------------
There are 2 groups of distinct atoms

 Group   1 Type C   : 12s5p4d2f1g contracted to 6s4p3d1f1g pattern {711111/2111/211/2/1}
 Group   2 Type H   : 5s2p1d contracted to 3s1p1d pattern {311/2/1}

Atom   0C    basis set group =>   1
Atom   1C    basis set group =>   1
Atom   2C    basis set group =>   1
Atom   3C    basis set group =>   1
Atom   4C    basis set group =>   1
Atom   5C    basis set group =>   1
Atom   6C    basis set group =>   1
Atom   7H    basis set group =>   2
Atom   8H    basis set group =>   2
Atom   9C    basis set group =>   1
Atom  10H    basis set group =>   2
Atom  11H    basis set group =>   2
Atom  12C    basis set group =>   1
Atom  13H    basis set group =>   2
Atom  14H    basis set group =>   2
Atom  15C    basis set group =>   1
Atom  16H    basis set group =>   2
Atom  17H    basis set group =>   2
Atom  18C    basis set group =>   1
Atom  19H    basis set group =>   2
Atom  20H    basis set group =>   2
Atom  21C    basis set group =>   1
Atom  22H    basis set group =>   2
Atom  23H    basis set group =>   2
Atom  24C    basis set group =>   1
Atom  25H    basis set group =>   2
Atom  26H    basis set group =>   2
Atom  27C    basis set group =>   1
Atom  28H    basis set group =>   2
Atom  29H    basis set group =>   2
Atom  30C    basis set group =>   1
Atom  31H    basis set group =>   2
Atom  32H    basis set group =>   2
Atom  33C    basis set group =>   1
Atom  34H    basis set group =>   2
Atom  35H    basis set group =>   2
Atom  36H    basis set group =>   2


           ************************************************************
           *        Program running with 16 parallel MPI-processes    *
           *              working on a common directory               *
           ************************************************************
------------------------------------------------------------------------------
                           ORCA GTO INTEGRAL CALCULATION
                           -- RI-GTO INTEGRALS CHOSEN --
------------------------------------------------------------------------------
------------------------------------------------------------------------------
                   ___                                                        
                  /   \      - P O W E R E D   B Y -                         
                 /     \                                                     
                 |  |  |   _    _      __       _____    __    __             
                 |  |  |  | |  | |    /  \     |  _  \  |  |  /  |          
                  \  \/   | |  | |   /    \    | | | |  |  | /  /          
                 / \  \   | |__| |  /  /\  \   | |_| |  |  |/  /          
                |  |  |   |  __  | /  /__\  \  |    /   |      \           
                |  |  |   | |  | | |   __   |  |    \   |  |\   \          
                \     /   | |  | | |  |  |  |  | |\  \  |  | \   \       
                 \___/    |_|  |_| |__|  |__|  |_| \__\ |__|  \__/        
                                                                              
                      - O R C A' S   B I G   F R I E N D -                    
                                      &                                       
                       - I N T E G R A L  F E E D E R -                       
                                                                              
 v1 FN, 2020, v2 2021                                                         
------------------------------------------------------------------------------


Reading SHARK input file opt_EPRII.SHARKINP.tmp ... ok
----------------------
SHARK INTEGRAL PACKAGE
----------------------

Number of atoms                             ...     37
Number of basis functions                   ...    419
Number of shells                            ...    249
Maximum angular momentum                    ...      2
Integral batch strategy                     ... SHARK/LIBINT Hybrid
RI-J (if used) integral strategy            ... SPLIT-RIJ (Revised 2003 algorithm where possible)
Printlevel                                  ...      1
Contraction scheme used                     ... SEGMENTED contraction
Coulomb Range Separation                    ... NOT USED
Exchange Range Separation                   ... NOT USED
Finite Nucleus Model                        ... NOT USED
Auxiliary Coulomb fitting basis             ... AVAILABLE
   # of basis functions in Aux-J            ...   1015
   # of shells in Aux-J                     ...    345
   Maximum angular momentum in Aux-J        ...      4
Auxiliary J/K fitting basis                 ... NOT available
Auxiliary Correlation fitting basis         ... NOT available
Auxiliary 'external' fitting basis          ... NOT available
Integral threshold                          ...     2.500000e-11
Primitive cut-off                           ...     2.500000e-12
Primitive pair pre-selection threshold      ...     2.500000e-12

Calculating pre-screening integrals         ... done (  0.0 sec) Dimension = 249
Organizing shell pair data                  ... done (  0.1 sec)
Shell pair information
Total number of shell pairs                 ...     31125
Shell pairs after pre-screening             ...     19422
Total number of primitive shell pairs       ...     81725
Primitive shell pairs kept                  ...     37020
          la=0 lb=0:   8990 shell pairs
          la=1 lb=0:   6690 shell pairs
          la=1 lb=1:   1153 shell pairs
          la=2 lb=0:   1831 shell pairs
          la=2 lb=1:    653 shell pairs
          la=2 lb=2:    105 shell pairs

Calculating one electron integrals          ... done (  0.0 sec)
Calculating RI/J V-Matrix + Cholesky decomp.... done (  0.3 sec)
Calculating Nuclear repulsion               ... done (  0.0 sec) ENN=   1004.377141573651 Eh

SHARK setup successfully completed in   1.0 seconds

Maximum memory used throughout the entire GTOINT-calculation: 27.3 MB


           ************************************************************
           *        Program running with 16 parallel MPI-processes    *
           *              working on a common directory               *
           ************************************************************
-------------------------------------------------------------------------------
                                 ORCA SCF
-------------------------------------------------------------------------------

------------
SCF SETTINGS
------------
Hamiltonian:
 Density Functional     Method          .... DFT(GTOs)
 Exchange Functional    Exchange        .... B88
   X-Alpha parameter    XAlpha          ....  0.666667
   Becke's b parameter  XBeta           ....  0.004200
 Correlation Functional Correlation     .... LYP
 LDA part of GGA corr.  LDAOpt          .... VWN-5
 Gradients option       PostSCFGGA      .... off
 Hybrid DFT is turned on
   Fraction HF Exchange ScalHFX         ....  0.200000
   Scaling of DF-GGA-X  ScalDFX         ....  0.720000
   Scaling of DF-GGA-C  ScalDFC         ....  0.810000
   Scaling of DF-LDA-C  ScalLDAC        ....  1.000000
   Perturbative correction              ....  0.000000
   Density functional embedding theory  .... OFF
   NL short-range parameter             ....  4.800000
 RI-approximation to the Coulomb term is turned on
   Number of AuxJ basis functions       .... 1015
   RIJ-COSX (HFX calculated with COS-X)).... on


General Settings:
 Integral files         IntName         .... opt_EPRII
 Hartree-Fock type      HFTyp           .... UHF
 Total Charge           Charge          ....    0
 Multiplicity           Mult            ....    2
 Number of Electrons    NEL             ....  117
 Basis Dimension        Dim             ....  419
 Nuclear Repulsion      ENuc            ....   1004.3771415737 Eh

Convergence Acceleration:
 DIIS                   CNVDIIS         .... on
   Start iteration      DIISMaxIt       ....    12
   Startup error        DIISStart       ....  0.200000
   # of expansion vecs  DIISMaxEq       ....     5
   Bias factor          DIISBfac        ....   1.050
   Max. coefficient     DIISMaxC        ....  10.000
 Trust-Rad. Augm. Hess. CNVTRAH         .... auto
   Auto Start mean grad. ratio tolernc. ....  1.125000
   Auto Start start iteration           ....    20
   Auto Start num. interpolation iter.  ....    10
   Max. Number of Micro iterations      ....    16
   Max. Number of Macro iterations      .... Maxiter - #DIIS iter
   Number of Davidson start vectors     ....     2
   Converg. threshold I  (grad. norm)   ....   1.000e-05
   Converg. threshold II (energy diff.) ....   1.000e-08
   Grad. Scal. Fac. for Micro threshold ....   0.100
   Minimum threshold for Micro iter.    ....   0.010
   NR start threshold (gradient norm)   ....   0.001
   Initial trust radius                 ....   0.400
   Minimum AH scaling param. (alpha)    ....   1.000
   Maximum AH scaling param. (alpha)    .... 1000.000
   Orbital update algorithm             .... Taylor
   White noise on init. David. guess    .... on
   Maximum white noise                  ....   0.010
   Quad. conv. algorithm                .... NR
 SOSCF                  CNVSOSCF        .... off
 Level Shifting         CNVShift        .... on
   Level shift para.    LevelShift      ....    0.2500
   Turn off err/grad.   ShiftErr        ....    0.0010
 Zerner damping         CNVZerner       .... off
 Static damping         CNVDamp         .... on
   Fraction old density DampFac         ....    0.7000
   Max. Damping (<1)    DampMax         ....    0.9800
   Min. Damping (>=0)   DampMin         ....    0.0000
   Turn off err/grad.   DampErr         ....    0.1000
 Fernandez-Rico         CNVRico         .... off

SCF Procedure:
 Maximum # iterations   MaxIter         ....   125
 SCF integral mode      SCFMode         .... Direct
   Integral package                     .... SHARK and LIBINT hybrid scheme
 Reset frequency        DirectResetFreq ....    20
 Integral Threshold     Thresh          ....  2.500e-11 Eh
 Primitive CutOff       TCut            ....  2.500e-12 Eh

Convergence Tolerance:
 Convergence Check Mode ConvCheckMode   .... Total+1el-Energy
 Convergence forced     ConvForced      .... 0
 Energy Change          TolE            ....  1.000e-08 Eh
 1-El. energy change                    ....  1.000e-05 Eh
 DIIS Error             TolErr          ....  5.000e-07


Diagonalization of the overlap matrix:
Smallest eigenvalue                        ... 1.429e-04
Time for diagonalization                   ...    0.055 sec
Threshold for overlap eigenvalues          ... 1.000e-08
Number of eigenvalues below threshold      ... 0
Time for construction of square roots      ...    0.037 sec
Total time needed                          ...    0.093 sec

Time for model grid setup =    0.234 sec

------------------------------
INITIAL GUESS: MODEL POTENTIAL
------------------------------
Loading Hartree-Fock densities                     ... done
Calculating cut-offs                               ... done
Initializing the effective Hamiltonian             ... done
Setting up the integral package (SHARK)            ... done
Starting the Coulomb interaction                   ... done (   0.2 sec)
Reading the grid                                   ... done
Mapping shells                                     ... done
Starting the XC term evaluation                    ... done (   0.1 sec)
  promolecular density results
     # of electrons  =    116.995810951
     EX              =    -88.401887123
     EC              =     -3.814424237
     EX+EC           =    -92.216311360
Transforming the Hamiltonian                       ... done (   0.0 sec)
Diagonalizing the Hamiltonian                      ... done (   0.0 sec)
Back transforming the eigenvectors                 ... done (   0.0 sec)
Now organizing SCF variables                       ... done
                      ------------------
                      INITIAL GUESS DONE (   0.9 sec)
                      ------------------
-------------------
DFT GRID GENERATION
-------------------

General Integration Accuracy     IntAcc      ... 4.388
Radial Grid Type                 RadialGrid  ... OptM3 with GC (2021)
Angular Grid (max. ang.)         AngularGrid ... 4 (Lebedev-302)
Angular grid pruning method      GridPruning ... 4 (adaptive)
Weight generation scheme         WeightScheme... Becke
Basis function cutoff            BFCut       ... 1.0000e-11
Integration weight cutoff        WCut        ... 1.0000e-14
Angular grids for H and He will be reduced by one unit
Partially contracted basis set               ... off
Rotationally invariant grid construction     ... off

Total number of grid points                  ...   162627
Total number of batches                      ...     2559
Average number of points per batch           ...       63
Average number of grid points per atom       ...     4395
Time for grid setup =    0.868 sec

--------------------
COSX GRID GENERATION
--------------------

GRIDX 1
-------
General Integration Accuracy     IntAcc      ... 3.816
Radial Grid Type                 RadialGrid  ... OptM3 with GC (2021)
Angular Grid (max. ang.)         AngularGrid ... 1 (Lebedev-50)
Angular grid pruning method      GridPruning ... 4 (adaptive)
Weight generation scheme         WeightScheme... Becke
Basis function cutoff            BFCut       ... 1.0000e-11
Integration weight cutoff        WCut        ... 1.0000e-14
Angular grids for H and He will be reduced by one unit
Partially contracted basis set               ... on
Rotationally invariant grid construction     ... off

Total number of grid points                  ...    20774
Total number of batches                      ...      346
Average number of points per batch           ...       60
Average number of grid points per atom       ...      561
UseSFitting                                  ... on

GRIDX 2
-------
General Integration Accuracy     IntAcc      ... 4.020
Radial Grid Type                 RadialGrid  ... OptM3 with GC (2021)
Angular Grid (max. ang.)         AngularGrid ... 2 (Lebedev-110)
Angular grid pruning method      GridPruning ... 4 (adaptive)
Weight generation scheme         WeightScheme... Becke
Basis function cutoff            BFCut       ... 1.0000e-11
Integration weight cutoff        WCut        ... 1.0000e-14
Angular grids for H and He will be reduced by one unit
Partially contracted basis set               ... on
Rotationally invariant grid construction     ... off

Total number of grid points                  ...    43752
Total number of batches                      ...      701
Average number of points per batch           ...       62
Average number of grid points per atom       ...     1182
UseSFitting                                  ... on

GRIDX 3
-------
General Integration Accuracy     IntAcc      ... 4.338
Radial Grid Type                 RadialGrid  ... OptM3 with GC (2021)
Angular Grid (max. ang.)         AngularGrid ... 3 (Lebedev-194)
Angular grid pruning method      GridPruning ... 4 (adaptive)
Weight generation scheme         WeightScheme... Becke
Basis function cutoff            BFCut       ... 1.0000e-11
Integration weight cutoff        WCut        ... 1.0000e-14
Angular grids for H and He will be reduced by one unit
Partially contracted basis set               ... on
Rotationally invariant grid construction     ... off

Total number of grid points                  ...    95333
Total number of batches                      ...     1508
Average number of points per batch           ...       63
Average number of grid points per atom       ...     2577
UseSFitting                                  ... on

Time for X-Grid setup             =    1.717 sec

--------------
SCF ITERATIONS
--------------
ITER       Energy         Delta-E        Max-DP      RMS-DP      [F,P]     Damp
               ***  Starting incremental Fock matrix formation  ***
  0   -621.5091285334   0.000000000000 0.05002584  0.00091610  0.0796028 0.7000
  1   -621.6922285775  -0.183100044087 0.03268350  0.00067679  0.0426110 0.7000
                               ***Turning on DIIS***
  2   -621.7735377184  -0.081309140902 0.08824343  0.00137880  0.0165311 0.0000
  3   -621.8862530626  -0.112715344169 0.02464641  0.00039564  0.0233776 0.0000
  4   -621.9186389446  -0.032385882052 0.02279150  0.00019342  0.0062736 0.0000
  5   -621.9202489203  -0.001609975625 0.01327689  0.00009613  0.0033890 0.0000
  6   -621.9205263411  -0.000277420841 0.00517378  0.00004187  0.0021665 0.0000
  7   -621.9206361891  -0.000109848034 0.00270722  0.00002261  0.0015495 0.0000
  8   -621.9206930242  -0.000056835041 0.00353466  0.00002866  0.0009179 0.0000
               *** Restarting incremental Fock matrix formation ***
                                   *** Resetting DIIS ***
  9   -621.9207927003  -0.000099676091 0.00172762  0.00001718  0.0005463 0.0000
 10   -621.9207921394   0.000000560831 0.00074974  0.00000559  0.0009664 0.0000
 11   -621.9207986401  -0.000006500651 0.00047105  0.00000284  0.0002731 0.0000
 12   -621.9207995776  -0.000000937474 0.00046252  0.00000300  0.0002372 0.0000
 13   -621.9208003246  -0.000000747043 0.00028577  0.00000188  0.0001285 0.0000
 14   -621.9208005968  -0.000000272196 0.00016857  0.00000109  0.0000432 0.0000
 15   -621.9208006746  -0.000000077771 0.00003672  0.00000031  0.0000124 0.0000
 16   -621.9208006804  -0.000000005831 0.00002329  0.00000019  0.0000090 0.0000
 17   -621.9208006822  -0.000000001771 0.00001857  0.00000016  0.0000083 0.0000
 18   -621.9208006856  -0.000000003411 0.00001182  0.00000012  0.0000067 0.0000
 19   -621.9208006803   0.000000005264 0.00000751  0.00000007  0.0000033 0.0000
 20   -621.9208006940  -0.000000013644 0.00001024  0.00000007  0.0000014 0.0000
                            ***DIIS convergence achieved***

               *****************************************************
               *                     SUCCESS                       *
               *           SCF CONVERGED AFTER  21 CYCLES          *
               *****************************************************

Old exchange energy                            =    -18.047654459 Eh
New exchange energy                            =    -18.047664310 Eh
Exchange energy change after final integration =     -0.000009852 Eh
Total energy after final integration           =   -621.920810534 Eh
Final COS-X integration done in                =     5.220 sec

----------------
TOTAL SCF ENERGY
----------------

Total Energy       :         -621.92081053 Eh          -16923.32562 eV

Components:
Nuclear Repulsion  :         1004.37714157 Eh           27330.49148 eV
Electronic Energy  :        -1626.29795211 Eh          -44253.81710 eV
One Electron Energy:        -2830.86542328 Eh          -77031.76439 eV
Two Electron Energy:         1204.56747118 Eh           32777.94729 eV
Max COSX asymmetry :            0.00000172 Eh               0.00005 eV

Virial components:
Potential Energy   :        -1238.88776039 Eh          -33711.84984 eV
Kinetic Energy     :          616.96694986 Eh           16788.52422 eV
Virial Ratio       :            2.00802938


DFT components:
N(Alpha)           :       59.000031747561 electrons
N(Beta)            :       58.000026744423 electrons
N(Total)           :      117.000058491984 electrons
E(X)               :      -71.557566081074 Eh       
E(C)               :       -4.509916483552 Eh       
E(XC)              :      -76.067482564626 Eh       
DFET-embed. en.    :        0.000000000000 Eh       

---------------
SCF CONVERGENCE
---------------

  Last Energy change         ...    1.1993e-08  Tolerance :   1.0000e-08
  Last MAX-Density change    ...    0.0000e+00  Tolerance :   1.0000e-07
  Last RMS-Density change    ...    0.0000e+00  Tolerance :   5.0000e-09
  Last DIIS Error            ...    8.0412e-07  Tolerance :   5.0000e-07

             **** THE GBW FILE WAS UPDATED (opt_EPRII.gbw) ****
             **** DENSITY opt_EPRII.scfp WAS UPDATED ****
             **** ENERGY FILE WAS UPDATED (opt_EPRII.en.tmp) ****
----------------------
UHF SPIN CONTAMINATION
----------------------

Warning: in a DFT calculation there is little theoretical justification to 
         calculate <S**2> as in Hartree-Fock theory. We will do it anyways
         but you should keep in mind that the values have only limited relevance

Expectation value of <S**2>     :     0.785306
Ideal value S*(S+1) for S=0.5   :     0.750000
Deviation                       :     0.035306

             **** THE GBW FILE WAS UPDATED (opt_EPRII.gbw) ****
             **** DENSITY opt_EPRII.scfp WAS UPDATED ****
----------------
ORBITAL ENERGIES
----------------
                 SPIN UP ORBITALS
  NO   OCC          E(Eh)            E(eV) 
   0   1.0000     -10.216867      -278.0151 
   1   1.0000     -10.210527      -277.8426 
   2   1.0000     -10.206321      -277.7281 
   3   1.0000     -10.205772      -277.7132 
   4   1.0000     -10.202675      -277.6289 
   5   1.0000     -10.200431      -277.5678 
   6   1.0000     -10.193109      -277.3686 
   7   1.0000     -10.192833      -277.3611 
   8   1.0000     -10.189700      -277.2758 
   9   1.0000     -10.187839      -277.2252 
  10   1.0000     -10.186694      -277.1940 
  11   1.0000     -10.185515      -277.1620 
  12   1.0000     -10.182552      -277.0813 
  13   1.0000     -10.182262      -277.0734 
  14   1.0000     -10.175951      -276.9017 
  15   1.0000     -10.173582      -276.8373 
  16   1.0000      -0.868840       -23.6423 
  17   1.0000      -0.813599       -22.1392 
  18   1.0000      -0.795900       -21.6575 
  19   1.0000      -0.775764       -21.1096 
  20   1.0000      -0.763962       -20.7885 
  21   1.0000      -0.731990       -19.9185 
  22   1.0000      -0.723612       -19.6905 
  23   1.0000      -0.684009       -18.6128 
  24   1.0000      -0.669001       -18.2045 
  25   1.0000      -0.623839       -16.9755 
  26   1.0000      -0.611243       -16.6328 
  27   1.0000      -0.591062       -16.0836 
  28   1.0000      -0.575962       -15.6727 
  29   1.0000      -0.564815       -15.3694 
  30   1.0000      -0.526263       -14.3204 
  31   1.0000      -0.494021       -13.4430 
  32   1.0000      -0.489748       -13.3267 
  33   1.0000      -0.470028       -12.7901 
  34   1.0000      -0.457533       -12.4501 
  35   1.0000      -0.447972       -12.1899 
  36   1.0000      -0.428496       -11.6600 
  37   1.0000      -0.421650       -11.4737 
  38   1.0000      -0.420712       -11.4482 
  39   1.0000      -0.417976       -11.3737 
  40   1.0000      -0.411163       -11.1883 
  41   1.0000      -0.400319       -10.8932 
  42   1.0000      -0.387248       -10.5376 
  43   1.0000      -0.380177       -10.3452 
  44   1.0000      -0.374480       -10.1901 
  45   1.0000      -0.366592        -9.9755 
  46   1.0000      -0.351989        -9.5781 
  47   1.0000      -0.350870        -9.5477 
  48   1.0000      -0.339399        -9.2355 
  49   1.0000      -0.334580        -9.1044 
  50   1.0000      -0.328212        -8.9311 
  51   1.0000      -0.322838        -8.7849 
  52   1.0000      -0.321873        -8.7586 
  53   1.0000      -0.321027        -8.7356 
  54   1.0000      -0.306701        -8.3457 
  55   1.0000      -0.276223        -7.5164 
  56   1.0000      -0.273925        -7.4539 
  57   1.0000      -0.234277        -6.3750 
  58   1.0000      -0.178373        -4.8538 
  59   0.0000      -0.033294        -0.9060 
  60   0.0000       0.006980         0.1899 
  61   0.0000       0.017174         0.4673 
  62   0.0000       0.023523         0.6401 
  63   0.0000       0.025370         0.6904 
  64   0.0000       0.037024         1.0075 
  65   0.0000       0.039167         1.0658 
  66   0.0000       0.043288         1.1779 
  67   0.0000       0.046229         1.2580 
  68   0.0000       0.049900         1.3579 
  69   0.0000       0.061375         1.6701 
  70   0.0000       0.073822         2.0088 
  71   0.0000       0.076389         2.0787 
  72   0.0000       0.086674         2.3585 
  73   0.0000       0.095762         2.6058 
  74   0.0000       0.111989         3.0474 
  75   0.0000       0.120996         3.2925 
  76   0.0000       0.130808         3.5595 
  77   0.0000       0.142639         3.8814 
  78   0.0000       0.151607         4.1254 
  79   0.0000       0.157640         4.2896 
  80   0.0000       0.168767         4.5924 
  81   0.0000       0.175482         4.7751 
  82   0.0000       0.182084         4.9548 
  83   0.0000       0.184689         5.0256 
  84   0.0000       0.192112         5.2276 
  85   0.0000       0.195242         5.3128 
  86   0.0000       0.197183         5.3656 
  87   0.0000       0.199257         5.4221 
  88   0.0000       0.201423         5.4810 
  89   0.0000       0.213581         5.8118 
  90   0.0000       0.214445         5.8353 
  91   0.0000       0.217277         5.9124 
  92   0.0000       0.218480         5.9451 
  93   0.0000       0.225246         6.1293 
  94   0.0000       0.228362         6.2141 
  95   0.0000       0.236169         6.4265 
  96   0.0000       0.239202         6.5090 
  97   0.0000       0.245620         6.6837 
  98   0.0000       0.252220         6.8632 
  99   0.0000       0.260395         7.0857 
 100   0.0000       0.266626         7.2553 
 101   0.0000       0.268179         7.2975 
 102   0.0000       0.279414         7.6033 
 103   0.0000       0.282571         7.6892 
 104   0.0000       0.285459         7.7677 
 105   0.0000       0.287625         7.8267 
 106   0.0000       0.291225         7.9246 
 107   0.0000       0.293905         7.9976 
 108   0.0000       0.298824         8.1314 
 109   0.0000       0.303734         8.2650 
 110   0.0000       0.308542         8.3959 
 111   0.0000       0.315416         8.5829 
 112   0.0000       0.322975         8.7886 
 113   0.0000       0.330816         9.0020 
 114   0.0000       0.332814         9.0563 
 115   0.0000       0.339588         9.2407 
 116   0.0000       0.346865         9.4387 
 117   0.0000       0.352822         9.6008 
 118   0.0000       0.356298         9.6953 
 119   0.0000       0.361530         9.8377 
 120   0.0000       0.364994         9.9320 
 121   0.0000       0.369907        10.0657 
 122   0.0000       0.373557        10.1650 
 123   0.0000       0.381381        10.3779 
 124   0.0000       0.399135        10.8610 
 125   0.0000       0.402706        10.9582 
 126   0.0000       0.411047        11.1851 
 127   0.0000       0.414590        11.2816 
 128   0.0000       0.424283        11.5453 
 129   0.0000       0.429775        11.6948 
 130   0.0000       0.438006        11.9187 
 131   0.0000       0.444212        12.0876 
 132   0.0000       0.446737        12.1563 
 133   0.0000       0.450693        12.2640 
 134   0.0000       0.464491        12.6395 
 135   0.0000       0.472744        12.8640 
 136   0.0000       0.476839        12.9755 
 137   0.0000       0.485278        13.2051 
 138   0.0000       0.490068        13.3354 
 139   0.0000       0.499218        13.5844 
 140   0.0000       0.500826        13.6282 
 141   0.0000       0.503946        13.7131 
 142   0.0000       0.511754        13.9255 
 143   0.0000       0.531660        14.4672 
 144   0.0000       0.540875        14.7180 
 145   0.0000       0.546804        14.8793 
 146   0.0000       0.557349        15.1662 
 147   0.0000       0.562451        15.3051 
 148   0.0000       0.573954        15.6181 
 149   0.0000       0.585037        15.9197 
 150   0.0000       0.592659        16.1271 
 151   0.0000       0.595676        16.2092 
 152   0.0000       0.604899        16.4601 
 153   0.0000       0.615093        16.7375 
 154   0.0000       0.622082        16.9277 
 155   0.0000       0.639295        17.3961 
 156   0.0000       0.661337        17.9959 
 157   0.0000       0.674466        18.3532 
 158   0.0000       0.690634        18.7931 
 159   0.0000       0.718990        19.5647 
 160   0.0000       0.765728        20.8365 
 161   0.0000       0.770501        20.9664 
 162   0.0000       0.782527        21.2937 
 163   0.0000       0.787382        21.4257 
 164   0.0000       0.804960        21.9041 
 165   0.0000       0.817921        22.2568 
 166   0.0000       0.822788        22.3892 
 167   0.0000       0.832404        22.6509 
 168   0.0000       0.844858        22.9898 
 169   0.0000       0.850465        23.1423 
 170   0.0000       0.860186        23.4068 
 171   0.0000       0.868816        23.6417 
 172   0.0000       0.872634        23.7456 
 173   0.0000       0.884045        24.0561 
 174   0.0000       0.886609        24.1259 
 175   0.0000       0.898864        24.4593 
 176   0.0000       0.901968        24.5438 
 177   0.0000       0.917200        24.9583 
 178   0.0000       0.920860        25.0579 
 179   0.0000       0.921737        25.0817 
 180   0.0000       0.926995        25.2248 
 181   0.0000       0.935201        25.4481 
 182   0.0000       0.937448        25.5093 
 183   0.0000       0.943812        25.6824 
 184   0.0000       0.946549        25.7569 
 185   0.0000       0.957110        26.0443 
 186   0.0000       0.968473        26.3535 
 187   0.0000       0.971427        26.4339 
 188   0.0000       0.976772        26.5793 
 189   0.0000       0.991301        26.9747 
 190   0.0000       0.997034        27.1307 
 191   0.0000       1.005388        27.3580 
 192   0.0000       1.013689        27.5839 
 193   0.0000       1.016039        27.6478 
 194   0.0000       1.024706        27.8837 
 195   0.0000       1.026728        27.9387 
 196   0.0000       1.051744        28.6194 
 197   0.0000       1.054870        28.7045 
 198   0.0000       1.058215        28.7955 
 199   0.0000       1.066969        29.0337 
 200   0.0000       1.070147        29.1202 
 201   0.0000       1.088969        29.6324 
 202   0.0000       1.091585        29.7035 
 203   0.0000       1.099884        29.9294 
 204   0.0000       1.106915        30.1207 
 205   0.0000       1.110521        30.2188 
 206   0.0000       1.134801        30.8795 
 207   0.0000       1.148812        31.2608 
 208   0.0000       1.167741        31.7758 
 209   0.0000       1.176324        32.0094 
 210   0.0000       1.180341        32.1187 
 211   0.0000       1.192678        32.4544 
 212   0.0000       1.202210        32.7138 
 213   0.0000       1.209428        32.9102 
 214   0.0000       1.224254        33.3136 
 215   0.0000       1.243596        33.8400 
 216   0.0000       1.248530        33.9742 
 217   0.0000       1.259558        34.2743 
 218   0.0000       1.264695        34.4141 
 219   0.0000       1.277104        34.7518 
 220   0.0000       1.288268        35.0555 
 221   0.0000       1.310715        35.6664 
 222   0.0000       1.320014        35.9194 
 223   0.0000       1.341788        36.5119 
 224   0.0000       1.346543        36.6413 
 225   0.0000       1.360143        37.0114 
 226   0.0000       1.379221        37.5305 
 227   0.0000       1.384153        37.6647 
 228   0.0000       1.395042        37.9610 
 229   0.0000       1.404654        38.2226 
 230   0.0000       1.419212        38.6187 
 231   0.0000       1.425205        38.7818 
 232   0.0000       1.427574        38.8463 
 233   0.0000       1.434171        39.0258 
 234   0.0000       1.440878        39.2083 
 235   0.0000       1.451701        39.5028 
 236   0.0000       1.458342        39.6835 
 237   0.0000       1.473301        40.0906 
 238   0.0000       1.480970        40.2992 
 239   0.0000       1.499987        40.8167 
 240   0.0000       1.500590        40.8331 
 241   0.0000       1.516720        41.2721 
 242   0.0000       1.525444        41.5094 
 243   0.0000       1.527094        41.5543 
 244   0.0000       1.544293        42.0223 
 245   0.0000       1.556990        42.3678 
 246   0.0000       1.562307        42.5125 
 247   0.0000       1.573142        42.8074 
 248   0.0000       1.581744        43.0414 
 249   0.0000       1.590718        43.2856 
 250   0.0000       1.597426        43.4682 
 251   0.0000       1.605685        43.6929 
 252   0.0000       1.607815        43.7509 
 253   0.0000       1.616413        43.9848 
 254   0.0000       1.621288        44.1175 
 255   0.0000       1.635092        44.4931 
 256   0.0000       1.638756        44.5928 
 257   0.0000       1.645506        44.7765 
 258   0.0000       1.652029        44.9540 
 259   0.0000       1.671054        45.4717 
 260   0.0000       1.675311        45.5875 
 261   0.0000       1.687509        45.9195 
 262   0.0000       1.699259        46.2392 
 263   0.0000       1.704033        46.3691 
 264   0.0000       1.715641        46.6850 
 265   0.0000       1.720930        46.8289 
 266   0.0000       1.725319        46.9483 
 267   0.0000       1.734378        47.1948 
 268   0.0000       1.748131        47.5691 
 269   0.0000       1.752812        47.6964 
 270   0.0000       1.761232        47.9255 
 271   0.0000       1.764241        48.0074 
 272   0.0000       1.774768        48.2939 
 273   0.0000       1.783410        48.5290 
 274   0.0000       1.791918        48.7606 
 275   0.0000       1.805575        49.1322 
 276   0.0000       1.815690        49.4074 
 277   0.0000       1.826831        49.7106 
 278   0.0000       1.836854        49.9833 
 279   0.0000       1.857885        50.5556 
 280   0.0000       1.865383        50.7596 
 281   0.0000       1.883972        51.2655 
 282   0.0000       1.913689        52.0741 
 283   0.0000       1.918265        52.1986 
 284   0.0000       1.929038        52.4918 
 285   0.0000       1.942719        52.8641 
 286   0.0000       1.952035        53.1176 
 287   0.0000       1.967461        53.5373 
 288   0.0000       1.975303        53.7507 
 289   0.0000       2.018642        54.9300 
 290   0.0000       2.044420        55.6315 
 291   0.0000       2.047884        55.7257 
 292   0.0000       2.056072        55.9486 
 293   0.0000       2.064229        56.1705 
 294   0.0000       2.080525        56.6140 
 295   0.0000       2.101536        57.1857 
 296   0.0000       2.106715        57.3266 
 297   0.0000       2.121189        57.7205 
 298   0.0000       2.154410        58.6245 
 299   0.0000       2.167720        58.9866 
 300   0.0000       2.190015        59.5933 
 301   0.0000       2.210729        60.1570 
 302   0.0000       2.228820        60.6493 
 303   0.0000       2.236681        60.8632 
 304   0.0000       2.237397        60.8827 
 305   0.0000       2.250668        61.2438 
 306   0.0000       2.255096        61.3643 
 307   0.0000       2.261445        61.5370 
 308   0.0000       2.272618        61.8411 
 309   0.0000       2.293318        62.4043 
 310   0.0000       2.309449        62.8433 
 311   0.0000       2.313378        62.9502 
 312   0.0000       2.324443        63.2513 
 313   0.0000       2.329157        63.3796 
 314   0.0000       2.347374        63.8753 
 315   0.0000       2.353547        64.0433 
 316   0.0000       2.387921        64.9786 
 317   0.0000       2.407331        65.5068 
 318   0.0000       2.412982        65.6606 
 319   0.0000       2.429240        66.1030 
 320   0.0000       2.441512        66.4369 
 321   0.0000       2.453664        66.7676 
 322   0.0000       2.456006        66.8313 
 323   0.0000       2.469732        67.2048 
 324   0.0000       2.476929        67.4007 
 325   0.0000       2.489296        67.7372 
 326   0.0000       2.507311        68.2274 
 327   0.0000       2.516906        68.4885 
 328   0.0000       2.527532        68.7777 
 329   0.0000       2.537436        69.0471 
 330   0.0000       2.551857        69.4396 
 331   0.0000       2.568018        69.8793 
 332   0.0000       2.580127        70.2088 
 333   0.0000       2.589262        70.4574 
 334   0.0000       2.608264        70.9745 
 335   0.0000       2.621618        71.3379 
 336   0.0000       2.626136        71.4608 
 337   0.0000       2.644615        71.9636 
 338   0.0000       2.726391        74.1889 
 339   0.0000       2.764684        75.2309 
 340   0.0000       2.797322        76.1190 
 341   0.0000       2.873156        78.1825 
 342   0.0000       2.947920        80.2170 
 343   0.0000       2.966256        80.7159 
 344   0.0000       3.261539        88.7510 
 345   0.0000       4.984686       135.6402 
 346   0.0000       5.000947       136.0827 
 347   0.0000       5.005858       136.2163 
 348   0.0000       5.009122       136.3051 
 349   0.0000       5.011027       136.3570 
 350   0.0000       5.018996       136.5738 
 351   0.0000       5.032121       136.9310 
 352   0.0000       5.043554       137.2421 
 353   0.0000       5.047771       137.3568 
 354   0.0000       5.083452       138.3278 
 355   0.0000       5.103970       138.8861 
 356   0.0000       5.221953       142.0966 
 357   0.0000       5.231418       142.3541 
 358   0.0000       5.234187       142.4295 
 359   0.0000       5.270600       143.4203 
 360   0.0000       5.280891       143.7004 
 361   0.0000       5.291546       143.9903 
 362   0.0000       5.302954       144.3007 
 363   0.0000       5.309753       144.4857 
 364   0.0000       5.322012       144.8193 
 365   0.0000       5.356359       145.7539 
 366   0.0000       5.369652       146.1157 
 367   0.0000       5.392364       146.7337 
 368   0.0000       5.413590       147.3113 
 369   0.0000       5.483034       149.2009 
 370   0.0000       5.547034       150.9425 
 371   0.0000       5.567831       151.5084 
 372   0.0000       5.606781       152.5683 
 373   0.0000       5.622933       153.0078 
 374   0.0000       5.666169       154.1843 
 375   0.0000       5.707759       155.3160 
 376   0.0000       5.739558       156.1813 
 377   0.0000       5.802727       157.9002 
 378   0.0000       5.844561       159.0386 
 379   0.0000       5.871879       159.7819 
 380   0.0000       6.059111       164.8768 
 381   0.0000       6.323716       172.0770 
 382   0.0000      29.630634       806.2905 
 383   0.0000      29.788076       810.5748 
 384   0.0000      29.835923       811.8767 
 385   0.0000      29.921133       814.1954 
 386   0.0000      29.972350       815.5891 
 387   0.0000      29.982836       815.8744 
 388   0.0000      30.048288       817.6555 
 389   0.0000      30.069024       818.2197 
 390   0.0000      30.090079       818.7927 
 391   0.0000      30.111133       819.3656 
 392   0.0000      30.148480       820.3819 
 393   0.0000      30.213350       822.1471 
 394   0.0000      30.249019       823.1177 
 395   0.0000      30.278118       823.9095 
 396   0.0000      30.353855       825.9704 
 397   0.0000      30.548598       831.2696 
 398   0.0000      36.610879       996.2327 
 399   0.0000      36.627065       996.6731 
 400   0.0000      36.628080       996.7007 
 401   0.0000      36.631167       996.7847 
 402   0.0000      36.635654       996.9068 
 403   0.0000      36.656762       997.4812 
 404   0.0000      36.669040       997.8153 
 405   0.0000      36.671867       997.8922 
 406   0.0000      36.704693       998.7855 
 407   0.0000      36.714839       999.0616 
 408   0.0000      36.818468      1001.8814 
 409   0.0000      36.842632      1002.5390 
 410   0.0000      36.848254      1002.6920 
 411   0.0000      36.873922      1003.3904 
 412   0.0000      36.876801      1003.4688 
 413   0.0000      36.882852      1003.6334 
 414   0.0000      36.910227      1004.3783 
 415   0.0000      36.930318      1004.9251 
 416   0.0000      36.931419      1004.9550 
 417   0.0000      36.962543      1005.8019 
 418   0.0000      37.009480      1007.0791 

                 SPIN DOWN ORBITALS
  NO   OCC          E(Eh)            E(eV) 
   0   1.0000     -10.218491      -278.0593 
   1   1.0000     -10.208329      -277.7828 
   2   1.0000     -10.206741      -277.7395 
   3   1.0000     -10.202639      -277.6279 
   4   1.0000     -10.202252      -277.6174 
   5   1.0000     -10.197083      -277.4767 
   6   1.0000     -10.193747      -277.3860 
   7   1.0000     -10.191332      -277.3203 
   8   1.0000     -10.188071      -277.2315 
   9   1.0000     -10.186911      -277.2000 
  10   1.0000     -10.185244      -277.1546 
  11   1.0000     -10.182908      -277.0910 
  12   1.0000     -10.182550      -277.0813 
  13   1.0000     -10.182263      -277.0735 
  14   1.0000     -10.175937      -276.9013 
  15   1.0000     -10.173584      -276.8373 
  16   1.0000      -0.865124       -23.5412 
  17   1.0000      -0.810405       -22.0522 
  18   1.0000      -0.794968       -21.6322 
  19   1.0000      -0.772632       -21.0244 
  20   1.0000      -0.762382       -20.7455 
  21   1.0000      -0.730071       -19.8662 
  22   1.0000      -0.719871       -19.5887 
  23   1.0000      -0.681852       -18.5541 
  24   1.0000      -0.661703       -18.0058 
  25   1.0000      -0.617664       -16.8075 
  26   1.0000      -0.608637       -16.5619 
  27   1.0000      -0.589389       -16.0381 
  28   1.0000      -0.575089       -15.6490 
  29   1.0000      -0.563381       -15.3304 
  30   1.0000      -0.524378       -14.2691 
  31   1.0000      -0.492417       -13.3994 
  32   1.0000      -0.487802       -13.2738 
  33   1.0000      -0.469105       -12.7650 
  34   1.0000      -0.455357       -12.3909 
  35   1.0000      -0.447367       -12.1735 
  36   1.0000      -0.427087       -11.6216 
  37   1.0000      -0.419486       -11.4148 
  38   1.0000      -0.418613       -11.3910 
  39   1.0000      -0.415796       -11.3144 
  40   1.0000      -0.409181       -11.1344 
  41   1.0000      -0.397042       -10.8041 
  42   1.0000      -0.384359       -10.4589 
  43   1.0000      -0.377831       -10.2813 
  44   1.0000      -0.371693       -10.1143 
  45   1.0000      -0.365439        -9.9441 
  46   1.0000      -0.350875        -9.5478 
  47   1.0000      -0.347653        -9.4601 
  48   1.0000      -0.337955        -9.1962 
  49   1.0000      -0.333885        -9.0855 
  50   1.0000      -0.327575        -8.9138 
  51   1.0000      -0.322072        -8.7640 
  52   1.0000      -0.321055        -8.7364 
  53   1.0000      -0.320122        -8.7110 
  54   1.0000      -0.302145        -8.2218 
  55   1.0000      -0.273832        -7.4514 
  56   1.0000      -0.258381        -7.0309 
  57   1.0000      -0.226180        -6.1547 
  58   0.0000      -0.083400        -2.2694 
  59   0.0000      -0.023000        -0.6259 
  60   0.0000       0.017257         0.4696 
  61   0.0000       0.021192         0.5767 
  62   0.0000       0.023925         0.6510 
  63   0.0000       0.025976         0.7068 
  64   0.0000       0.038032         1.0349 
  65   0.0000       0.039284         1.0690 
  66   0.0000       0.043827         1.1926 
  67   0.0000       0.046603         1.2681 
  68   0.0000       0.052141         1.4188 
  69   0.0000       0.062077         1.6892 
  70   0.0000       0.073971         2.0128 
  71   0.0000       0.077039         2.0963 
  72   0.0000       0.090377         2.4593 
  73   0.0000       0.096482         2.6254 
  74   0.0000       0.112601         3.0640 
  75   0.0000       0.121562         3.3079 
  76   0.0000       0.131935         3.5901 
  77   0.0000       0.143426         3.9028 
  78   0.0000       0.154397         4.2013 
  79   0.0000       0.159523         4.3408 
  80   0.0000       0.170288         4.6338 
  81   0.0000       0.176395         4.8000 
  82   0.0000       0.182559         4.9677 
  83   0.0000       0.185675         5.0525 
  84   0.0000       0.192798         5.2463 
  85   0.0000       0.196459         5.3459 
  86   0.0000       0.198152         5.3920 
  87   0.0000       0.199518         5.4292 
[...]
      pz      :     0.030549  p :     0.079883
      px      :     0.019998
      py      :     0.029336
 20 H s       :     0.885941  s :     0.885941
      pz      :     0.020166  p :     0.079930
      px      :     0.018064
      py      :     0.041700
 21 C s       :     2.848958  s :     2.848958
      pz      :     1.024513  p :     3.023844
      px      :     1.010258
      py      :     0.989072
      dz2     :     0.025651  d :     0.172148
      dxz     :     0.036824
      dyz     :     0.021759
      dx2y2   :     0.040482
      dxy     :     0.047433
 22 H s       :     0.859366  s :     0.859366
      pz      :     0.040304  p :     0.080356
      px      :     0.024172
      py      :     0.015879
 23 H s       :     0.859220  s :     0.859220
      pz      :     0.031193  p :     0.080381
      px      :     0.033548
      py      :     0.015640
 24 C s       :     2.872748  s :     2.872748
      pz      :     1.020534  p :     3.038690
      px      :     1.021621
      py      :     0.996536
      dz2     :     0.025705  d :     0.169403
      dxz     :     0.040982
      dyz     :     0.019180
      dx2y2   :     0.038037
      dxy     :     0.045500
 25 H s       :     0.876155  s :     0.876155
      pz      :     0.039847  p :     0.079896
      px      :     0.023389
      py      :     0.016660
 26 H s       :     0.876438  s :     0.876438
      pz      :     0.031338  p :     0.079879
      px      :     0.032116
      py      :     0.016426
 27 C s       :     2.877060  s :     2.877060
      pz      :     1.023649  p :     3.043825
      px      :     1.017256
      py      :     1.002919
      dz2     :     0.025775  d :     0.169008
      dxz     :     0.039794
      dyz     :     0.019199
      dx2y2   :     0.037934
      dxy     :     0.046307
 28 H s       :     0.879299  s :     0.879299
      pz      :     0.039429  p :     0.079550
      px      :     0.023451
      py      :     0.016671
 29 H s       :     0.879250  s :     0.879250
      pz      :     0.031084  p :     0.079552
      px      :     0.032052
      py      :     0.016415
 30 C s       :     2.881420  s :     2.881420
      pz      :     1.036231  p :     3.080723
      px      :     1.032607
      py      :     1.011885
      dz2     :     0.020440  d :     0.116950
      dxz     :     0.028342
      dyz     :     0.012396
      dx2y2   :     0.021932
      dxy     :     0.033840
 31 H s       :     0.886494  s :     0.886494
      pz      :     0.031618  p :     0.079808
      px      :     0.031504
      py      :     0.016687
 32 H s       :     0.886378  s :     0.886378
      pz      :     0.039719  p :     0.079816
      px      :     0.023061
      py      :     0.017037
 33 C s       :     2.958274  s :     2.958274
      pz      :     0.987787  p :     3.027689
      px      :     1.059968
      py      :     0.979934
      dz2     :     0.008035  d :     0.079987
      dxz     :     0.025278
      dyz     :     0.000828
      dx2y2   :     0.021188
      dxy     :     0.024657
 34 H s       :     0.857153  s :     0.857153
      pz      :     0.022218  p :     0.098185
      px      :     0.054991
      py      :     0.020976
 35 H s       :     0.886883  s :     0.886883
      pz      :     0.037839  p :     0.080371
      px      :     0.024845
      py      :     0.017687
 36 H s       :     0.888064  s :     0.888064
      pz      :     0.017545  p :     0.080263
      px      :     0.029208
      py      :     0.033510

SPIN
  0 C s       :     0.001313  s :     0.001313
      pz      :     0.014109  p :     0.019912
      px      :     0.001439
      py      :     0.004364
      dz2     :    -0.000527  d :    -0.007277
      dxz     :    -0.005749
      dyz     :    -0.000015
      dx2y2   :    -0.000428
      dxy     :    -0.000558
  1 C s       :     0.006355  s :     0.006355
      pz      :     0.168656  p :     0.182213
      px      :     0.008021
      py      :     0.005536
      dz2     :    -0.000903  d :    -0.007792
      dxz     :    -0.000657
      dyz     :    -0.004444
      dx2y2   :    -0.000896
      dxy     :    -0.000892
  2 C s       :    -0.006449  s :    -0.006449
      pz      :    -0.087747  p :    -0.106104
      px      :    -0.009380
      py      :    -0.008976
      dz2     :     0.002526  d :     0.040987
      dxz     :     0.010492
      dyz     :     0.023855
      dx2y2   :     0.001613
      dxy     :     0.002501
  3 C s       :     0.005686  s :     0.005686
      pz      :     0.165513  p :     0.178823
      px      :     0.008806
      py      :     0.004504
      dz2     :    -0.001043  d :    -0.007929
      dxz     :    -0.003757
      dyz     :    -0.001373
      dx2y2   :    -0.000722
      dxy     :    -0.001035
  4 C s       :    -0.003730  s :    -0.003730
      pz      :    -0.063903  p :    -0.073589
      px      :    -0.004501
      py      :    -0.005185
      dz2     :     0.000705  d :     0.018248
      dxz     :     0.001779
      dyz     :     0.013649
      dx2y2   :     0.000745
      dxy     :     0.001370
  5 C s       :     0.006682  s :     0.006682
      pz      :     0.178901  p :     0.193474
      px      :     0.009228
      py      :     0.005345
      dz2     :    -0.000973  d :    -0.006582
      dxz     :    -0.002592
      dyz     :    -0.001669
      dx2y2   :    -0.000709
      dxy     :    -0.000638
  6 C s       :    -0.003802  s :    -0.003802
      pz      :    -0.071729  p :    -0.081830
      px      :    -0.006549
      py      :    -0.003552
      dz2     :     0.001606  d :     0.018713
      dxz     :     0.011356
      dyz     :     0.003930
      dx2y2   :     0.000955
      dxy     :     0.000866
  7 H s       :    -0.005087  s :    -0.005087
      pz      :     0.004550  p :     0.005574
      px      :     0.000357
      py      :     0.000667
  8 H s       :     0.002114  s :     0.002114
      pz      :    -0.002194  p :    -0.002779
      px      :    -0.000256
      py      :    -0.000329
  9 C s       :     0.017344  s :     0.017344
      pz      :     0.572212  p :     0.613697
      px      :     0.027915
      py      :     0.013569
      dz2     :    -0.001828  d :    -0.006048
      dxz     :    -0.000639
      dyz     :    -0.001572
      dx2y2   :    -0.000954
      dxy     :    -0.001054
 10 H s       :    -0.014889  s :    -0.014889
      pz      :     0.016814  p :     0.020012
      px      :     0.002907
      py      :     0.000291
 11 H s       :    -0.015057  s :    -0.015057
      pz      :     0.015851  p :     0.019144
      px      :     0.001251
      py      :     0.002042
 12 C s       :    -0.000485  s :    -0.000485
      pz      :    -0.001707  p :    -0.006412
      px      :    -0.003888
      py      :    -0.000818
      dz2     :     0.000117  d :     0.007630
      dxz     :     0.006552
      dyz     :     0.000081
      dx2y2   :     0.000744
      dxy     :     0.000135
 13 H s       :     0.001516  s :     0.001516
      pz      :    -0.000032  p :    -0.000235
      px      :    -0.000137
      py      :    -0.000066
 14 H s       :     0.003645  s :     0.003645
      pz      :     0.000093  p :    -0.000132
      px      :    -0.000151
      py      :    -0.000074
 15 C s       :     0.001363  s :     0.001363
      pz      :     0.004422  p :     0.008633
      px      :     0.002162
      py      :     0.002050
      dz2     :    -0.000034  d :    -0.000038
      dxz     :    -0.000063
      dyz     :    -0.000018
      dx2y2   :     0.000091
      dxy     :    -0.000014
 16 H s       :    -0.000271  s :    -0.000271
      pz      :     0.000132  p :     0.000531
      px      :     0.000175
      py      :     0.000225
 17 H s       :    -0.000055  s :    -0.000055
      pz      :     0.000244  p :     0.000275
      px      :    -0.000017
      py      :     0.000048
 18 C s       :    -0.000018  s :    -0.000018
      pz      :    -0.000010  p :     0.000584
      px      :     0.000602
      py      :    -0.000009
      dz2     :     0.000004  d :     0.000303
      dxz     :     0.000137
      dyz     :     0.000015
      dx2y2   :     0.000074
      dxy     :     0.000074
 19 H s       :    -0.000017  s :    -0.000017
      pz      :     0.000008  p :     0.000032
      px      :     0.000023
      py      :     0.000001
 20 H s       :     0.000119  s :     0.000119
      pz      :     0.000002  p :     0.000016
      px      :     0.000012
      py      :     0.000002
 21 C s       :    -0.001183  s :    -0.001183
      pz      :    -0.000169  p :    -0.005527
      px      :    -0.002652
      py      :    -0.002706
      dz2     :     0.000679  d :     0.008606
      dxz     :     0.004487
      dyz     :     0.002705
      dx2y2   :     0.000262
      dxy     :     0.000474
 22 H s       :     0.009376  s :     0.009376
      pz      :    -0.000140  p :    -0.000259
      px      :    -0.000168
      py      :     0.000049
 23 H s       :     0.009271  s :     0.009271
      pz      :    -0.000104  p :    -0.000257
      px      :    -0.000208
      py      :     0.000056
 24 C s       :     0.000044  s :     0.000044
      pz      :     0.000000  p :     0.000196
      px      :     0.000110
      py      :     0.000085
      dz2     :    -0.000005  d :    -0.000032
      dxz     :     0.000148
      dyz     :    -0.000021
      dx2y2   :    -0.000078
      dxy     :    -0.000075
 25 H s       :     0.000005  s :     0.000005
      pz      :     0.000009  p :     0.000019
      px      :     0.000007
      py      :     0.000002
 26 H s       :     0.000005  s :     0.000005
      pz      :     0.000004  p :     0.000019
      px      :     0.000011
      py      :     0.000004
 27 C s       :    -0.000058  s :    -0.000058
      pz      :     0.000186  p :     0.000052
      px      :    -0.000036
      py      :    -0.000099
      dz2     :    -0.000002  d :    -0.000003
      dxz     :    -0.000005
      dyz     :     0.000013
      dx2y2   :    -0.000003
      dxy     :    -0.000006
 28 H s       :     0.000042  s :     0.000042
      pz      :     0.000001  p :     0.000022
      px      :     0.000001
      py      :     0.000019
 29 H s       :     0.000044  s :     0.000044
      pz      :     0.000001  p :     0.000022
      px      :     0.000003
      py      :     0.000018
 30 C s       :    -0.000010  s :    -0.000010
      pz      :     0.000006  p :    -0.000044
      px      :    -0.000010
      py      :    -0.000039
      dz2     :     0.000000  d :     0.000015
      dxz     :     0.000009
      dyz     :     0.000007
      dx2y2   :    -0.000002
      dxy     :     0.000001
 31 H s       :     0.000018  s :     0.000018
      pz      :    -0.000000  p :    -0.000002
      px      :    -0.000001
      py      :    -0.000001
 32 H s       :     0.000019  s :     0.000019
      pz      :    -0.000001  p :    -0.000002
      px      :    -0.000001
      py      :    -0.000001
 33 C s       :    -0.001124  s :    -0.001124
      pz      :    -0.032237  p :    -0.038911
      px      :    -0.001359
      py      :    -0.005315
      dz2     :     0.000163  d :     0.001299
      dxz     :     0.000735
      dyz     :     0.000014
      dx2y2   :     0.000148
      dxy     :     0.000240
 34 H s       :     0.001155  s :     0.001155
      pz      :    -0.001000  p :    -0.001386
      px      :    -0.000233
      py      :    -0.000153
 35 H s       :     0.000186  s :     0.000186
      pz      :     0.000005  p :     0.000058
      px      :     0.000053
      py      :     0.000001
 36 H s       :    -0.000003  s :    -0.000003
      pz      :    -0.000000  p :    -0.000003
      px      :    -0.000001
      py      :    -0.000002


                      *****************************
                      * MAYER POPULATION ANALYSIS *
                      *****************************

  NA   - Mulliken gross atomic population
  ZA   - Total nuclear charge
  QA   - Mulliken gross atomic charge
  VA   - Mayer's total valence
  BVA  - Mayer's bonded valence
  FA   - Mayer's free valence

  ATOM       NA         ZA         QA         VA         BVA        FA
  0 C      5.9854     6.0000     0.0146     3.8422     3.8419     0.0004
  1 C      5.7576     6.0000     0.2424     3.9793     3.9385     0.0408
  2 C      5.5254     6.0000     0.4746     3.8701     3.8552     0.0149
  3 C      6.4447     6.0000    -0.4447     4.2963     4.2586     0.0377
  4 C      5.5638     6.0000     0.4362     3.9578     3.9506     0.0072
  5 C      5.7185     6.0000     0.2815     3.8414     3.7948     0.0466
  6 C      6.3810     6.0000    -0.3810     4.4020     4.3929     0.0091
  7 H      0.8797     1.0000     0.1203     0.9639     0.9637     0.0002
  8 H      0.8833     1.0000     0.1167     0.9717     0.9716     0.0000
  9 C      6.5847     6.0000    -0.5847     3.8701     3.4362     0.4339
 10 H      0.8487     1.0000     0.1513     0.9740     0.9728     0.0012
 11 H      0.8509     1.0000     0.1491     0.9724     0.9713     0.0012
 12 C      6.4262     6.0000    -0.4262     3.9532     3.9530     0.0002
 13 H      0.8638     1.0000     0.1362     0.9736     0.9736     0.0000
 14 H      0.8588     1.0000     0.1412     0.9703     0.9703     0.0000
 15 C      6.2624     6.0000    -0.2624     3.8868     3.8867     0.0001
 16 H      0.8421     1.0000     0.1579     0.9692     0.9692     0.0000
 17 H      0.8455     1.0000     0.1545     0.9682     0.9682     0.0000
 18 C      6.5118     6.0000    -0.5118     3.8795     3.8795     0.0000
 19 H      0.8388     1.0000     0.1612     0.9648     0.9648     0.0000
 20 H      0.8378     1.0000     0.1622     0.9639     0.9639     0.0000
 21 C      6.3879     6.0000    -0.3879     4.0586     4.0584     0.0003
 22 H      0.8441     1.0000     0.1559     0.9620     0.9618     0.0001
 23 H      0.8450     1.0000     0.1550     0.9621     0.9620     0.0001
 24 C      6.2670     6.0000    -0.2670     4.0097     4.0097     0.0000
 25 H      0.8593     1.0000     0.1407     0.9664     0.9664     0.0000
 26 H      0.8597     1.0000     0.1403     0.9665     0.9665     0.0000
 27 C      6.2624     6.0000    -0.2624     3.8898     3.8898     0.0000
 28 H      0.8550     1.0000     0.1450     0.9670     0.9670     0.0000
 29 H      0.8549     1.0000     0.1451     0.9671     0.9671     0.0000
 30 C      6.5116     6.0000    -0.5116     3.8998     3.8998     0.0000
 31 H      0.8411     1.0000     0.1589     0.9655     0.9655     0.0000
 32 H      0.8408     1.0000     0.1592     0.9653     0.9653     0.0000
 33 C      6.5395     6.0000    -0.5395     3.8878     3.8863     0.0015
 34 H      0.8176     1.0000     0.1824     0.9775     0.9775     0.0000
 35 H      0.8488     1.0000     0.1512     0.9668     0.9668     0.0000
 36 H      0.8547     1.0000     0.1453     0.9666     0.9666     0.0000

  Mayer bond orders larger than 0.100000
B(  0-C ,  4-C ) :   0.9201 B(  0-C , 33-C ) :   2.7161 B(  1-C ,  2-C ) :   1.3682 
B(  1-C ,  5-C ) :   0.1109 B(  1-C ,  6-C ) :   1.5050 B(  1-C ,  9-C ) :   0.1107 
B(  1-C , 12-C ) :   0.8203 B(  2-C ,  3-C ) :   1.2581 B(  2-C ,  4-C ) :   0.1126 
B(  2-C ,  6-C ) :   0.1407 B(  2-C ,  9-C ) :   1.1005 B(  3-C ,  4-C ) :   1.4715 
B(  3-C ,  7-H ) :   0.9818 B(  3-C ,  9-C ) :   0.1385 B(  4-C ,  5-C ) :   1.3372 
B(  5-C ,  6-C ) :   1.4103 B(  5-C , 21-C ) :   0.9406 B(  6-C ,  8-H ) :   0.9783 
B(  9-C , 10-H ) :   0.9646 B(  9-C , 11-H ) :   0.9816 B( 12-C , 13-H ) :   0.9915 
B( 12-C , 14-H ) :   0.9714 B( 12-C , 15-C ) :   0.9753 B( 15-C , 16-H ) :   0.9711 
B( 15-C , 17-H ) :   0.9738 B( 15-C , 18-C ) :   0.9524 B( 18-C , 19-H ) :   0.9733 
B( 18-C , 20-H ) :   0.9725 B( 18-C , 35-H ) :   0.9709 B( 21-C , 22-H ) :   0.9583 
B( 21-C , 23-H ) :   0.9585 B( 21-C , 24-C ) :   1.0184 B( 24-C , 25-H ) :   0.9619 
B( 24-C , 26-H ) :   0.9620 B( 24-C , 27-C ) :   0.9857 B( 27-C , 28-H ) :   0.9716 
B( 27-C , 29-H ) :   0.9719 B( 27-C , 30-C ) :   0.9541 B( 30-C , 31-H ) :   0.9733 
B( 30-C , 32-H ) :   0.9731 B( 30-C , 36-H ) :   0.9678 B( 33-C , 34-H ) :   0.9812 


-------
TIMINGS
-------

Total SCF time: 0 days 0 hours 0 min 40 sec 

Total time                  ....      40.733 sec
Sum of individual times     ....      38.038 sec  ( 93.4%)

Fock matrix formation       ....      33.737 sec  ( 82.8%)
  Split-RI-J                ....       2.687 sec  (  8.0% of F)
  Chain of spheres X        ....      21.366 sec  ( 63.3% of F)
  XC integration            ....       7.328 sec  ( 21.7% of F)
    Basis function eval.    ....       0.496 sec  (  6.8% of XC)
    Density eval.           ....       0.791 sec  ( 10.8% of XC)
    XC-Functional eval.     ....       0.144 sec  (  2.0% of XC)
    XC-Potential eval.      ....       0.564 sec  (  7.7% of XC)
Diagonalization             ....       0.653 sec  (  1.6%)
Density matrix formation    ....       0.285 sec  (  0.7%)
Population analysis         ....       0.313 sec  (  0.8%)
Initial guess               ....       0.152 sec  (  0.4%)
Orbital Transformation      ....       0.000 sec  (  0.0%)
Orbital Orthonormalization  ....       0.118 sec  (  0.3%)
DIIS solution               ....       0.369 sec  (  0.9%)
Grid generation             ....       2.531 sec  (  6.2%)

Maximum memory used throughout the entire SCF-calculation: 95.2 MB

-------------------------   --------------------
FINAL SINGLE POINT ENERGY      -621.921730070592
-------------------------   --------------------

                                *** OPTIMIZATION RUN DONE ***

                            ***************************************
                            *     ORCA property calculations      *
                            ***************************************

                                    ---------------------
                                    Active property flags
                                    ---------------------
   (+) Dipole Moment


------------------------------------------------------------------------------
                       ORCA ELECTRIC PROPERTIES CALCULATION
------------------------------------------------------------------------------

Dipole Moment Calculation                       ... on
Quadrupole Moment Calculation                   ... off
Polarizability Calculation                      ... off
GBWName                                         ... opt_EPRII.gbw
Electron density                                ... opt_EPRII.scfp
The origin for moment calculation is the CENTER OF MASS  = ( 0.560905, -2.149081 -0.105211)

-------------
DIPOLE MOMENT
-------------
                                X             Y             Z
Electronic contribution:    -11.63392      14.70452      -1.62620
Nuclear contribution   :     11.92305     -15.03732       1.66818
                        -----------------------------------------
Total Dipole Moment    :      0.28913      -0.33280       0.04198
                        -----------------------------------------
Magnitude (a.u.)       :      0.44285
Magnitude (Debye)      :      1.12563



--------------------
Rotational spectrum 
--------------------
 
Rotational constants in cm-1:     0.018569     0.010157     0.006768 
Rotational constants in MHz :   556.687373   304.513693   202.914119 

 Dipole components along the rotational axes: 
x,y,z [a.u.] :    -0.006315     0.442180     0.023457 
x,y,z [Debye]:    -0.016051     1.123933     0.059622 

 

Timings for individual modules:

Sum of individual times         ...      539.665 sec (=   8.994 min)
GTO integral calculation        ...       20.059 sec (=   0.334 min)   3.7 %
SCF iterations                  ...      423.059 sec (=   7.051 min)  78.4 %
SCF Gradient evaluation         ...       94.666 sec (=   1.578 min)  17.5 %
Geometry relaxation             ...        1.882 sec (=   0.031 min)   0.3 %
                             ****ORCA TERMINATED NORMALLY****
TOTAL RUN TIME: 0 days 0 hours 9 minutes 21 seconds 985 msec
