
                                 *****************
                                 * O   R   C   A *
                                 *****************

                                            #,                                       
                                            ###                                      
                                            ####                                     
                                            #####                                    
                                            ######                                   
                                           ########,                                 
                                     ,,################,,,,,                         
                               ,,#################################,,                 
                          ,,##########################################,,             
                       ,#########################################, ''#####,          
                    ,#############################################,,   '####,        
                  ,##################################################,,,,####,       
                ,###########''''           ''''###############################       
              ,#####''   ,,,,##########,,,,          '''####'''          '####       
            ,##' ,,,,###########################,,,                        '##       
           ' ,,###''''                  '''############,,,                           
         ,,##''                                '''############,,,,        ,,,,,,###''
      ,#''                                            '''#######################'''  
     '                                                          ''''####''''         
             ,#######,   #######,   ,#######,      ##                                
            ,#'     '#,  ##    ##  ,#'     '#,    #''#        ######   ,####,        
            ##       ##  ##   ,#'  ##            #'  '#       #        #'  '#        
            ##       ##  #######   ##           ,######,      #####,   #    #        
            '#,     ,#'  ##    ##  '#,     ,#' ,#      #,         ##   #,  ,#        
             '#######'   ##     ##  '#######'  #'      '#     #####' # '####'        



                  #######################################################
                  #                        -***-                        #
                  #          Department of theory and spectroscopy      #
                  #    Directorship and core code : Frank Neese         #
                  #        Max Planck Institute fuer Kohlenforschung    #
                  #                Kaiser Wilhelm Platz 1               #
                  #                 D-45470 Muelheim/Ruhr               #
                  #                      Germany                        #
                  #                                                     #
                  #                  All rights reserved                #
                  #                        -***-                        #
                  #######################################################


                         Program Version 5.0.4 -  RELEASE  -


 With contributions from (in alphabetic order):
   Daniel Aravena         : Magnetic Suceptibility
   Michael Atanasov       : Ab Initio Ligand Field Theory (pilot matlab implementation)
   Alexander A. Auer      : GIAO ZORA, VPT2 properties, NMR spectrum
   Ute Becker             : Parallelization
   Giovanni Bistoni       : ED, misc. LED, open-shell LED, HFLD
   Martin Brehm           : Molecular dynamics
   Dmytro Bykov           : SCF Hessian
   Vijay G. Chilkuri      : MRCI spin determinant printing, contributions to CSF-ICE
   Dipayan Datta          : RHF DLPNO-CCSD density
   Achintya Kumar Dutta   : EOM-CC, STEOM-CC
   Dmitry Ganyushin       : Spin-Orbit,Spin-Spin,Magnetic field MRCI
   Miquel Garcia          : C-PCM and meta-GGA Hessian, CC/C-PCM, Gaussian charge scheme
   Yang Guo               : DLPNO-NEVPT2, F12-NEVPT2, CIM, IAO-localization
   Andreas Hansen         : Spin unrestricted coupled pair/coupled cluster methods
   Benjamin Helmich-Paris : MC-RPA, TRAH-SCF, COSX integrals
   Lee Huntington         : MR-EOM, pCC
   Robert Izsak           : Overlap fitted RIJCOSX, COSX-SCS-MP3, EOM
   Marcus Kettner         : VPT2
   Christian Kollmar      : KDIIS, OOCD, Brueckner-CCSD(T), CCSD density, CASPT2, CASPT2-K
   Simone Kossmann        : Meta GGA functionals, TD-DFT gradient, OOMP2, MP2 Hessian
   Martin Krupicka        : Initial AUTO-CI
   Lucas Lang             : DCDCAS
   Marvin Lechner         : AUTO-CI (C++ implementation), FIC-MRCC
   Dagmar Lenk            : GEPOL surface, SMD
   Dimitrios Liakos       : Extrapolation schemes; Compound Job, initial MDCI parallelization
   Dimitrios Manganas     : Further ROCIS development; embedding schemes
   Dimitrios Pantazis     : SARC Basis sets
   Anastasios Papadopoulos: AUTO-CI, single reference methods and gradients
   Taras Petrenko         : DFT Hessian,TD-DFT gradient, ASA, ECA, R-Raman, ABS, FL, XAS/XES, NRVS
   Peter Pinski           : DLPNO-MP2, DLPNO-MP2 Gradient
   Christoph Reimann      : Effective Core Potentials
   Marius Retegan         : Local ZFS, SOC
   Christoph Riplinger    : Optimizer, TS searches, QM/MM, DLPNO-CCSD(T), (RO)-DLPNO pert. Triples
   Tobias Risthaus        : Range-separated hybrids, TD-DFT gradient, RPA, STAB
   Michael Roemelt        : Original ROCIS implementation
   Masaaki Saitow         : Open-shell DLPNO-CCSD energy and density
   Barbara Sandhoefer     : DKH picture change effects
   Avijit Sen             : IP-ROCIS
   Kantharuban Sivalingam : CASSCF convergence, NEVPT2, FIC-MRCI
   Bernardo de Souza      : ESD, SOC TD-DFT
   Georgi Stoychev        : AutoAux, RI-MP2 NMR, DLPNO-MP2 response
   Willem Van den Heuvel  : Paramagnetic NMR
   Boris Wezisla          : Elementary symmetry handling
   Frank Wennmohs         : Technical directorship


 We gratefully acknowledge several colleagues who have allowed us to
 interface, adapt or use parts of their codes:
   Stefan Grimme, W. Hujo, H. Kruse, P. Pracht,  : VdW corrections, initial TS optimization,
                  C. Bannwarth, S. Ehlert          DFT functionals, gCP, sTDA/sTD-DF
   Ed Valeev, F. Pavosevic, A. Kumar             : LibInt (2-el integral package), F12 methods
   Garnet Chan, S. Sharma, J. Yang, R. Olivares  : DMRG
   Ulf Ekstrom                                   : XCFun DFT Library
   Mihaly Kallay                                 : mrcc  (arbitrary order and MRCC methods)
   Jiri Pittner, Ondrej Demel                    : Mk-CCSD
   Frank Weinhold                                : gennbo (NPA and NBO analysis)
   Christopher J. Cramer and Donald G. Truhlar   : smd solvation model
   Lars Goerigk                                  : TD-DFT with DH, B97 family of functionals
   V. Asgeirsson, H. Jonsson                     : NEB implementation
   FAccTs GmbH                                   : IRC, NEB, NEB-TS, DLPNO-Multilevel, CI-OPT
                                                   MM, QMMM, 2- and 3-layer-ONIOM, Crystal-QMMM,
                                                   LR-CPCM, SF, NACMEs, symmetry and pop. for TD-DFT,
                                                   nearIR, NL-DFT gradient (VV10), updates on ESD,
                                                   ML-optimized integration grids
   S Lehtola, MJT Oliveira, MAL Marques          : LibXC Library
   Liviu Ungur et al                             : ANISO software


 Your calculation uses the libint2 library for the computation of 2-el integrals
 For citations please refer to: http://libint.valeyev.net

 Your ORCA version has been built with support for libXC version: 5.1.0
 For citations please refer to: https://tddft.org/programs/libxc/

 This ORCA versions uses:
   CBLAS   interface :  Fast vector & matrix operations
   LAPACKE interface :  Fast linear algebra routines
   SCALAPACK package :  Parallel linear algebra routines
   Shared memory     :  Shared parallel matrices
   BLAS/LAPACK       :  OpenBLAS 0.3.15  USE64BITINT DYNAMIC_ARCH NO_AFFINITY SkylakeX SINGLE_THREADED
        Core in use  :  SkylakeX
   Copyright (c) 2011-2014, The OpenBLAS Project




***************************************
The coordinates will be read from file: model.xyz
***************************************


================================================================================

----- Orbital basis set information -----
Your calculation utilizes the basis: cc-pVDZ 
       H, B-Ne : Obtained from the ccRepo (grant-hill.group.shef.ac.uk/ccrepo) Feb. 2017
                 T. H. Dunning, Jr., J. Chem. Phys. 90, 1007 (1989)
            He : Obtained from the ccRepo (grant-hill.group.shef.ac.uk/ccrepo) Feb. 2017
                 D. E. Woon, T. H. Dunning, Jr., J. Chem. Phys. 100, 2975 (1994)
  Li-Be, Na-Mg : Obtained from the ccRepo (grant-hill.group.shef.ac.uk/ccrepo) Feb. 2017
                 B. P. Prascher, D. E. Woon, K. A. Peterson, T. H. Dunning, Jr., A. K. Wilson, Theor. Chem. Acc. 128, 69 (2011)
         Al-Ar : Obtained from the ccRepo (grant-hill.group.shef.ac.uk/ccrepo) Feb. 2017
                 D. E. Woon, T. H. Dunning, Jr., J. Chem. Phys. 98, 1358 (1993)
            Ca : Obtained from the Peterson Research Group Website (tyr0.chem.wsu.edu/~kipeters) Feb. 2017
                 J. Koput, K. A. Peterson, J. Phys. Chem. 106, 9595 (2002)
         Sc-Zn : Obtained from the ccRepo (grant-hill.group.shef.ac.uk/ccrepo) Feb. 2017
                 N. B. Balabanov, K. A. Peterson, J. Chem. Phys. 123, 064107 (2005)
                 N. B. Balabanov, K. A. Peterson, J. Chem. Phys. 125, 074110 (2006)
         Ga-Kr : Obtained from the ccRepo (grant-hill.group.shef.ac.uk/ccrepo) Feb. 2017
                 A. K. Wilson, D. E. Woon, K. A. Peterson, T. H. Dunning, Jr., J. Chem. Phys. 110, 7667 (1999)

----- AuxJ basis set information -----
Your calculation utilizes the auxiliary basis: def2/J
   F. Weigend, Phys. Chem. Chem. Phys. 8, 1057 (2006).

================================================================================
                                        WARNINGS
                       Please study these warnings very carefully!
================================================================================

WARNING: Old DensityContainer found on disk!
         Will remove this file - 
         If you want to keep old densities, please start your calculation with a different basename. 


WARNING: your system is open-shell and RHF/RKS was chosen
  ===> : WILL SWITCH to UHF/UKS


WARNING: Geometry Optimization
  ===> : Switching off AutoStart
         For restart on a previous wavefunction, please use MOREAD

INFO   : the flag for use of the SHARK integral package has been found!

================================================================================
                                       INPUT FILE
================================================================================
NAME = opt_cc-pVDZ.inp
|  1> ! B3LYP cc-pVDZ OPT
|  2> %pal nprocs 16 end
|  3> *XYZFile 0 2 model.xyz
|  4> 
|  5>                          ****END OF INPUT****
================================================================================

                       *****************************
                       * Geometry Optimization Run *
                       *****************************

Geometry optimization settings:
Update method            Update   .... BFGS
Choice of coordinates    CoordSys .... Z-matrix Internals
Initial Hessian          InHess   .... Almoef's Model

Convergence Tolerances:
Energy Change            TolE     ....  5.0000e-06 Eh
Max. Gradient            TolMAXG  ....  3.0000e-04 Eh/bohr
RMS Gradient             TolRMSG  ....  1.0000e-04 Eh/bohr
Max. Displacement        TolMAXD  ....  4.0000e-03 bohr
RMS Displacement         TolRMSD  ....  2.0000e-03 bohr
Strict Convergence                ....  False
------------------------------------------------------------------------------
                        ORCA OPTIMIZATION COORDINATE SETUP
------------------------------------------------------------------------------

The optimization will be done in new redundant internal coordinates
Making redundant internal coordinates   ...  (new redundants) done
Evaluating the initial hessian          ...  (Almloef) done
Evaluating the coordinates              ...  done
Calculating the B-matrix                .... done
Calculating the G-matrix                .... done
Diagonalizing the G-matrix              .... done
Small eigenvalue found = 2.564e-03
Small eigenvalue found = 1.030e-02
Small eigenvalue found = 1.225e-02
Small eigenvalue found = 1.885e-02
Small eigenvalue found = 2.671e-02
The first mode is                       ....   84
The number of degrees of freedom        ....  105

    -----------------------------------------------------------------
                    Redundant Internal Coordinates


    -----------------------------------------------------------------
         Definition                    Initial Value    Approx d2E/dq
    -----------------------------------------------------------------
      1. B(C   2,C   1)                  1.4387         0.522512   
      2. B(C   3,C   2)                  1.4259         0.547579   
      3. B(C   4,C   0)                  1.4346         0.530457   
      4. B(C   4,C   3)                  1.3946         0.614286   
      5. B(C   5,C   4)                  1.4266         0.546156   
      6. B(C   6,C   5)                  1.4034         0.594822   
      7. B(C   6,C   1)                  1.3966         0.609937   
      8. B(H   7,C   3)                  1.0923         0.357082   
      9. B(H   8,C   6)                  1.0920         0.357452   
     10. B(C   9,C   2)                  1.4094         0.581784   
     11. B(H  10,C   9)                  1.0889         0.361501   
     12. B(H  11,C   9)                  1.0915         0.358174   
     13. B(C  12,C   1)                  1.5122         0.398892   
     14. B(H  13,C  12)                  1.1036         0.342495   
     15. B(H  14,C  12)                  1.1041         0.341975   
     16. B(C  15,C  12)                  1.5433         0.355734   
     17. B(H  16,C  15)                  1.1040         0.342009   
     18. B(H  17,C  15)                  1.1047         0.341205   
     19. B(C  18,C  15)                  1.5303         0.373223   
     20. B(H  19,C  18)                  1.1039         0.342204   
     21. B(H  20,C  18)                  1.1039         0.342174   
     22. B(C  21,C   5)                  1.5143         0.395692   
     23. B(H  22,C  21)                  1.1062         0.339349   
     24. B(H  23,C  21)                  1.1062         0.339251   
     25. B(C  24,C  21)                  1.5310         0.372179   
     26. B(H  25,C  24)                  1.1056         0.339983   
     27. B(H  26,C  24)                  1.1057         0.339979   
     28. B(C  27,C  24)                  1.5337         0.368497   
     29. B(H  28,C  27)                  1.1058         0.339834   
     30. B(H  29,C  27)                  1.1057         0.339907   
     31. B(C  30,C  27)                  1.5308         0.372486   
     32. B(H  31,C  30)                  1.1037         0.342400   
     33. B(H  32,C  30)                  1.1038         0.342261   
     34. B(C  33,C   0)                  1.2158         1.184885   
     35. B(H  34,C  33)                  1.0723         0.384233   
     36. B(H  35,C  18)                  1.1022         0.344257   
     37. B(H  36,C  30)                  1.1022         0.344366   
     38. L(C   4,C   0,C  33,C   3, 1) 179.7661         0.474687   
     39. L(C   4,C   0,C  33,C   3, 2) 180.3750         0.474687   
     40. A(C   6,C   1,C  12)          119.4185         0.400130   
     41. A(C   2,C   1,C   6)          118.9551         0.419733   
     42. A(C   2,C   1,C  12)          121.6112         0.389424   
     43. A(C   3,C   2,C   9)          119.3778         0.419703   
     44. A(C   1,C   2,C   3)          117.2799         0.411758   
     45. A(C   1,C   2,C   9)          123.3416         0.416215   
     46. A(C   4,C   3,H   7)          118.7137         0.351855   
     47. A(C   2,C   3,H   7)          118.6948         0.345104   
     48. A(C   2,C   3,C   4)          122.5914         0.423798   
     49. A(C   0,C   4,C   3)          119.3925         0.421399   
     50. A(C   0,C   4,C   5)          120.6176         0.412671   
     51. A(C   3,C   4,C   5)          119.9894         0.423601   
     52. A(C   4,C   5,C   6)          117.3485         0.421171   
     53. A(C   6,C   5,C  21)          123.0243         0.397804   
     54. A(C   4,C   5,C  21)          119.6265         0.391896   
     55. A(C   5,C   6,H   8)          118.6847         0.350008   
     56. A(C   1,C   6,H   8)          117.4801         0.351494   
     57. A(C   1,C   6,C   5)          123.8350         0.429580   
     58. A(C   2,C   9,H  10)          122.4066         0.349365   
     59. A(H  10,C   9,H  11)          117.5067         0.290772   
     60. A(C   2,C   9,H  11)          120.0847         0.348820   
     61. A(H  14,C  12,C  15)          109.0382         0.319022   
     62. A(H  13,C  12,C  15)          108.5845         0.319101   
     63. A(C   1,C  12,C  15)          113.7357         0.364387   
     64. A(H  13,C  12,H  14)          106.0257         0.286243   
     65. A(C   1,C  12,H  14)          110.2812         0.325062   
     66. A(C   1,C  12,H  13)          108.8754         0.325143   
     67. A(H  17,C  15,C  18)          109.9103         0.321416   
     68. A(H  16,C  15,C  18)          109.9082         0.321540   
     69. A(C  12,C  15,C  18)          112.7328         0.360272   
     70. A(H  16,C  15,H  17)          105.9895         0.286079   
     71. A(C  12,C  15,H  17)          108.7642         0.318905   
     72. A(C  12,C  15,H  16)          109.3056         0.319028   
     73. A(H  19,C  18,H  35)          107.6139         0.286503   
     74. A(C  15,C  18,H  35)          111.3701         0.321885   
     75. A(H  19,C  18,H  20)          107.3308         0.286231   
     76. A(C  15,C  18,H  20)          111.3414         0.321565   
     77. A(C  15,C  18,H  19)          111.3672         0.321570   
     78. A(H  20,C  18,H  35)          107.6111         0.286499   
     79. A(H  23,C  21,C  24)          109.1512         0.320967   
     80. A(H  22,C  21,C  24)          109.2351         0.320982   
     81. A(C   5,C  21,C  24)          117.1170         0.366711   
     82. A(H  22,C  21,H  23)          104.2154         0.285476   
     83. A(C   5,C  21,H  23)          108.1429         0.324206   
     84. A(C   5,C  21,H  22)          108.2057         0.324221   
     85. A(H  26,C  24,C  27)          109.0866         0.320558   
     86. A(H  25,C  24,C  27)          108.9961         0.320559   
     87. A(C  21,C  24,C  27)          112.5856         0.362271   
     88. A(H  25,C  24,H  26)          106.1908         0.285654   
     89. A(C  21,C  24,H  26)          109.8803         0.321080   
     90. A(C  21,C  24,H  25)          109.8931         0.321080   
     91. A(H  29,C  27,C  30)          109.5623         0.321112   
     92. A(H  28,C  27,C  30)          109.5983         0.321100   
     93. A(C  24,C  27,C  30)          113.2325         0.362322   
     94. A(H  28,C  27,H  29)          105.8515         0.285625   
     95. A(C  24,C  27,H  29)          109.1405         0.320547   
     96. A(C  24,C  27,H  28)          109.1890         0.320535   
     97. A(H  31,C  30,H  32)          107.3545         0.286268   
     98. A(C  27,C  30,H  32)          111.2811         0.321475   
     99. A(C  27,C  30,H  31)          111.3009         0.321496   
    100. A(H  32,C  30,H  36)          107.5901         0.286524   
    101. A(H  31,C  30,H  36)          107.5902         0.286542   
    102. A(C  27,C  30,H  36)          111.5158         0.321797   
    103. L(C   0,C  33,H  34, 2)       180.3548         0.399096   
    104. L(C   0,C  33,H  34, 1)       179.7542         0.399096   
    105. D(C   3,C   2,C   1,C   6)      0.2267         0.018623   
    106. D(C   3,C   2,C   1,C  12)   -178.3476         0.018623   
    107. D(C   9,C   2,C   1,C  12)      1.9624         0.018623   
    108. D(C   9,C   2,C   1,C   6)   -179.4633         0.018623   
    109. D(C   4,C   3,C   2,C   9)    179.6830         0.020506   
    110. D(H   7,C   3,C   2,C   1)   -179.9255         0.020506   
    111. D(H   7,C   3,C   2,C   9)     -0.2227         0.020506   
    112. D(C   4,C   3,C   2,C   1)     -0.0198         0.020506   
    113. D(C   5,C   4,C   3,C   2)     -0.1926         0.026083   
    114. D(C   0,C   4,C   3,C   2)   -179.9267         0.026083   
    115. D(C   0,C   4,C   3,H   7)     -0.0210         0.026083   
    116. D(C   5,C   4,C   3,H   7)    179.7130         0.026083   
    117. D(C  21,C   5,C   4,C   0)      0.2158         0.020396   
    118. D(C   6,C   5,C   4,C   0)    179.9208         0.020396   
    119. D(C  21,C   5,C   4,C   3)   -179.5150         0.020396   
    120. D(C   6,C   5,C   4,C   3)      0.1900         0.020396   
    121. D(H   8,C   6,C   5,C  21)     -0.0908         0.024369   
    122. D(C   1,C   6,C   5,C  21)    179.7174         0.024369   
    123. D(H   8,C   6,C   1,C  12)     -1.8182         0.025693   
    124. D(C   5,C   6,C   1,C  12)    178.3714         0.025693   
    125. D(C   1,C   6,C   5,C   4)      0.0233         0.024369   
    126. D(H   8,C   6,C   5,C   4)   -179.7849         0.024369   
    127. D(C   5,C   6,C   1,C   2)     -0.2348         0.025693   
    128. D(H   8,C   6,C   1,C   2)    179.5756         0.025693   
    129. D(H  11,C   9,C   2,C   3)      0.1034         0.023261   
    130. D(H  11,C   9,C   2,C   1)    179.7872         0.023261   
    131. D(H  10,C   9,C   2,C   3)   -179.3727         0.023261   
    132. D(H  10,C   9,C   2,C   1)      0.3111         0.023261   
    133. D(H  14,C  12,C   1,C   2)    -42.0144         0.011811   
    134. D(H  13,C  12,C   1,C   6)     23.4804         0.011811   
    135. D(H  13,C  12,C   1,C   2)   -157.9517         0.011811   
    136. D(C  15,C  12,C   1,C   6)    -97.7362         0.011811   
    137. D(C  15,C  12,C   1,C   2)     80.8317         0.011811   
    138. D(H  14,C  12,C   1,C   6)    139.4177         0.011811   
    139. D(C  18,C  15,C  12,C   1)    179.6363         0.010170   
    140. D(C  18,C  15,C  12,H  13)     58.2574         0.010170   
    141. D(H  17,C  15,C  12,H  14)   -178.9994         0.010170   
    142. D(H  17,C  15,C  12,H  13)    -63.9034         0.010170   
    143. D(H  17,C  15,C  12,C   1)     57.4754         0.010170   
    144. D(H  16,C  15,C  12,H  14)     65.7064         0.010170   
    145. D(H  16,C  15,C  12,H  13)   -179.1976         0.010170   
    146. D(C  18,C  15,C  12,H  14)    -56.8386         0.010170   
    147. D(H  16,C  15,C  12,C   1)    -57.8187         0.010170   
    148. D(H  35,C  18,C  15,H  17)    -58.0051         0.011124   
    149. D(H  35,C  18,C  15,H  16)     58.2754         0.011124   
    150. D(H  35,C  18,C  15,C  12)   -179.5182         0.011124   
    151. D(H  20,C  18,C  15,H  17)     62.1072         0.011124   
    152. D(H  20,C  18,C  15,H  16)    178.3876         0.011124   
    153. D(H  20,C  18,C  15,C  12)    -59.4059         0.011124   
    154. D(H  19,C  18,C  15,H  17)   -178.1383         0.011124   
    155. D(H  19,C  18,C  15,H  16)    -61.8578         0.011124   
    156. D(H  19,C  18,C  15,C  12)     60.3486         0.011124   
    157. D(C  24,C  21,C   5,C   6)      0.4832         0.011632   
    158. D(C  24,C  21,C   5,C   4)   -179.8293         0.011632   
    159. D(H  23,C  21,C   5,C   6)   -123.2733         0.011632   
    160. D(H  23,C  21,C   5,C   4)     56.4142         0.011632   
    161. D(H  22,C  21,C   5,C   6)    124.4052         0.011632   
    162. D(H  22,C  21,C   5,C   4)    -55.9074         0.011632   
    163. D(H  26,C  24,C  21,H  22)    -64.9547         0.011065   
    164. D(H  26,C  24,C  21,C   5)     58.4433         0.011065   
    165. D(H  25,C  24,C  21,H  23)     65.1873         0.011065   
    166. D(H  25,C  24,C  21,H  22)    178.5469         0.011065   
    167. D(H  25,C  24,C  21,C   5)    -58.0551         0.011065   
    168. D(C  27,C  24,C  21,H  23)    -56.5101         0.011065   
    169. D(C  27,C  24,C  21,H  22)     56.8494         0.011065   
    170. D(C  27,C  24,C  21,C   5)   -179.7525         0.011065   
    171. D(H  26,C  24,C  21,H  23)   -178.3143         0.011065   
    172. D(C  30,C  27,C  24,H  26)    -57.6756         0.010861   
    173. D(C  30,C  27,C  24,C  21)   -179.9286         0.010861   
    174. D(H  29,C  27,C  24,H  26)   -179.9984         0.010861   
    175. D(H  29,C  27,C  24,H  25)    -64.4566         0.010861   
    176. D(H  29,C  27,C  24,C  21)     57.7486         0.010861   
    177. D(H  28,C  27,C  24,H  26)     64.7289         0.010861   
    178. D(C  30,C  27,C  24,H  25)     57.8662         0.010861   
    179. D(H  28,C  27,C  24,H  25)   -179.7293         0.010861   
    180. D(H  28,C  27,C  24,C  21)    -57.5242         0.010861   
    181. D(H  36,C  30,C  27,H  29)    -57.8282         0.011083   
    182. D(H  36,C  30,C  27,H  28)     57.9077         0.011083   
    183. D(H  36,C  30,C  27,C  24)   -179.9159         0.011083   
    184. D(H  32,C  30,C  27,H  29)     62.3152         0.011083   
    185. D(H  32,C  30,C  27,H  28)    178.0511         0.011083   
    186. D(H  32,C  30,C  27,C  24)    -59.7724         0.011083   
    187. D(H  31,C  30,C  27,H  29)   -177.9853         0.011083   
    188. D(H  31,C  30,C  27,H  28)    -62.2494         0.011083   
    189. D(H  31,C  30,C  27,C  24)     59.9271         0.011083   
    -----------------------------------------------------------------

Number of atoms                         .... 37
Number of degrees of freedom            .... 189

         *************************************************************
         *                GEOMETRY OPTIMIZATION CYCLE   1            *
         *************************************************************
---------------------------------
CARTESIAN COORDINATES (ANGSTROEM)
---------------------------------
  C     -2.631597    0.129889    0.152946
  C      1.575864   -0.218018   -0.504992
  C      0.963822    1.083546   -0.471921
  C     -0.443340    1.138551   -0.248119
  C     -1.220279   -0.005180   -0.065902
  C     -0.611010   -1.294596   -0.103795
  C      0.773999   -1.347005   -0.323995
  H     -0.932113    2.114973   -0.219804
  H      1.262338   -2.323049   -0.360688
  C      1.682287    2.282286   -0.654363
  H      2.755459    2.297223   -0.838416
  H      1.162943    3.241730   -0.622224
  C      3.065834   -0.388546   -0.698656
  H      3.262023   -1.404533   -1.082470
  H      3.432977    0.306369   -1.474054
  C      3.887515   -0.182955    0.591465
  H      3.688811    0.825725    0.993912
  H      3.528649   -0.892624    1.358202
  C      5.390342   -0.369448    0.371431
  H      5.781137    0.351469   -0.367554
  H      5.618742   -1.381978   -0.004350
  C     -1.464202   -2.531527    0.084086
  H     -2.003034   -2.436934    1.045488
  H     -2.265137   -2.516675   -0.678829
  C     -0.750622   -3.885261    0.036886
  H     -0.229468   -4.002281   -0.931186
  H      0.033199   -3.924469    0.815700
  C     -1.711359   -5.064693    0.232430
  H     -2.238010   -4.948281    1.197733
  H     -2.495639   -5.026358   -0.546048
  C     -1.012747   -6.426102    0.189580
  H     -0.246895   -6.508811    0.980041
  H     -0.505961   -6.586065   -0.777902
  C     -3.826626    0.249482    0.342032
  H     -4.879280    0.361416    0.513224
  H      5.954180   -0.226136    1.307646
  H     -1.728336   -7.252292    0.331363

----------------------------
CARTESIAN COORDINATES (A.U.)
----------------------------
  NO LB      ZA    FRAG     MASS         X           Y           Z
   0 C     6.0000    0    12.011   -4.972997    0.245455    0.289025
   1 C     6.0000    0    12.011    2.977951   -0.411995   -0.954296
   2 C     6.0000    0    12.011    1.821360    2.047605   -0.891801
   3 C     6.0000    0    12.011   -0.837792    2.151550   -0.468878
   4 C     6.0000    0    12.011   -2.305994   -0.009789   -0.124537
   5 C     6.0000    0    12.011   -1.154641   -2.446432   -0.196145
   6 C     6.0000    0    12.011    1.462646   -2.545470   -0.612261
   7 H     1.0000    0     1.008   -1.761437    3.996720   -0.415368
   8 H     1.0000    0     1.008    2.385473   -4.389926   -0.681601
   9 C     6.0000    0    12.011    3.179061    4.312895   -1.236567
  10 H     1.0000    0     1.008    5.207062    4.341122   -1.584377
  11 H     1.0000    0     1.008    2.197643    6.125981   -1.175832
  12 C     6.0000    0    12.011    5.793587   -0.734246   -1.320269
  13 H     1.0000    0     1.008    6.164330   -2.654183   -2.045573
  14 H     1.0000    0     1.008    6.487387    0.578953   -2.785559
  15 C     6.0000    0    12.011    7.346338   -0.345736    1.117707
  16 H     1.0000    0     1.008    6.970843    1.560395    1.878222
  17 H     1.0000    0     1.008    6.668180   -1.686814    2.566630
  18 C     6.0000    0    12.011   10.186270   -0.698156    0.701903
  19 H     1.0000    0     1.008   10.924767    0.664181   -0.694576
  20 H     1.0000    0     1.008   10.617884   -2.611559   -0.008220
  21 C     6.0000    0    12.011   -2.766941   -4.783893    0.158899
  22 H     1.0000    0     1.008   -3.785186   -4.605138    1.975686
  23 H     1.0000    0     1.008   -4.280488   -4.755826   -1.282801
  24 C     6.0000    0    12.011   -1.418470   -7.342079    0.069704
  25 H     1.0000    0     1.008   -0.433631   -7.563214   -1.759686
  26 H     1.0000    0     1.008    0.062738   -7.416172    1.541450
  27 C     6.0000    0    12.011   -3.234000   -9.570882    0.439229
  28 H     1.0000    0     1.008   -4.229225   -9.350895    2.263388
  29 H     1.0000    0     1.008   -4.716075   -9.498440   -1.031882
  30 C     6.0000    0    12.011   -1.913814  -12.143574    0.358254
  31 H     1.0000    0     1.008   -0.466565  -12.299870    1.852010
  32 H     1.0000    0     1.008   -0.956128  -12.445860   -1.470022
  33 C     6.0000    0    12.011   -7.231274    0.471453    0.646348
  34 H     1.0000    0     1.008   -9.220504    0.682977    0.969853
  35 H     1.0000    0     1.008   11.251769   -0.427335    2.471093
  36 H     1.0000    0     1.008   -3.266081  -13.704845    0.626186

--------------------------------
INTERNAL COORDINATES (ANGSTROEM)
--------------------------------
 C      0   0   0     0.000000000000     0.00000000     0.00000000
 C      1   0   0     4.272779435977     0.00000000     0.00000000
 C      2   1   0     1.438665364702    60.25611533     0.00000000
 C      3   2   1     1.425909955027   117.27985933     0.03056544
 C      4   3   2     1.394617996884   122.59142877     0.00000000
 C      5   4   3     1.426618075074   119.98942380   359.80738789
 C      2   1   3     1.396552108681    58.69928977   180.20089569
 H      4   3   2     1.092290782554   118.69476616   180.07450551
 H      7   2   1     1.092009065491   117.48005890   179.77496584
 C      3   2   1     1.409415733623   123.34163715   180.34056982
 H     10   3   2     1.088942817265   122.40656763     0.31108613
 H     10   3   2     1.091459767040   120.08473860   179.78721641
 C      2   1   3     1.512150120827   177.66932669   143.65206630
 H     13   2   7     1.103644831562   108.87542942    23.48041639
 H     13   2   7     1.104057719813   110.28123973   139.41768004
 C     13   2   7     1.543320706672   113.73569286   262.26377449
 H     16  13   2     1.104030754152   109.30558255   302.18129664
 H     16  13   2     1.104671644864   108.76417815    57.47544640
 C     16  13   2     1.530256370807   112.73280384   179.63630008
 H     19  16  13     1.103875839750   111.36717896    60.34862434
 H     19  16  13     1.103899331665   111.34143478   300.59408759
 C      6   5   4     1.514343105447   119.62648733   180.48504428
 H     22   6   5     1.106156347871   108.20573503   304.09262205
 H     22   6   5     1.106235176143   108.14286371    56.41421033
 C     22   6   5     1.531019144681   117.11695442   180.17068255
 H     25  22   6     1.105648136158   109.89308124   301.94491832
 H     25  22   6     1.105651246714   109.88026936    58.44334784
 C     25  22   6     1.533725208941   112.58561711   180.24750891
 H     28  25  22     1.105767807906   109.18900891   302.47583204
 H     28  25  22     1.105709478380   109.14051315    57.74857142
 C     28  25  22     1.530794590614   113.23248136   180.07138713
 H     31  28  25     1.103719938677   111.30088794    59.92707409
 H     31  28  25     1.103830607285   111.28105466   300.22757938
 C      1   2   3     1.215792146495   179.01985546   351.11928114
 H     34   1   5     1.072342109159   179.57594182     0.77152932
 H     19  16  13     1.102247628085   111.37006533   180.48184891
 H     31  28  25     1.102161137344   111.51578224   180.08412230

---------------------------
INTERNAL COORDINATES (A.U.)
---------------------------
 C      0   0   0     0.000000000000     0.00000000     0.00000000
 C      1   0   0     8.074382964647     0.00000000     0.00000000
 C      2   1   0     2.718683537644    60.25611533     0.00000000
 C      3   2   1     2.694579306633   117.27985933     0.03056544
 C      4   3   2     2.635446075549   122.59142877     0.00000000
 C      5   4   3     2.695917459592   119.98942380   359.80738789
 C      2   1   3     2.639101017158    58.69928977   180.20089569
 H      4   3   2     2.064130437634   118.69476616   180.07450551
 H      7   2   1     2.063598069537   117.48005890   179.77496584
 C      3   2   1     2.663409745388   123.34163715   180.34056982
 H     10   3   2     2.057803700132   122.40656763     0.31108613
 H     10   3   2     2.062560045900   120.08473860   179.78721641
 C      2   1   3     2.857549601739   177.66932669   143.65206630
 H     13   2   7     2.085586480770   108.87542942    23.48041639
 H     13   2   7     2.086366726488   110.28123973   139.41768004
 C     13   2   7     2.916453472420   113.73569286   262.26377449
 H     16  13   2     2.086315768774   109.30558255   302.18129664
 H     16  13   2     2.087526876701   108.76417815    57.47544640
 C     16  13   2     2.891765455514   112.73280384   179.63630008
 H     19  16  13     2.086023022980   111.36717896    60.34862434
 H     19  16  13     2.086067416266   111.34143478   300.59408759
 C      6   5   4     2.861693742086   119.62648733   180.48504428
 H     22   6   5     2.090332558774   108.20573503   304.09262205
 H     22   6   5     2.090481522620   108.14286371    56.41421033
 C     22   6   5     2.893206889237   117.11695442   180.17068255
 H     25  22   6     2.089372177819   109.89308124   301.94491832
 H     25  22   6     2.089378055919   109.88026936    58.44334784
 C     25  22   6     2.898320609589   112.58561711   180.24750891
 H     28  25  22     2.089598324648   109.18900891   302.47583204
 H     28  25  22     2.089488097819   109.14051315    57.74857142
 C     28  25  22     2.892782543549   113.23248136   180.07138713
 H     31  28  25     2.085728412647   111.30088794    59.92707409
 H     31  28  25     2.085937546008   111.28105466   300.22757938
 C      1   2   3     2.297514192648   179.01985546   351.11928114
 H     34   1   5     2.026432908181   179.57594182     0.77152932
 H     19  16  13     2.082946148845   111.37006533   180.48184891
 H     31  28  25     2.082782705032   111.51578224   180.08412230

---------------------
BASIS SET INFORMATION
---------------------
There are 2 groups of distinct atoms

 Group   1 Type C   : 17s4p1d contracted to 3s2p1d pattern {881/31/1}
 Group   2 Type H   : 4s1p contracted to 2s1p pattern {31/1}

Atom   0C    basis set group =>   1
Atom   1C    basis set group =>   1
Atom   2C    basis set group =>   1
Atom   3C    basis set group =>   1
Atom   4C    basis set group =>   1
Atom   5C    basis set group =>   1
Atom   6C    basis set group =>   1
Atom   7H    basis set group =>   2
Atom   8H    basis set group =>   2
Atom   9C    basis set group =>   1
Atom  10H    basis set group =>   2
Atom  11H    basis set group =>   2
Atom  12C    basis set group =>   1
Atom  13H    basis set group =>   2
Atom  14H    basis set group =>   2
Atom  15C    basis set group =>   1
Atom  16H    basis set group =>   2
Atom  17H    basis set group =>   2
Atom  18C    basis set group =>   1
Atom  19H    basis set group =>   2
Atom  20H    basis set group =>   2
Atom  21C    basis set group =>   1
Atom  22H    basis set group =>   2
Atom  23H    basis set group =>   2
Atom  24C    basis set group =>   1
Atom  25H    basis set group =>   2
Atom  26H    basis set group =>   2
Atom  27C    basis set group =>   1
Atom  28H    basis set group =>   2
Atom  29H    basis set group =>   2
Atom  30C    basis set group =>   1
Atom  31H    basis set group =>   2
Atom  32H    basis set group =>   2
Atom  33C    basis set group =>   1
Atom  34H    basis set group =>   2
Atom  35H    basis set group =>   2
Atom  36H    basis set group =>   2
---------------------------------
AUXILIARY/J BASIS SET INFORMATION
---------------------------------
There are 2 groups of distinct atoms

 Group   1 Type C   : 12s5p4d2f1g contracted to 6s4p3d1f1g pattern {711111/2111/211/2/1}
 Group   2 Type H   : 5s2p1d contracted to 3s1p1d pattern {311/2/1}

Atom   0C    basis set group =>   1
Atom   1C    basis set group =>   1
Atom   2C    basis set group =>   1
Atom   3C    basis set group =>   1
Atom   4C    basis set group =>   1
Atom   5C    basis set group =>   1
Atom   6C    basis set group =>   1
Atom   7H    basis set group =>   2
Atom   8H    basis set group =>   2
Atom   9C    basis set group =>   1
Atom  10H    basis set group =>   2
Atom  11H    basis set group =>   2
Atom  12C    basis set group =>   1
Atom  13H    basis set group =>   2
Atom  14H    basis set group =>   2
Atom  15C    basis set group =>   1
Atom  16H    basis set group =>   2
Atom  17H    basis set group =>   2
Atom  18C    basis set group =>   1
Atom  19H    basis set group =>   2
Atom  20H    basis set group =>   2
Atom  21C    basis set group =>   1
Atom  22H    basis set group =>   2
Atom  23H    basis set group =>   2
Atom  24C    basis set group =>   1
Atom  25H    basis set group =>   2
Atom  26H    basis set group =>   2
Atom  27C    basis set group =>   1
Atom  28H    basis set group =>   2
Atom  29H    basis set group =>   2
Atom  30C    basis set group =>   1
Atom  31H    basis set group =>   2
Atom  32H    basis set group =>   2
Atom  33C    basis set group =>   1
Atom  34H    basis set group =>   2
Atom  35H    basis set group =>   2
Atom  36H    basis set group =>   2


           ************************************************************
           *        Program running with 16 parallel MPI-processes    *
           *              working on a common directory               *
           ************************************************************
------------------------------------------------------------------------------
                           ORCA GTO INTEGRAL CALCULATION
                           -- RI-GTO INTEGRALS CHOSEN --
------------------------------------------------------------------------------
------------------------------------------------------------------------------
                   ___                                                        
                  /   \      - P O W E R E D   B Y -                         
                 /     \                                                     
                 |  |  |   _    _      __       _____    __    __             
                 |  |  |  | |  | |    /  \     |  _  \  |  |  /  |          
                  \  \/   | |  | |   /    \    | | | |  |  | /  /          
                 / \  \   | |__| |  /  /\  \   | |_| |  |  |/  /          
                |  |  |   |  __  | /  /__\  \  |    /   |      \           
                |  |  |   | |  | | |   __   |  |    \   |  |\   \          
                \     /   | |  | | |  |  |  |  | |\  \  |  | \   \       
                 \___/    |_|  |_| |__|  |__|  |_| \__\ |__|  \__/        
                                                                              
                      - O R C A' S   B I G   F R I E N D -                    
                                      &                                       
                       - I N T E G R A L  F E E D E R -                       
                                                                              
 v1 FN, 2020, v2 2021                                                         
------------------------------------------------------------------------------


Reading SHARK input file opt_cc-pVDZ.SHARKINP.tmp ... ok
----------------------
SHARK INTEGRAL PACKAGE
----------------------

Number of atoms                             ...     37
Number of basis functions                   ...    425
Number of shells                            ...    255
Maximum angular momentum                    ...      2
Integral batch strategy                     ... SHARK/LIBINT Hybrid
RI-J (if used) integral strategy            ... SPLIT-RIJ (Revised 2003 algorithm where possible)
Printlevel                                  ...      1
Contraction scheme used                     ... PARTIAL GENERAL contraction
Coulomb Range Separation                    ... NOT USED
Exchange Range Separation                   ... NOT USED
Finite Nucleus Model                        ... NOT USED
Auxiliary Coulomb fitting basis             ... AVAILABLE
   # of basis functions in Aux-J            ...   1015
   # of shells in Aux-J                     ...    345
   Maximum angular momentum in Aux-J        ...      4
Auxiliary J/K fitting basis                 ... NOT available
Auxiliary Correlation fitting basis         ... NOT available
Auxiliary 'external' fitting basis          ... NOT available
Integral threshold                          ...     2.500000e-11
Primitive cut-off                           ...     2.500000e-12
Primitive pair pre-selection threshold      ...     2.500000e-12

Calculating pre-screening integrals         ... done (  0.0 sec) Dimension = 255
Calculating pre-screening integrals (ORCA)  ... done (  0.1 sec) Dimension = 159
Organizing shell pair data                  ... done (  0.1 sec)
Shell pair information
Total number of shell pairs                 ...     32640
Shell pairs after pre-screening             ...     17918
Total number of primitive shell pairs       ...     54396
Primitive shell pairs kept                  ...     25069
          la=0 lb=0:   8058 shell pairs
          la=1 lb=0:   6209 shell pairs
          la=1 lb=1:   1079 shell pairs
          la=2 lb=0:   1840 shell pairs
          la=2 lb=1:    627 shell pairs
          la=2 lb=2:    105 shell pairs

Calculating one electron integrals          ... done (  0.0 sec)
Calculating RI/J V-Matrix + Cholesky decomp.... done (  0.3 sec)
Calculating Nuclear repulsion               ... done (  0.0 sec) ENN=   1004.377141573651 Eh

SHARK setup successfully completed in   1.0 seconds

Maximum memory used throughout the entire GTOINT-calculation: 26.8 MB


           ************************************************************
           *        Program running with 16 parallel MPI-processes    *
           *              working on a common directory               *
           ************************************************************
-------------------------------------------------------------------------------
                                 ORCA SCF
-------------------------------------------------------------------------------

------------
SCF SETTINGS
------------
Hamiltonian:
 Density Functional     Method          .... DFT(GTOs)
 Exchange Functional    Exchange        .... B88
   X-Alpha parameter    XAlpha          ....  0.666667
   Becke's b parameter  XBeta           ....  0.004200
 Correlation Functional Correlation     .... LYP
 LDA part of GGA corr.  LDAOpt          .... VWN-5
 Gradients option       PostSCFGGA      .... off
 Hybrid DFT is turned on
   Fraction HF Exchange ScalHFX         ....  0.200000
   Scaling of DF-GGA-X  ScalDFX         ....  0.720000
   Scaling of DF-GGA-C  ScalDFC         ....  0.810000
   Scaling of DF-LDA-C  ScalLDAC        ....  1.000000
   Perturbative correction              ....  0.000000
   Density functional embedding theory  .... OFF
   NL short-range parameter             ....  4.800000
 RI-approximation to the Coulomb term is turned on
   Number of AuxJ basis functions       .... 1015
   RIJ-COSX (HFX calculated with COS-X)).... on


General Settings:
 Integral files         IntName         .... opt_cc-pVDZ
 Hartree-Fock type      HFTyp           .... UHF
 Total Charge           Charge          ....    0
 Multiplicity           Mult            ....    2
 Number of Electrons    NEL             ....  117
 Basis Dimension        Dim             ....  329
 Nuclear Repulsion      ENuc            ....   1004.3771415737 Eh

Convergence Acceleration:
 DIIS                   CNVDIIS         .... on
   Start iteration      DIISMaxIt       ....    12
   Startup error        DIISStart       ....  0.200000
   # of expansion vecs  DIISMaxEq       ....     5
   Bias factor          DIISBfac        ....   1.050
   Max. coefficient     DIISMaxC        ....  10.000
 Trust-Rad. Augm. Hess. CNVTRAH         .... auto
   Auto Start mean grad. ratio tolernc. ....  1.125000
   Auto Start start iteration           ....    20
   Auto Start num. interpolation iter.  ....    10
   Max. Number of Micro iterations      ....    16
   Max. Number of Macro iterations      .... Maxiter - #DIIS iter
   Number of Davidson start vectors     ....     2
   Converg. threshold I  (grad. norm)   ....   1.000e-05
   Converg. threshold II (energy diff.) ....   1.000e-08
   Grad. Scal. Fac. for Micro threshold ....   0.100
   Minimum threshold for Micro iter.    ....   0.010
   NR start threshold (gradient norm)   ....   0.001
   Initial trust radius                 ....   0.400
   Minimum AH scaling param. (alpha)    ....   1.000
   Maximum AH scaling param. (alpha)    .... 1000.000
   Orbital update algorithm             .... Taylor
   White noise on init. David. guess    .... on
   Maximum white noise                  ....   0.010
   Quad. conv. algorithm                .... NR
 SOSCF                  CNVSOSCF        .... off
 Level Shifting         CNVShift        .... on
   Level shift para.    LevelShift      ....    0.2500
   Turn off err/grad.   ShiftErr        ....    0.0010
 Zerner damping         CNVZerner       .... off
 Static damping         CNVDamp         .... on
   Fraction old density DampFac         ....    0.7000
   Max. Damping (<1)    DampMax         ....    0.9800
   Min. Damping (>=0)   DampMin         ....    0.0000
   Turn off err/grad.   DampErr         ....    0.1000
 Fernandez-Rico         CNVRico         .... off

SCF Procedure:
 Maximum # iterations   MaxIter         ....   125
 SCF integral mode      SCFMode         .... Direct
   Integral package                     .... SHARK and LIBINT hybrid scheme
 Reset frequency        DirectResetFreq ....    20
 Integral Threshold     Thresh          ....  2.500e-11 Eh
 Primitive CutOff       TCut            ....  2.500e-12 Eh

Convergence Tolerance:
 Convergence Check Mode ConvCheckMode   .... Total+1el-Energy
 Convergence forced     ConvForced      .... 0
 Energy Change          TolE            ....  1.000e-08 Eh
 1-El. energy change                    ....  1.000e-05 Eh
 DIIS Error             TolErr          ....  5.000e-07


Diagonalization of the overlap matrix:
Smallest eigenvalue                        ... 1.518e-04
Time for diagonalization                   ...    0.023 sec
Threshold for overlap eigenvalues          ... 1.000e-08
Number of eigenvalues below threshold      ... 0
Time for construction of square roots      ...    0.029 sec
Total time needed                          ...    0.053 sec

Time for model grid setup =    0.222 sec

------------------------------
INITIAL GUESS: MODEL POTENTIAL
------------------------------
Loading Hartree-Fock densities                     ... done
Calculating cut-offs                               ... done
Initializing the effective Hamiltonian             ... done
Setting up the integral package (SHARK)            ... done
Starting the Coulomb interaction                   ... done (   0.2 sec)
Reading the grid                                   ... done
Mapping shells                                     ... done
Starting the XC term evaluation                    ... done (   0.1 sec)
  promolecular density results
     # of electrons  =    116.995810951
     EX              =    -88.401887123
     EC              =     -3.814424237
     EX+EC           =    -92.216311360
Transforming the Hamiltonian                       ... done (   0.0 sec)
Diagonalizing the Hamiltonian                      ... done (   0.0 sec)
Back transforming the eigenvectors                 ... done (   0.0 sec)
Now organizing SCF variables                       ... done
                      ------------------
                      INITIAL GUESS DONE (   0.7 sec)
                      ------------------
-------------------
DFT GRID GENERATION
-------------------

General Integration Accuracy     IntAcc      ... 4.388
Radial Grid Type                 RadialGrid  ... OptM3 with GC (2021)
Angular Grid (max. ang.)         AngularGrid ... 4 (Lebedev-302)
Angular grid pruning method      GridPruning ... 4 (adaptive)
Weight generation scheme         WeightScheme... Becke
Basis function cutoff            BFCut       ... 1.0000e-11
Integration weight cutoff        WCut        ... 1.0000e-14
Angular grids for H and He will be reduced by one unit
Partially contracted basis set               ... off
Rotationally invariant grid construction     ... off

Total number of grid points                  ...   162627
Total number of batches                      ...     2559
Average number of points per batch           ...       63
Average number of grid points per atom       ...     4395
Time for grid setup =    0.884 sec

--------------------
COSX GRID GENERATION
--------------------

GRIDX 1
-------
General Integration Accuracy     IntAcc      ... 3.816
Radial Grid Type                 RadialGrid  ... OptM3 with GC (2021)
Angular Grid (max. ang.)         AngularGrid ... 1 (Lebedev-50)
Angular grid pruning method      GridPruning ... 4 (adaptive)
Weight generation scheme         WeightScheme... Becke
Basis function cutoff            BFCut       ... 1.0000e-11
Integration weight cutoff        WCut        ... 1.0000e-14
Angular grids for H and He will be reduced by one unit
Partially contracted basis set               ... on
Rotationally invariant grid construction     ... off

Total number of grid points                  ...    20774
Total number of batches                      ...      346
Average number of points per batch           ...       60
Average number of grid points per atom       ...      561
UseSFitting                                  ... on

GRIDX 2
-------
General Integration Accuracy     IntAcc      ... 4.020
Radial Grid Type                 RadialGrid  ... OptM3 with GC (2021)
Angular Grid (max. ang.)         AngularGrid ... 2 (Lebedev-110)
Angular grid pruning method      GridPruning ... 4 (adaptive)
Weight generation scheme         WeightScheme... Becke
Basis function cutoff            BFCut       ... 1.0000e-11
Integration weight cutoff        WCut        ... 1.0000e-14
Angular grids for H and He will be reduced by one unit
Partially contracted basis set               ... on
Rotationally invariant grid construction     ... off

Total number of grid points                  ...    43752
Total number of batches                      ...      701
Average number of points per batch           ...       62
Average number of grid points per atom       ...     1182
UseSFitting                                  ... on

GRIDX 3
-------
General Integration Accuracy     IntAcc      ... 4.338
Radial Grid Type                 RadialGrid  ... OptM3 with GC (2021)
Angular Grid (max. ang.)         AngularGrid ... 3 (Lebedev-194)
Angular grid pruning method      GridPruning ... 4 (adaptive)
Weight generation scheme         WeightScheme... Becke
Basis function cutoff            BFCut       ... 1.0000e-11
Integration weight cutoff        WCut        ... 1.0000e-14
Angular grids for H and He will be reduced by one unit
Partially contracted basis set               ... on
Rotationally invariant grid construction     ... off

Total number of grid points                  ...    95333
Total number of batches                      ...     1508
Average number of points per batch           ...       63
Average number of grid points per atom       ...     2577
UseSFitting                                  ... on

Time for X-Grid setup             =    1.754 sec

 re-compute Schwartz prescreening matrix in partically contracted basis (1) ...done (   0.097 sec)
--------------
SCF ITERATIONS
--------------
ITER       Energy         Delta-E        Max-DP      RMS-DP      [F,P]     Damp
               ***  Starting incremental Fock matrix formation  ***
  0   -621.4418036534   0.000000000000 0.06246533  0.00092724  0.0869290 0.7000
  1   -621.6267478066  -0.184944153181 0.04592156  0.00068251  0.0457930 0.7000
                               ***Turning on DIIS***
  2   -621.7089907499  -0.082242943327 0.09062873  0.00129746  0.0180486 0.0000
  3   -621.8238845041  -0.114893754175 0.01791706  0.00036743  0.0249171 0.0000
  4   -621.8554276590  -0.031543154924 0.00842613  0.00012911  0.0071900 0.0000
  5   -621.8574341112  -0.002006452219 0.00408956  0.00004721  0.0032617 0.0000
  6   -621.8577482438  -0.000314132560 0.00296477  0.00002753  0.0020331 0.0000
  7   -621.8578692965  -0.000121052676 0.00200709  0.00001894  0.0014072 0.0000
  8   -621.8579274147  -0.000058118239 0.00225986  0.00002895  0.0008184 0.0000
               *** Restarting incremental Fock matrix formation ***
                                   *** Resetting DIIS ***
  9   -621.8579841423  -0.000056727558 0.00096376  0.00001074  0.0004262 0.0000
 10   -621.8579849902  -0.000000847954 0.00042835  0.00000536  0.0006734 0.0000
 11   -621.8579896992  -0.000004708944 0.00037948  0.00000328  0.0002784 0.0000
 12   -621.8579906950  -0.000000995823 0.00036284  0.00000325  0.0002399 0.0000
 13   -621.8579913615  -0.000000666466 0.00017361  0.00000178  0.0001462 0.0000
 14   -621.8579915931  -0.000000231641 0.00010090  0.00000108  0.0000465 0.0000
 15   -621.8579916629  -0.000000069837 0.00002597  0.00000034  0.0000130 0.0000
 16   -621.8579916682  -0.000000005270 0.00001709  0.00000022  0.0000093 0.0000
 17   -621.8579916742  -0.000000005988 0.00001045  0.00000011  0.0000046 0.0000
 18   -621.8579916766  -0.000000002383 0.00000708  0.00000007  0.0000031 0.0000
 19   -621.8579916918  -0.000000015192 0.00000469  0.00000004  0.0000025 0.0000
 20   -621.8579916888   0.000000003010 0.00000219  0.00000002  0.0000027 0.0000
 21   -621.8579916785   0.000000010235 0.00000172  0.00000002  0.0000012 0.0000
                            ***DIIS convergence achieved***

               *****************************************************
               *                     SUCCESS                       *
               *           SCF CONVERGED AFTER  22 CYCLES          *
               *****************************************************

Old exchange energy                            =    -18.068881826 Eh
New exchange energy                            =    -18.068869348 Eh
Exchange energy change after final integration =      0.000012478 Eh
Total energy after final integration           =   -621.857979196 Eh
Final COS-X integration done in                =     4.368 sec

----------------
TOTAL SCF ENERGY
----------------

Total Energy       :         -621.85797920 Eh          -16921.61589 eV

Components:
Nuclear Repulsion  :         1004.37714157 Eh           27330.49148 eV
Electronic Energy  :        -1626.23512077 Eh          -44252.10737 eV
One Electron Energy:        -2830.87029589 Eh          -77031.89698 eV
Two Electron Energy:         1204.63517512 Eh           32779.78961 eV
Max COSX asymmetry :            0.00000054 Eh               0.00001 eV

Virial components:
Potential Energy   :        -1239.23389237 Eh          -33721.26857 eV
Kinetic Energy     :          617.37591317 Eh           16799.65268 eV
Virial Ratio       :            2.00725987


DFT components:
N(Alpha)           :       59.000019399646 electrons
N(Beta)            :       58.000014013295 electrons
N(Total)           :      117.000033412941 electrons
E(X)               :      -71.620785724795 Eh       
E(C)               :       -4.508338754797 Eh       
E(XC)              :      -76.129124479592 Eh       
DFET-embed. en.    :        0.000000000000 Eh       

---------------
SCF CONVERGENCE
---------------

  Last Energy change         ...    3.9716e-09  Tolerance :   1.0000e-08
  Last MAX-Density change    ...    0.0000e+00  Tolerance :   1.0000e-07
  Last RMS-Density change    ...    0.0000e+00  Tolerance :   5.0000e-09
  Last DIIS Error            ...    6.0841e-07  Tolerance :   5.0000e-07

             **** THE GBW FILE WAS UPDATED (opt_cc-pVDZ.gbw) ****
             **** DENSITY opt_cc-pVDZ.scfp WAS UPDATED ****
             **** ENERGY FILE WAS UPDATED (opt_cc-pVDZ.en.tmp) ****
----------------------
UHF SPIN CONTAMINATION
----------------------

Warning: in a DFT calculation there is little theoretical justification to 
         calculate <S**2> as in Hartree-Fock theory. We will do it anyways
         but you should keep in mind that the values have only limited relevance

Expectation value of <S**2>     :     0.785767
Ideal value S*(S+1) for S=0.5   :     0.750000
Deviation                       :     0.035767

             **** THE GBW FILE WAS UPDATED (opt_cc-pVDZ.gbw) ****
             **** DENSITY opt_cc-pVDZ.scfp WAS UPDATED ****
----------------
ORBITAL ENERGIES
----------------
                 SPIN UP ORBITALS
  NO   OCC          E(Eh)            E(eV) 
   0   1.0000     -10.206365      -277.7293 
   1   1.0000     -10.201069      -277.5852 
   2   1.0000     -10.197166      -277.4790 
   3   1.0000     -10.195334      -277.4291 
   4   1.0000     -10.192892      -277.3627 
   5   1.0000     -10.189974      -277.2833 
   6   1.0000     -10.188491      -277.2429 
   7   1.0000     -10.186236      -277.1816 
   8   1.0000     -10.185443      -277.1600 
   9   1.0000     -10.184196      -277.1261 
  10   1.0000     -10.182716      -277.0858 
  11   1.0000     -10.182386      -277.0768 
  12   1.0000     -10.181701      -277.0582 
  13   1.0000     -10.181515      -277.0531 
  14   1.0000     -10.177802      -276.9521 
  15   1.0000     -10.175906      -276.9005 
  16   1.0000      -0.869094       -23.6493 
  17   1.0000      -0.814419       -22.1615 
  18   1.0000      -0.797034       -21.6884 
  19   1.0000      -0.776521       -21.1302 
  20   1.0000      -0.764104       -20.7923 
  21   1.0000      -0.731956       -19.9175 
  22   1.0000      -0.723694       -19.6927 
  23   1.0000      -0.684533       -18.6271 
  24   1.0000      -0.669486       -18.2176 
  25   1.0000      -0.624258       -16.9869 
  26   1.0000      -0.611208       -16.6318 
  27   1.0000      -0.591187       -16.0870 
  28   1.0000      -0.576245       -15.6804 
  29   1.0000      -0.564740       -15.3673 
  30   1.0000      -0.524708       -14.2780 
  31   1.0000      -0.492856       -13.4113 
  32   1.0000      -0.489563       -13.3217 
  33   1.0000      -0.470231       -12.7956 
  34   1.0000      -0.457462       -12.4482 
  35   1.0000      -0.447709       -12.1828 
  36   1.0000      -0.427974       -11.6458 
  37   1.0000      -0.421699       -11.4750 
  38   1.0000      -0.421055       -11.4575 
  39   1.0000      -0.418220       -11.3803 
  40   1.0000      -0.411337       -11.1931 
  41   1.0000      -0.399754       -10.8779 
  42   1.0000      -0.387028       -10.5316 
  43   1.0000      -0.379790       -10.3346 
  44   1.0000      -0.374490       -10.1904 
  45   1.0000      -0.367099        -9.9893 
  46   1.0000      -0.351882        -9.5752 
  47   1.0000      -0.350834        -9.5467 
  48   1.0000      -0.339311        -9.2331 
  49   1.0000      -0.335093        -9.1183 
  50   1.0000      -0.328375        -8.9355 
  51   1.0000      -0.323375        -8.7995 
  52   1.0000      -0.322507        -8.7759 
  53   1.0000      -0.321116        -8.7380 
  54   1.0000      -0.305907        -8.3242 
  55   1.0000      -0.275872        -7.5069 
  56   1.0000      -0.272007        -7.4017 
  57   1.0000      -0.233072        -6.3422 
  58   1.0000      -0.177599        -4.8327 
  59   0.0000      -0.030421        -0.8278 
  60   0.0000       0.011701         0.3184 
  61   0.0000       0.047290         1.2868 
  62   0.0000       0.058628         1.5953 
  63   0.0000       0.063066         1.7161 
  64   0.0000       0.078449         2.1347 
  65   0.0000       0.085753         2.3334 
  66   0.0000       0.087860         2.3908 
  67   0.0000       0.088879         2.4185 
  68   0.0000       0.094307         2.5662 
  69   0.0000       0.099230         2.7002 
  70   0.0000       0.102123         2.7789 
  71   0.0000       0.108255         2.9458 
  72   0.0000       0.116946         3.1822 
  73   0.0000       0.132954         3.6179 
  74   0.0000       0.141165         3.8413 
  75   0.0000       0.144564         3.9338 
  76   0.0000       0.147851         4.0232 
  77   0.0000       0.149933         4.0799 
  78   0.0000       0.152627         4.1532 
  79   0.0000       0.161120         4.3843 
  80   0.0000       0.164247         4.4694 
  81   0.0000       0.166018         4.5176 
  82   0.0000       0.175243         4.7686 
  83   0.0000       0.185865         5.0576 
  84   0.0000       0.190262         5.1773 
  85   0.0000       0.211383         5.7520 
  86   0.0000       0.214737         5.8433 
  87   0.0000       0.230188         6.2637 
  88   0.0000       0.238552         6.4913 
  89   0.0000       0.247534         6.7357 
  90   0.0000       0.250379         6.8132 
  91   0.0000       0.260916         7.0999 
  92   0.0000       0.268453         7.3050 
  93   0.0000       0.297666         8.0999 
  94   0.0000       0.330796         9.0014 
  95   0.0000       0.331752         9.0274 
  96   0.0000       0.348681         9.4881 
  97   0.0000       0.358514         9.7557 
  98   0.0000       0.368796        10.0355 
  99   0.0000       0.406315        11.0564 
 100   0.0000       0.409362        11.1393 
 101   0.0000       0.412336        11.2202 
 102   0.0000       0.415922        11.3178 
 103   0.0000       0.419510        11.4154 
 104   0.0000       0.427628        11.6364 
 105   0.0000       0.437806        11.9133 
 106   0.0000       0.452751        12.3200 
 107   0.0000       0.458812        12.4849 
 108   0.0000       0.465656        12.6712 
 109   0.0000       0.473453        12.8833 
 110   0.0000       0.476814        12.9748 
 111   0.0000       0.484540        13.1850 
 112   0.0000       0.491254        13.3677 
 113   0.0000       0.501652        13.6506 
 114   0.0000       0.505607        13.7583 
 115   0.0000       0.514098        13.9893 
 116   0.0000       0.517350        14.0778 
 117   0.0000       0.534130        14.5344 
 118   0.0000       0.536713        14.6047 
 119   0.0000       0.545065        14.8320 
 120   0.0000       0.552637        15.0380 
 121   0.0000       0.564982        15.3739 
 122   0.0000       0.569609        15.4999 
 123   0.0000       0.580416        15.7939 
 124   0.0000       0.599562        16.3149 
 125   0.0000       0.607193        16.5225 
 126   0.0000       0.612577        16.6691 
 127   0.0000       0.615799        16.7567 
 128   0.0000       0.616891        16.7865 
 129   0.0000       0.627152        17.0657 
 130   0.0000       0.635022        17.2798 
 131   0.0000       0.637944        17.3593 
 132   0.0000       0.641819        17.4648 
 133   0.0000       0.643804        17.5188 
 134   0.0000       0.645312        17.5598 
 135   0.0000       0.651000        17.7146 
 136   0.0000       0.657377        17.8881 
 137   0.0000       0.658103        17.9079 
 138   0.0000       0.661941        18.0123 
 139   0.0000       0.664128        18.0719 
 140   0.0000       0.671903        18.2834 
 141   0.0000       0.679883        18.5006 
 142   0.0000       0.682118        18.5614 
 143   0.0000       0.686256        18.6740 
 144   0.0000       0.695057        18.9135 
 145   0.0000       0.699616        19.0375 
 146   0.0000       0.703653        19.1474 
 147   0.0000       0.708488        19.2789 
 148   0.0000       0.711925        19.3725 
 149   0.0000       0.714884        19.4530 
 150   0.0000       0.729395        19.8479 
 151   0.0000       0.733302        19.9542 
 152   0.0000       0.743190        20.2232 
 153   0.0000       0.748498        20.3677 
 154   0.0000       0.760611        20.6973 
 155   0.0000       0.772932        21.0325 
 156   0.0000       0.796632        21.6775 
 157   0.0000       0.799492        21.7553 
 158   0.0000       0.818101        22.2617 
 159   0.0000       0.833208        22.6727 
 160   0.0000       0.836374        22.7589 
 161   0.0000       0.837911        22.8007 
 162   0.0000       0.844904        22.9910 
 163   0.0000       0.872640        23.7458 
 164   0.0000       0.891853        24.2686 
 165   0.0000       0.903153        24.5760 
 166   0.0000       0.913265        24.8512 
 167   0.0000       0.935448        25.4548 
 168   0.0000       0.956613        26.0308 
 169   0.0000       0.963262        26.2117 
 170   0.0000       0.980013        26.6675 
 171   0.0000       0.987391        26.8683 
 172   0.0000       1.002387        27.2763 
 173   0.0000       1.012847        27.5610 
 174   0.0000       1.022569        27.8255 
 175   0.0000       1.034539        28.1512 
 176   0.0000       1.045464        28.4485 
 177   0.0000       1.064171        28.9576 
 178   0.0000       1.069998        29.1161 
 179   0.0000       1.081042        29.4167 
 180   0.0000       1.083461        29.4825 
 181   0.0000       1.106289        30.1037 
 182   0.0000       1.124176        30.5904 
 183   0.0000       1.147606        31.2279 
 184   0.0000       1.160810        31.5872 
 185   0.0000       1.180737        32.1295 
 186   0.0000       1.188799        32.3489 
 187   0.0000       1.193516        32.4772 
 188   0.0000       1.204781        32.7838 
 189   0.0000       1.215566        33.0772 
 190   0.0000       1.220169        33.2025 
 191   0.0000       1.223653        33.2973 
 192   0.0000       1.247069        33.9345 
 193   0.0000       1.252209        34.0744 
 194   0.0000       1.291852        35.1531 
 195   0.0000       1.301898        35.4264 
 196   0.0000       1.323050        36.0020 
 197   0.0000       1.332238        36.2520 
 198   0.0000       1.338761        36.4295 
 199   0.0000       1.344491        36.5855 
 200   0.0000       1.371330        37.3158 
 201   0.0000       1.392278        37.8858 
 202   0.0000       1.396445        37.9992 
 203   0.0000       1.412264        38.4296 
 204   0.0000       1.416285        38.5391 
 205   0.0000       1.425270        38.7836 
 206   0.0000       1.426252        38.8103 
 207   0.0000       1.431882        38.9635 
 208   0.0000       1.438363        39.1398 
 209   0.0000       1.448077        39.4042 
 210   0.0000       1.460091        39.7311 
 211   0.0000       1.463058        39.8118 
 212   0.0000       1.470887        40.0249 
 213   0.0000       1.488013        40.4909 
 214   0.0000       1.498229        40.7689 
 215   0.0000       1.521650        41.4062 
 216   0.0000       1.534643        41.7598 
 217   0.0000       1.542503        41.9736 
 218   0.0000       1.552105        42.2349 
 219   0.0000       1.563311        42.5399 
 220   0.0000       1.578548        42.9545 
 221   0.0000       1.600768        43.5591 
 222   0.0000       1.601444        43.5775 
 223   0.0000       1.606480        43.7146 
 224   0.0000       1.611013        43.8379 
 225   0.0000       1.622561        44.1521 
 226   0.0000       1.624988        44.2182 
 227   0.0000       1.630265        44.3618 
 228   0.0000       1.631693        44.4006 
 229   0.0000       1.635880        44.5145 
 230   0.0000       1.636804        44.5397 
 231   0.0000       1.645524        44.7770 
 232   0.0000       1.653973        45.0069 
 233   0.0000       1.657836        45.1120 
 234   0.0000       1.667071        45.3633 
 235   0.0000       1.674065        45.5536 
 236   0.0000       1.682357        45.7793 
 237   0.0000       1.687641        45.9231 
 238   0.0000       1.691139        46.0182 
 239   0.0000       1.696224        46.1566 
 240   0.0000       1.703331        46.3500 
 241   0.0000       1.705134        46.3991 
 242   0.0000       1.709068        46.5061 
 243   0.0000       1.717037        46.7230 
 244   0.0000       1.722116        46.8611 
 245   0.0000       1.731585        47.1188 
 246   0.0000       1.741909        47.3997 
 247   0.0000       1.745209        47.4896 
 248   0.0000       1.754810        47.7508 
 249   0.0000       1.765854        48.0513 
 250   0.0000       1.774779        48.2942 
 251   0.0000       1.782653        48.5085 
 252   0.0000       1.795693        48.8633 
 253   0.0000       1.808474        49.2111 
 254   0.0000       1.818437        49.4822 
 255   0.0000       1.833582        49.8943 
 256   0.0000       1.841193        50.1014 
 257   0.0000       1.845163        50.2094 
 258   0.0000       1.861675        50.6588 
 259   0.0000       1.875375        51.0316 
 260   0.0000       1.882600        51.2282 
 261   0.0000       1.904789        51.8319 
 262   0.0000       1.908882        51.9433 
 263   0.0000       1.915379        52.1201 
 264   0.0000       1.923260        52.3346 
 265   0.0000       1.932449        52.5846 
 266   0.0000       1.945769        52.9471 
 267   0.0000       1.961951        53.3874 
 268   0.0000       1.973680        53.7066 
 269   0.0000       1.991839        54.2007 
 270   0.0000       2.013611        54.7932 
 271   0.0000       2.019903        54.9644 
 272   0.0000       2.031931        55.2917 
 273   0.0000       2.043495        55.6063 
 274   0.0000       2.062551        56.1249 
 275   0.0000       2.070832        56.3502 
 276   0.0000       2.085640        56.7532 
 277   0.0000       2.095831        57.0305 
 278   0.0000       2.108570        57.3771 
 279   0.0000       2.113674        57.5160 
 280   0.0000       2.133576        58.0576 
 281   0.0000       2.155979        58.6672 
 282   0.0000       2.183049        59.4038 
 283   0.0000       2.189708        59.5850 
 284   0.0000       2.195688        59.7477 
 285   0.0000       2.203402        59.9576 
 286   0.0000       2.213008        60.2190 
 287   0.0000       2.220062        60.4109 
 288   0.0000       2.242896        61.0323 
 289   0.0000       2.253267        61.3145 
 290   0.0000       2.261536        61.5395 
 291   0.0000       2.275169        61.9105 
 292   0.0000       2.285584        62.1939 
 293   0.0000       2.291761        62.3620 
 294   0.0000       2.299128        62.5624 
 295   0.0000       2.306463        62.7621 
 296   0.0000       2.314784        62.9885 
 297   0.0000       2.321597        63.1739 
 298   0.0000       2.341838        63.7247 
 299   0.0000       2.362381        64.2837 
 300   0.0000       2.403441        65.4010 
 301   0.0000       2.411105        65.6095 
 302   0.0000       2.411379        65.6169 
 303   0.0000       2.417027        65.7706 
 304   0.0000       2.425116        65.9908 
 305   0.0000       2.462970        67.0208 
 306   0.0000       2.469831        67.2075 
 307   0.0000       2.480434        67.4961 
 308   0.0000       2.487318        67.6834 
 309   0.0000       2.508839        68.2690 
 310   0.0000       2.534804        68.9755 
 311   0.0000       2.543570        69.2141 
 312   0.0000       2.555858        69.5484 
 313   0.0000       2.584923        70.3393 
 314   0.0000       2.604230        70.8647 
 315   0.0000       2.611572        71.0645 
 316   0.0000       2.616728        71.2048 
 317   0.0000       2.673503        72.7497 
 318   0.0000       2.687281        73.1246 
 319   0.0000       2.715423        73.8904 
 320   0.0000       2.722661        74.0874 
 321   0.0000       2.777338        75.5752 
 322   0.0000       2.784491        75.7698 
 323   0.0000       2.811019        76.4917 
 324   0.0000       2.865817        77.9829 
 325   0.0000       2.918887        79.4270 
 326   0.0000       3.008423        81.8634 
 327   0.0000       3.193245        86.8926 
 328   0.0000       3.359028        91.4038 

                 SPIN DOWN ORBITALS
  NO   OCC          E(Eh)            E(eV) 
   0   1.0000     -10.208008      -277.7740 
   1   1.0000     -10.197859      -277.4978 
   2   1.0000     -10.197249      -277.4813 
   3   1.0000     -10.193534      -277.3802 
   4   1.0000     -10.189515      -277.2708 
   5   1.0000     -10.188083      -277.2318 
   6   1.0000     -10.186472      -277.1880 
   7   1.0000     -10.185668      -277.1661 
   8   1.0000     -10.184370      -277.1308 
   9   1.0000     -10.183922      -277.1186 
  10   1.0000     -10.183017      -277.0940 
  11   1.0000     -10.181698      -277.0581 
  12   1.0000     -10.181514      -277.0531 
  13   1.0000     -10.179888      -277.0088 
  14   1.0000     -10.177788      -276.9517 
  15   1.0000     -10.175908      -276.9005 
  16   1.0000      -0.865366       -23.5478 
  17   1.0000      -0.811269       -22.0757 
  18   1.0000      -0.796148       -21.6643 
  19   1.0000      -0.773172       -21.0391 
  20   1.0000      -0.762613       -20.7518 
  21   1.0000      -0.729736       -19.8571 
  22   1.0000      -0.720290       -19.6001 
  23   1.0000      -0.682247       -18.5649 
  24   1.0000      -0.662255       -18.0209 
  25   1.0000      -0.617853       -16.8126 
  26   1.0000      -0.608654       -16.5623 
  27   1.0000      -0.589479       -16.0405 
  28   1.0000      -0.575350       -15.6561 
  29   1.0000      -0.563222       -15.3261 
  30   1.0000      -0.522764       -14.2251 
  31   1.0000      -0.491316       -13.3694 
  32   1.0000      -0.487653       -13.2697 
  33   1.0000      -0.469323       -12.7709 
  34   1.0000      -0.455332       -12.3902 
  35   1.0000      -0.447127       -12.1669 
  36   1.0000      -0.426538       -11.6067 
  37   1.0000      -0.419897       -11.4260 
  38   1.0000      -0.418619       -11.3912 
  39   1.0000      -0.416168       -11.3245 
  40   1.0000      -0.409348       -11.1389 
  41   1.0000      -0.396463       -10.7883 
  42   1.0000      -0.384156       -10.4534 
  43   1.0000      -0.377306       -10.2670 
  44   1.0000      -0.371841       -10.1183 
  45   1.0000      -0.365858        -9.9555 
  46   1.0000      -0.350817        -9.5462 
  47   1.0000      -0.347631        -9.4595 
  48   1.0000      -0.337816        -9.1924 
  49   1.0000      -0.334414        -9.0999 
  50   1.0000      -0.327766        -8.9190 
  51   1.0000      -0.322560        -8.7773 
  52   1.0000      -0.321717        -8.7544 
  53   1.0000      -0.320196        -8.7130 
  54   1.0000      -0.301264        -8.1978 
  55   1.0000      -0.271928        -7.3995 
  56   1.0000      -0.257989        -7.0202 
  57   1.0000      -0.224932        -6.1207 
  58   0.0000      -0.081193        -2.2094 
  59   0.0000      -0.019881        -0.5410 
  60   0.0000       0.028460         0.7744 
  61   0.0000       0.047826         1.3014 
  62   0.0000       0.059564         1.6208 
  63   0.0000       0.063248         1.7211 
  64   0.0000       0.079164         2.1542 
  65   0.0000       0.086628         2.3573 
  66   0.0000       0.089420         2.4332 
  67   0.0000       0.091956         2.5023 
  68   0.0000       0.094450         2.5701 
  69   0.0000       0.100664         2.7392 
  70   0.0000       0.102916         2.8005 
  71   0.0000       0.108749         2.9592 
  72   0.0000       0.118096         3.2136 
  73   0.0000       0.134716         3.6658 
  74   0.0000       0.142070         3.8659 
  75   0.0000       0.145059         3.9472 
  76   0.0000       0.149049         4.0558 
  77   0.0000       0.151087         4.1113 
  78   0.0000       0.153969         4.1897 
  79   0.0000       0.161618         4.3979 
  80   0.0000       0.164693         4.4815 
  81   0.0000       0.167153         4.5485 
  82   0.0000       0.177463         4.8290 
  83   0.0000       0.186848         5.0844 
  84   0.0000       0.193375         5.2620 
  85   0.0000       0.212558         5.7840 
  86   0.0000       0.215280         5.8581 
  87   0.0000       0.231047         6.2871 
  88   0.0000       0.240602         6.5471 
  89   0.0000       0.248187         6.7535 
  90   0.0000       0.251972         6.8565 
  91   0.0000       0.261166         7.1067 
  92   0.0000       0.269688         7.3386 
  93   0.0000       0.299379         8.1465 
  94   0.0000       0.332520         9.0483 
  95   0.0000       0.332607         9.0507 
  96   0.0000       0.349609         9.5133 
  97   0.0000       0.360357         9.8058 
  98   0.0000       0.369502        10.0547 
  99   0.0000       0.407439        11.0870 
 100   0.0000       0.409796        11.1511 
 101   0.0000       0.412746        11.2314 
 102   0.0000       0.416337        11.3291 
 103   0.0000       0.420684        11.4474 
 104   0.0000       0.429894        11.6980 
 105   0.0000       0.441246        12.0069 
 106   0.0000       0.454427        12.3656 
 107   0.0000       0.464224        12.6322 
 108   0.0000       0.467749        12.7281 
 109   0.0000       0.474987        12.9251 
 110   0.0000       0.481960        13.1148 
 111   0.0000       0.493516        13.4292 
 112   0.0000       0.499972        13.6049 
 113   0.0000       0.506121        13.7722 
 114   0.0000       0.510357        13.8875 
 115   0.0000       0.516393        14.0518 
 116   0.0000       0.520853        14.1731 
 117   0.0000       0.541675        14.7397 
 118   0.0000       0.545485        14.8434 
 119   0.0000       0.547081        14.8868 
 120   0.0000       0.555916        15.1273 
 121   0.0000       0.566340        15.4109 
 122   0.0000       0.575212        15.6523 
 123   0.0000       0.584676        15.9098 
 124   0.0000       0.601672        16.3723 
 125   0.0000       0.608959        16.5706 
 126   0.0000       0.612720        16.6730 
 127   0.0000       0.616650        16.7799 
 128   0.0000       0.621115        16.9014 
 129   0.0000       0.629057        17.1175 
 130   0.0000       0.637648        17.3513 
 131   0.0000       0.639511        17.4020 
 132   0.0000       0.641993        17.4695 
 133   0.0000       0.644936        17.5496 
 134   0.0000       0.646343        17.5879 
 135   0.0000       0.651546        17.7295 
 136   0.0000       0.658012        17.9054 
 137   0.0000       0.658259        17.9122 
 138   0.0000       0.662268        18.0212 
 139   0.0000       0.664387        18.0789 
 140   0.0000       0.672758        18.3067 
[...]
      dyz     :     0.025865
      dx2y2   :     0.038363
      dxy     :     0.024026
 19 H s       :     0.898946  s :     0.898946
      pz      :     0.028756  p :     0.076073
      px      :     0.019382
      py      :     0.027935
 20 H s       :     0.898825  s :     0.898825
      pz      :     0.018871  p :     0.076078
      px      :     0.016906
      py      :     0.040301
 21 C s       :     2.791089  s :     2.791089
      pz      :     1.045185  p :     3.052737
      px      :     1.021168
      py      :     0.986384
      dz2     :     0.029221  d :     0.191815
      dxz     :     0.049410
      dyz     :     0.022255
      dx2y2   :     0.043003
      dxy     :     0.047924
 22 H s       :     0.882414  s :     0.882414
      pz      :     0.038649  p :     0.077705
      px      :     0.023469
      py      :     0.015588
 23 H s       :     0.882372  s :     0.882372
      pz      :     0.029989  p :     0.077669
      px      :     0.032353
      py      :     0.015326
 24 C s       :     2.799220  s :     2.799220
      pz      :     1.040097  p :     3.053860
      px      :     1.023334
      py      :     0.990429
      dz2     :     0.030005  d :     0.190784
      dxz     :     0.053798
      dyz     :     0.019983
      dx2y2   :     0.040352
      dxy     :     0.046645
 25 H s       :     0.899484  s :     0.899484
      pz      :     0.038387  p :     0.076940
      px      :     0.022395
      py      :     0.016159
 26 H s       :     0.899678  s :     0.899678
      pz      :     0.030149  p :     0.076899
      px      :     0.030881
      py      :     0.015869
 27 C s       :     2.799280  s :     2.799280
      pz      :     1.041535  p :     3.055785
      px      :     1.021266
      py      :     0.992984
      dz2     :     0.030146  d :     0.191853
      dxz     :     0.052897
      dyz     :     0.020185
      dx2y2   :     0.040847
      dxy     :     0.047778
 28 H s       :     0.899969  s :     0.899969
      pz      :     0.037713  p :     0.075842
      px      :     0.022275
      py      :     0.015854
 29 H s       :     0.899864  s :     0.899864
      pz      :     0.029710  p :     0.075839
      px      :     0.030554
      py      :     0.015575
 30 C s       :     2.806606  s :     2.806606
      pz      :     1.053691  p :     3.115001
      px      :     1.044798
      py      :     1.016511
      dz2     :     0.026991  d :     0.146085
      dxz     :     0.040480
      dyz     :     0.013459
      dx2y2   :     0.024030
      dxy     :     0.041124
 31 H s       :     0.899135  s :     0.899135
      pz      :     0.030414  p :     0.076084
      px      :     0.029918
      py      :     0.015751
 32 H s       :     0.899054  s :     0.899054
      pz      :     0.038164  p :     0.076077
      px      :     0.021725
      py      :     0.016188
 33 C s       :     2.908220  s :     2.908220
      pz      :     0.984714  p :     3.047535
      px      :     1.082294
      py      :     0.980527
      dz2     :     0.012565  d :     0.099802
      dxz     :     0.025824
      dyz     :     0.000872
      dx2y2   :     0.036022
      dxy     :     0.024520
 34 H s       :     0.883914  s :     0.883914
      pz      :     0.021016  p :     0.094369
      px      :     0.053432
      py      :     0.019922
 35 H s       :     0.894935  s :     0.894935
      pz      :     0.036756  p :     0.076483
      px      :     0.023740
      py      :     0.015986
 36 H s       :     0.896069  s :     0.896069
      pz      :     0.015995  p :     0.076398
      px      :     0.027954
      py      :     0.032449

SPIN
  0 C s       :     0.001385  s :     0.001385
      pz      :     0.014021  p :     0.019777
      px      :     0.001384
      py      :     0.004372
      dz2     :    -0.000514  d :    -0.007161
      dxz     :    -0.005658
      dyz     :    -0.000020
      dx2y2   :    -0.000415
      dxy     :    -0.000553
  1 C s       :     0.006472  s :     0.006472
      pz      :     0.169946  p :     0.183394
      px      :     0.007966
      py      :     0.005482
      dz2     :    -0.000812  d :    -0.007691
      dxz     :    -0.000651
      dyz     :    -0.004491
      dx2y2   :    -0.000875
      dxy     :    -0.000863
  2 C s       :    -0.006741  s :    -0.006741
      pz      :    -0.088589  p :    -0.106789
      px      :    -0.009375
      py      :    -0.008825
      dz2     :     0.002335  d :     0.041160
      dxz     :     0.010500
      dyz     :     0.024290
      dx2y2   :     0.001587
      dxy     :     0.002447
  3 C s       :     0.006073  s :     0.006073
      pz      :     0.165691  p :     0.179003
      px      :     0.008759
      py      :     0.004553
      dz2     :    -0.001037  d :    -0.008019
      dxz     :    -0.003789
      dyz     :    -0.001381
      dx2y2   :    -0.000737
      dxy     :    -0.001075
  4 C s       :    -0.003809  s :    -0.003809
      pz      :    -0.063986  p :    -0.073600
      px      :    -0.004487
      py      :    -0.005127
      dz2     :     0.000644  d :     0.018018
      dxz     :     0.001753
      dyz     :     0.013570
      dx2y2   :     0.000719
      dxy     :     0.001332
  5 C s       :     0.006739  s :     0.006739
      pz      :     0.180026  p :     0.194565
      px      :     0.009245
      py      :     0.005294
      dz2     :    -0.000879  d :    -0.006431
      dxz     :    -0.002595
      dyz     :    -0.001656
      dx2y2   :    -0.000684
      dxy     :    -0.000616
  6 C s       :    -0.004015  s :    -0.004015
      pz      :    -0.071478  p :    -0.081565
      px      :    -0.006513
      py      :    -0.003573
      dz2     :     0.001604  d :     0.018866
      dxz     :     0.011420
      dyz     :     0.004002
      dx2y2   :     0.000959
      dxy     :     0.000882
  7 H s       :    -0.005329  s :    -0.005329
      pz      :     0.004399  p :     0.005340
      px      :     0.000344
      py      :     0.000597
  8 H s       :     0.002153  s :     0.002153
      pz      :    -0.002128  p :    -0.002684
      px      :    -0.000254
      py      :    -0.000302
  9 C s       :     0.018907  s :     0.018907
      pz      :     0.570803  p :     0.612884
      px      :     0.028590
      py      :     0.013491
      dz2     :    -0.002215  d :    -0.006926
      dxz     :    -0.000699
      dyz     :    -0.001681
      dx2y2   :    -0.001176
      dxy     :    -0.001156
 10 H s       :    -0.015638  s :    -0.015638
      pz      :     0.016250  p :     0.019210
      px      :     0.002673
      py      :     0.000288
 11 H s       :    -0.015893  s :    -0.015893
      pz      :     0.015197  p :     0.018232
      px      :     0.001161
      py      :     0.001873
 12 C s       :    -0.001208  s :    -0.001208
      pz      :    -0.001583  p :    -0.006310
      px      :    -0.003971
      py      :    -0.000756
      dz2     :     0.000111  d :     0.007868
      dxz     :     0.006697
      dyz     :     0.000103
      dx2y2   :     0.000806
      dxy     :     0.000150
 13 H s       :     0.001826  s :     0.001826
      pz      :    -0.000036  p :    -0.000233
      px      :    -0.000138
      py      :    -0.000059
 14 H s       :     0.004412  s :     0.004412
      pz      :     0.000117  p :    -0.000097
      px      :    -0.000151
      py      :    -0.000064
 15 C s       :     0.001502  s :     0.001502
      pz      :     0.004384  p :     0.008440
      px      :     0.002081
      py      :     0.001975
      dz2     :    -0.000033  d :    -0.000065
      dxz     :    -0.000064
      dyz     :    -0.000024
      dx2y2   :     0.000069
      dxy     :    -0.000013
 16 H s       :    -0.000033  s :    -0.000033
      pz      :     0.000114  p :     0.000483
      px      :     0.000175
      py      :     0.000194
 17 H s       :    -0.000058  s :    -0.000058
      pz      :     0.000248  p :     0.000264
      px      :    -0.000020
      py      :     0.000036
 18 C s       :     0.000023  s :     0.000023
      pz      :    -0.000042  p :     0.000614
      px      :     0.000660
      py      :    -0.000004
      dz2     :     0.000001  d :     0.000330
      dxz     :     0.000141
      dyz     :     0.000017
      dx2y2   :     0.000089
      dxy     :     0.000082
 19 H s       :    -0.000019  s :    -0.000019
      pz      :     0.000007  p :     0.000041
      px      :     0.000033
      py      :     0.000001
 20 H s       :     0.000144  s :     0.000144
      pz      :     0.000003  p :     0.000017
      px      :     0.000012
      py      :     0.000003
 21 C s       :    -0.001309  s :    -0.001309
      pz      :    -0.000371  p :    -0.005735
      px      :    -0.002655
      py      :    -0.002709
      dz2     :     0.000739  d :     0.009565
      dxz     :     0.005315
      dyz     :     0.002725
      dx2y2   :     0.000304
      dxy     :     0.000481
 22 H s       :     0.009041  s :     0.009041
      pz      :    -0.000095  p :    -0.000218
      px      :    -0.000160
      py      :     0.000036
 23 H s       :     0.009177  s :     0.009177
      pz      :    -0.000082  p :    -0.000217
      px      :    -0.000183
      py      :     0.000048
 24 C s       :     0.000038  s :     0.000038
      pz      :     0.000028  p :     0.000207
      px      :     0.000097
      py      :     0.000081
      dz2     :    -0.000008  d :    -0.000070
      dxz     :     0.000122
      dyz     :    -0.000021
      dx2y2   :    -0.000087
      dxy     :    -0.000075
 25 H s       :     0.000053  s :     0.000053
      pz      :     0.000011  p :     0.000022
      px      :     0.000008
      py      :     0.000003
 26 H s       :     0.000053  s :     0.000053
      pz      :     0.000005  p :     0.000022
      px      :     0.000015
      py      :     0.000003
 27 C s       :    -0.000053  s :    -0.000053
      pz      :     0.000189  p :     0.000071
      px      :    -0.000028
      py      :    -0.000089
      dz2     :    -0.000002  d :    -0.000000
      dxz     :    -0.000001
      dyz     :     0.000012
      dx2y2   :    -0.000003
      dxy     :    -0.000005
 28 H s       :     0.000077  s :     0.000077
      pz      :     0.000001  p :     0.000021
      px      :     0.000004
      py      :     0.000017
 29 H s       :     0.000079  s :     0.000079
      pz      :     0.000001  p :     0.000022
      px      :     0.000005
      py      :     0.000016
 30 C s       :    -0.000011  s :    -0.000011
      pz      :    -0.000001  p :    -0.000051
      px      :    -0.000011
      py      :    -0.000039
      dz2     :     0.000000  d :     0.000019
      dxz     :     0.000011
      dyz     :     0.000010
      dx2y2   :    -0.000003
      dxy     :     0.000001
 31 H s       :     0.000020  s :     0.000020
      pz      :    -0.000000  p :    -0.000002
      px      :    -0.000001
      py      :    -0.000001
 32 H s       :     0.000019  s :     0.000019
      pz      :    -0.000000  p :    -0.000002
      px      :    -0.000000
      py      :    -0.000001
 33 C s       :    -0.001231  s :    -0.001231
      pz      :    -0.032239  p :    -0.038941
      px      :    -0.001431
      py      :    -0.005272
      dz2     :     0.000175  d :     0.001300
      dxz     :     0.000716
      dyz     :     0.000015
      dx2y2   :     0.000161
      dxy     :     0.000233
 34 H s       :     0.001247  s :     0.001247
      pz      :    -0.000953  p :    -0.001315
      px      :    -0.000216
      py      :    -0.000146
 35 H s       :     0.000222  s :     0.000222
      pz      :     0.000004  p :     0.000057
      px      :     0.000053
      py      :     0.000000
 36 H s       :    -0.000004  s :    -0.000004
      pz      :    -0.000000  p :    -0.000004
      px      :    -0.000001
      py      :    -0.000003


                      *****************************
                      * MAYER POPULATION ANALYSIS *
                      *****************************

  NA   - Mulliken gross atomic population
  ZA   - Total nuclear charge
  QA   - Mulliken gross atomic charge
  VA   - Mayer's total valence
  BVA  - Mayer's bonded valence
  FA   - Mayer's free valence

  ATOM       NA         ZA         QA         VA         BVA        FA
  0 C      5.3810     6.0000     0.6190     2.9057     2.9052     0.0004
  1 C      6.0620     6.0000    -0.0620     4.0893     4.0478     0.0416
  2 C      6.0467     6.0000    -0.0467     4.3052     4.2895     0.0157
  3 C      5.9747     6.0000     0.0253     3.8406     3.8028     0.0378
  4 C      6.0475     6.0000    -0.0475     3.8393     3.8319     0.0074
  5 C      6.0734     6.0000    -0.0734     4.1295     4.0823     0.0472
  6 C      5.9687     6.0000     0.0313     3.8918     3.8827     0.0090
  7 H      1.0524     1.0000    -0.0524     0.9909     0.9908     0.0001
  8 H      1.0633     1.0000    -0.0633     1.0002     1.0002     0.0000
  9 C      5.9568     6.0000     0.0432     3.9197     3.4961     0.4237
 10 H      0.9885     1.0000     0.0115     0.9812     0.9799     0.0013
 11 H      0.9924     1.0000     0.0076     0.9761     0.9749     0.0012
 12 C      5.9477     6.0000     0.0523     4.0154     4.0152     0.0002
 13 H      1.0011     1.0000    -0.0011     0.9753     0.9753     0.0000
 14 H      0.9919     1.0000     0.0081     0.9742     0.9741     0.0000
 15 C      6.0288     6.0000    -0.0288     4.0980     4.0979     0.0001
 16 H      0.9883     1.0000     0.0117     0.9761     0.9761     0.0000
 17 H      0.9931     1.0000     0.0069     0.9689     0.9689     0.0000
 18 C      6.0056     6.0000    -0.0056     4.0197     4.0197     0.0000
 19 H      0.9838     1.0000     0.0162     0.9773     0.9773     0.0000
 20 H      0.9834     1.0000     0.0166     0.9771     0.9771     0.0000
 21 C      5.9554     6.0000     0.0446     4.0271     4.0268     0.0003
 22 H      0.9684     1.0000     0.0316     0.9699     0.9698     0.0001
 23 H      0.9682     1.0000     0.0318     0.9698     0.9697     0.0001
 24 C      6.0357     6.0000    -0.0357     4.1134     4.1134     0.0000
 25 H      0.9849     1.0000     0.0151     0.9627     0.9627     0.0000
 26 H      0.9857     1.0000     0.0143     0.9628     0.9628     0.0000
 27 C      6.0238     6.0000    -0.0238     4.1179     4.1179     0.0000
 28 H      0.9942     1.0000     0.0058     0.9677     0.9677     0.0000
 29 H      0.9939     1.0000     0.0061     0.9677     0.9677     0.0000
 30 C      5.9961     6.0000     0.0039     4.0165     4.0165     0.0000
 31 H      0.9840     1.0000     0.0160     0.9772     0.9772     0.0000
 32 H      0.9837     1.0000     0.0163     0.9772     0.9772     0.0000
 33 C      6.5921     6.0000    -0.5921     3.4075     3.4061     0.0015
 34 H      1.0311     1.0000    -0.0311     1.0297     1.0297     0.0000
 35 H      0.9846     1.0000     0.0154     0.9734     0.9734     0.0000
 36 H      0.9871     1.0000     0.0129     0.9734     0.9734     0.0000

  Mayer bond orders larger than 0.100000
B(  0-C ,  4-C ) :   0.8971 B(  0-C , 33-C ) :   2.1447 B(  1-C ,  2-C ) :   1.2752 
B(  1-C ,  6-C ) :   1.4276 B(  1-C , 12-C ) :   1.1090 B(  2-C ,  3-C ) :   1.2638 
B(  2-C ,  9-C ) :   1.5113 B(  3-C ,  4-C ) :   1.4583 B(  3-C ,  7-H ) :   0.9256 
B(  4-C ,  5-C ) :   1.3541 B(  5-C ,  6-C ) :   1.3831 B(  5-C , 21-C ) :   1.0934 
B(  6-C ,  8-H ) :   0.9132 B(  9-C , 10-H ) :   0.9055 B(  9-C , 11-H ) :   0.9119 
B( 12-C , 13-H ) :   0.9112 B( 12-C , 14-H ) :   0.9047 B( 12-C , 15-C ) :   1.0597 
B( 15-C , 16-H ) :   0.9440 B( 15-C , 17-H ) :   0.9435 B( 15-C , 18-C ) :   1.1014 
B( 18-C , 19-H ) :   0.9664 B( 18-C , 20-H ) :   0.9668 B( 18-C , 35-H ) :   0.9640 
B( 21-C , 22-H ) :   0.8962 B( 21-C , 23-H ) :   0.8968 B( 21-C , 24-C ) :   1.1022 
B( 24-C , 25-H ) :   0.9290 B( 24-C , 26-H ) :   0.9296 B( 24-C , 27-C ) :   1.0757 
B( 27-C , 28-H ) :   0.9410 B( 27-C , 29-H ) :   0.9411 B( 27-C , 30-C ) :   1.1059 
B( 30-C , 31-H ) :   0.9662 B( 30-C , 32-H ) :   0.9662 B( 30-C , 36-H ) :   0.9618 
B( 33-C , 34-H ) :   1.1167 

-------
TIMINGS
-------

Total SCF time: 0 days 0 hours 0 min 36 sec 

Total time                  ....      36.390 sec
Sum of individual times     ....      33.924 sec  ( 93.2%)

Fock matrix formation       ....      30.203 sec  ( 83.0%)
  Split-RI-J                ....       2.337 sec  (  7.7% of F)
  Chain of spheres X        ....      18.035 sec  ( 59.7% of F)
  XC integration            ....       7.295 sec  ( 24.2% of F)
    Basis function eval.    ....       0.635 sec  (  8.7% of XC)
    Density eval.           ....       0.722 sec  (  9.9% of XC)
    XC-Functional eval.     ....       0.170 sec  (  2.3% of XC)
    XC-Potential eval.      ....       0.423 sec  (  5.8% of XC)
Diagonalization             ....       0.527 sec  (  1.4%)
Density matrix formation    ....       0.080 sec  (  0.2%)
Population analysis         ....       0.254 sec  (  0.7%)
Initial guess               ....       0.081 sec  (  0.2%)
Orbital Transformation      ....       0.000 sec  (  0.0%)
Orbital Orthonormalization  ....       0.059 sec  (  0.2%)
DIIS solution               ....       0.375 sec  (  1.0%)
Grid generation             ....       2.403 sec  (  6.6%)

Maximum memory used throughout the entire SCF-calculation: 90.0 MB

-------------------------   --------------------
FINAL SINGLE POINT ENERGY      -621.857979559054
-------------------------   --------------------

                                *** OPTIMIZATION RUN DONE ***

                            ***************************************
                            *     ORCA property calculations      *
                            ***************************************

                                    ---------------------
                                    Active property flags
                                    ---------------------
   (+) Dipole Moment


------------------------------------------------------------------------------
                       ORCA ELECTRIC PROPERTIES CALCULATION
------------------------------------------------------------------------------

Dipole Moment Calculation                       ... on
Quadrupole Moment Calculation                   ... off
Polarizability Calculation                      ... off
GBWName                                         ... opt_cc-pVDZ.gbw
Electron density                                ... opt_cc-pVDZ.scfp
The origin for moment calculation is the CENTER OF MASS  = ( 0.559600, -2.147047 -0.108144)

-------------
DIPOLE MOMENT
-------------
                                X             Y             Z
Electronic contribution:    -11.73019      14.80451      -1.69511
Nuclear contribution   :     11.94922     -15.07811       1.72699
                        -----------------------------------------
Total Dipole Moment    :      0.21904      -0.27360       0.03188
                        -----------------------------------------
Magnitude (a.u.)       :      0.35192
Magnitude (Debye)      :      0.89451



--------------------
Rotational spectrum 
--------------------
 
Rotational constants in cm-1:     0.018510     0.010262     0.006806 
Rotational constants in MHz :   554.927010   307.651229   204.046872 

 Dipole components along the rotational axes: 
x,y,z [a.u.] :    -0.019646     0.351012     0.015899 
x,y,z [Debye]:    -0.049937     0.892202     0.040412 

 

Timings for individual modules:

Sum of individual times         ...      144.758 sec (=   2.413 min)
GTO integral calculation        ...        6.265 sec (=   0.104 min)   4.3 %
SCF iterations                  ...      124.477 sec (=   2.075 min)  86.0 %
SCF Gradient evaluation         ...       13.049 sec (=   0.217 min)   9.0 %
Geometry relaxation             ...        0.967 sec (=   0.016 min)   0.7 %
                             ****ORCA TERMINATED NORMALLY****
TOTAL RUN TIME: 0 days 0 hours 2 minutes 29 seconds 123 msec
