
                                 *****************
                                 * O   R   C   A *
                                 *****************

                                            #,                                       
                                            ###                                      
                                            ####                                     
                                            #####                                    
                                            ######                                   
                                           ########,                                 
                                     ,,################,,,,,                         
                               ,,#################################,,                 
                          ,,##########################################,,             
                       ,#########################################, ''#####,          
                    ,#############################################,,   '####,        
                  ,##################################################,,,,####,       
                ,###########''''           ''''###############################       
              ,#####''   ,,,,##########,,,,          '''####'''          '####       
            ,##' ,,,,###########################,,,                        '##       
           ' ,,###''''                  '''############,,,                           
         ,,##''                                '''############,,,,        ,,,,,,###''
      ,#''                                            '''#######################'''  
     '                                                          ''''####''''         
             ,#######,   #######,   ,#######,      ##                                
            ,#'     '#,  ##    ##  ,#'     '#,    #''#        ######   ,####,        
            ##       ##  ##   ,#'  ##            #'  '#       #        #'  '#        
            ##       ##  #######   ##           ,######,      #####,   #    #        
            '#,     ,#'  ##    ##  '#,     ,#' ,#      #,         ##   #,  ,#        
             '#######'   ##     ##  '#######'  #'      '#     #####' # '####'        



                  #######################################################
                  #                        -***-                        #
                  #          Department of theory and spectroscopy      #
                  #    Directorship and core code : Frank Neese         #
                  #        Max Planck Institute fuer Kohlenforschung    #
                  #                Kaiser Wilhelm Platz 1               #
                  #                 D-45470 Muelheim/Ruhr               #
                  #                      Germany                        #
                  #                                                     #
                  #                  All rights reserved                #
                  #                        -***-                        #
                  #######################################################


                         Program Version 5.0.4 -  RELEASE  -


 With contributions from (in alphabetic order):
   Daniel Aravena         : Magnetic Suceptibility
   Michael Atanasov       : Ab Initio Ligand Field Theory (pilot matlab implementation)
   Alexander A. Auer      : GIAO ZORA, VPT2 properties, NMR spectrum
   Ute Becker             : Parallelization
   Giovanni Bistoni       : ED, misc. LED, open-shell LED, HFLD
   Martin Brehm           : Molecular dynamics
   Dmytro Bykov           : SCF Hessian
   Vijay G. Chilkuri      : MRCI spin determinant printing, contributions to CSF-ICE
   Dipayan Datta          : RHF DLPNO-CCSD density
   Achintya Kumar Dutta   : EOM-CC, STEOM-CC
   Dmitry Ganyushin       : Spin-Orbit,Spin-Spin,Magnetic field MRCI
   Miquel Garcia          : C-PCM and meta-GGA Hessian, CC/C-PCM, Gaussian charge scheme
   Yang Guo               : DLPNO-NEVPT2, F12-NEVPT2, CIM, IAO-localization
   Andreas Hansen         : Spin unrestricted coupled pair/coupled cluster methods
   Benjamin Helmich-Paris : MC-RPA, TRAH-SCF, COSX integrals
   Lee Huntington         : MR-EOM, pCC
   Robert Izsak           : Overlap fitted RIJCOSX, COSX-SCS-MP3, EOM
   Marcus Kettner         : VPT2
   Christian Kollmar      : KDIIS, OOCD, Brueckner-CCSD(T), CCSD density, CASPT2, CASPT2-K
   Simone Kossmann        : Meta GGA functionals, TD-DFT gradient, OOMP2, MP2 Hessian
   Martin Krupicka        : Initial AUTO-CI
   Lucas Lang             : DCDCAS
   Marvin Lechner         : AUTO-CI (C++ implementation), FIC-MRCC
   Dagmar Lenk            : GEPOL surface, SMD
   Dimitrios Liakos       : Extrapolation schemes; Compound Job, initial MDCI parallelization
   Dimitrios Manganas     : Further ROCIS development; embedding schemes
   Dimitrios Pantazis     : SARC Basis sets
   Anastasios Papadopoulos: AUTO-CI, single reference methods and gradients
   Taras Petrenko         : DFT Hessian,TD-DFT gradient, ASA, ECA, R-Raman, ABS, FL, XAS/XES, NRVS
   Peter Pinski           : DLPNO-MP2, DLPNO-MP2 Gradient
   Christoph Reimann      : Effective Core Potentials
   Marius Retegan         : Local ZFS, SOC
   Christoph Riplinger    : Optimizer, TS searches, QM/MM, DLPNO-CCSD(T), (RO)-DLPNO pert. Triples
   Tobias Risthaus        : Range-separated hybrids, TD-DFT gradient, RPA, STAB
   Michael Roemelt        : Original ROCIS implementation
   Masaaki Saitow         : Open-shell DLPNO-CCSD energy and density
   Barbara Sandhoefer     : DKH picture change effects
   Avijit Sen             : IP-ROCIS
   Kantharuban Sivalingam : CASSCF convergence, NEVPT2, FIC-MRCI
   Bernardo de Souza      : ESD, SOC TD-DFT
   Georgi Stoychev        : AutoAux, RI-MP2 NMR, DLPNO-MP2 response
   Willem Van den Heuvel  : Paramagnetic NMR
   Boris Wezisla          : Elementary symmetry handling
   Frank Wennmohs         : Technical directorship


 We gratefully acknowledge several colleagues who have allowed us to
 interface, adapt or use parts of their codes:
   Stefan Grimme, W. Hujo, H. Kruse, P. Pracht,  : VdW corrections, initial TS optimization,
                  C. Bannwarth, S. Ehlert          DFT functionals, gCP, sTDA/sTD-DF
   Ed Valeev, F. Pavosevic, A. Kumar             : LibInt (2-el integral package), F12 methods
   Garnet Chan, S. Sharma, J. Yang, R. Olivares  : DMRG
   Ulf Ekstrom                                   : XCFun DFT Library
   Mihaly Kallay                                 : mrcc  (arbitrary order and MRCC methods)
   Jiri Pittner, Ondrej Demel                    : Mk-CCSD
   Frank Weinhold                                : gennbo (NPA and NBO analysis)
   Christopher J. Cramer and Donald G. Truhlar   : smd solvation model
   Lars Goerigk                                  : TD-DFT with DH, B97 family of functionals
   V. Asgeirsson, H. Jonsson                     : NEB implementation
   FAccTs GmbH                                   : IRC, NEB, NEB-TS, DLPNO-Multilevel, CI-OPT
                                                   MM, QMMM, 2- and 3-layer-ONIOM, Crystal-QMMM,
                                                   LR-CPCM, SF, NACMEs, symmetry and pop. for TD-DFT,
                                                   nearIR, NL-DFT gradient (VV10), updates on ESD,
                                                   ML-optimized integration grids
   S Lehtola, MJT Oliveira, MAL Marques          : LibXC Library
   Liviu Ungur et al                             : ANISO software


 Your calculation uses the libint2 library for the computation of 2-el integrals
 For citations please refer to: http://libint.valeyev.net

 Your ORCA version has been built with support for libXC version: 5.1.0
 For citations please refer to: https://tddft.org/programs/libxc/

 This ORCA versions uses:
   CBLAS   interface :  Fast vector & matrix operations
   LAPACKE interface :  Fast linear algebra routines
   SCALAPACK package :  Parallel linear algebra routines
   Shared memory     :  Shared parallel matrices
   BLAS/LAPACK       :  OpenBLAS 0.3.15  USE64BITINT DYNAMIC_ARCH NO_AFFINITY SkylakeX SINGLE_THREADED
        Core in use  :  SkylakeX
   Copyright (c) 2011-2014, The OpenBLAS Project




***************************************
The coordinates will be read from file: model.xyz
***************************************


================================================================================

----- Orbital basis set information -----
Your calculation utilizes the basis: EPR-II
   V. Barone, in Recent Advances in Density Functional Methods, Part 1 (ed. D. P. Chong), World Scientific, Singapore, 1995, p. 287.

----- AuxJ basis set information -----
Your calculation utilizes the auxiliary basis: def2/J
   F. Weigend, Phys. Chem. Chem. Phys. 8, 1057 (2006).

================================================================================
                                        WARNINGS
                       Please study these warnings very carefully!
================================================================================

WARNING: Old DensityContainer found on disk!
         Will remove this file - 
         If you want to keep old densities, please start your calculation with a different basename. 


WARNING: your system is open-shell and RHF/RKS was chosen
  ===> : WILL SWITCH to UHF/UKS


WARNING: Geometry Optimization
  ===> : Switching off AutoStart
         For restart on a previous wavefunction, please use MOREAD

INFO   : the flag for use of the SHARK integral package has been found!

================================================================================
                                       INPUT FILE
================================================================================
NAME = BDE.inp
|  1> ! B3LYP EPR-II OPT FREQ
|  2> %pal nprocs 16 end
|  3> *XYZFile 0 2 model.xyz
|  4> 
|  5>                          ****END OF INPUT****
================================================================================

                       *****************************
                       * Geometry Optimization Run *
                       *****************************

Geometry optimization settings:
Update method            Update   .... BFGS
Choice of coordinates    CoordSys .... Z-matrix Internals
Initial Hessian          InHess   .... Almoef's Model

Convergence Tolerances:
Energy Change            TolE     ....  5.0000e-06 Eh
Max. Gradient            TolMAXG  ....  3.0000e-04 Eh/bohr
RMS Gradient             TolRMSG  ....  1.0000e-04 Eh/bohr
Max. Displacement        TolMAXD  ....  4.0000e-03 bohr
RMS Displacement         TolRMSD  ....  2.0000e-03 bohr
Strict Convergence                ....  False
------------------------------------------------------------------------------
                        ORCA OPTIMIZATION COORDINATE SETUP
------------------------------------------------------------------------------

The optimization will be done in new redundant internal coordinates
Making redundant internal coordinates   ...  (new redundants) done
Evaluating the initial hessian          ...  (Almloef) done
Evaluating the coordinates              ...  done
Calculating the B-matrix                .... done
Calculating the G-matrix                .... done
Diagonalizing the G-matrix              .... done
Small eigenvalue found = 2.580e-03
Small eigenvalue found = 7.633e-03
Small eigenvalue found = 1.012e-02
Small eigenvalue found = 2.747e-02
The first mode is                       ....   86
The number of degrees of freedom        ....   99

    -----------------------------------------------------------------
                    Redundant Internal Coordinates


    -----------------------------------------------------------------
         Definition                    Initial Value    Approx d2E/dq
    -----------------------------------------------------------------
      1. B(C   1,C   0)                  1.4545         0.493039   
      2. B(C   2,C   1)                  1.3770         0.655407   
      3. B(C   3,C   2)                  1.4256         0.548235   
      4. B(C   4,C   3)                  1.4366         0.526546   
      5. B(C   5,C   4)                  1.3786         0.651514   
      6. B(C   5,C   0)                  1.4490         0.503022   
      7. B(H   6,C   2)                  1.0906         0.359354   
      8. B(H   7,C   5)                  1.0892         0.361183   
      9. B(C   8,C   1)                  1.5146         0.395321   
     10. B(H   9,C   8)                  1.1074         0.337854   
     11. B(H  10,C   8)                  1.1074         0.337854   
     12. B(C  11,C   8)                  1.5307         0.372595   
     13. B(H  12,C  11)                  1.1054         0.340238   
     14. B(H  13,C  11)                  1.1054         0.340233   
     15. B(C  14,C  11)                  1.5336         0.368723   
     16. B(H  15,C  14)                  1.1057         0.339866   
     17. B(H  16,C  14)                  1.1057         0.339864   
     18. B(C  17,C  14)                  1.5307         0.372663   
     19. B(H  18,C  17)                  1.1037         0.342396   
     20. B(H  19,C  17)                  1.1037         0.342396   
     21. B(C  20,C   4)                  1.5168         0.392169   
     22. B(H  21,C  20)                  1.1056         0.340067   
     23. B(H  22,C  20)                  1.1056         0.340072   
     24. B(C  23,C  20)                  1.5305         0.372864   
     25. B(H  24,C  23)                  1.1056         0.340010   
     26. B(H  25,C  23)                  1.1056         0.340013   
     27. B(C  26,C  23)                  1.5338         0.368444   
     28. B(H  27,C  26)                  1.1059         0.339708   
     29. B(H  28,C  26)                  1.1059         0.339709   
     30. B(C  29,C  26)                  1.5307         0.372587   
     31. B(H  30,C  29)                  1.1037         0.342447   
     32. B(H  31,C  29)                  1.1037         0.342447   
     33. B(H  32,C  17)                  1.1020         0.344595   
     34. B(H  33,C  29)                  1.1021         0.344502   
     35. B(H  34,C   3)                  1.3811         0.123587   
     36. A(C   1,C   0,C   5)          119.7534         0.401483   
     37. A(C   0,C   1,C   2)          117.2287         0.420771   
     38. A(C   2,C   1,C   8)          124.6763         0.404592   
     39. A(C   0,C   1,C   8)          118.0950         0.384899   
     40. A(C   1,C   2,H   6)          119.5799         0.356122   
     41. A(C   1,C   2,C   3)          123.1394         0.428836   
     42. A(C   3,C   2,H   6)          117.2807         0.345542   
     43. A(C   2,C   3,H  34)          121.1180         0.290483   
     44. A(C   2,C   3,C   4)          119.7757         0.412408   
     45. A(C   4,C   3,H  34)          119.1063         0.288651   
     46. A(C   5,C   4,C  20)          122.3539         0.403596   
     47. A(C   3,C   4,C  20)          119.0829         0.388792   
     48. A(C   3,C   4,C   5)          118.5631         0.425291   
     49. A(C   0,C   5,C   4)          121.5397         0.421830   
     50. A(C   4,C   5,H   7)          120.5897         0.356069   
     51. A(C   0,C   5,H   7)          117.8706         0.340882   
     52. A(C   1,C   8,H  10)          108.0837         0.323936   
     53. A(C   1,C   8,H   9)          108.0855         0.323936   
     54. A(H   9,C   8,H  10)          104.8364         0.285096   
     55. A(H  10,C   8,C  11)          109.1863         0.320809   
     56. A(H   9,C   8,C  11)          109.1847         0.320809   
     57. A(C   1,C   8,C  11)          116.8004         0.366722   
     58. A(H  13,C  11,C  14)          109.1209         0.320629   
     59. A(H  12,C  11,C  14)          109.1169         0.320630   
     60. A(C   8,C  11,C  14)          112.6611         0.362379   
     61. A(H  12,C  11,H  13)          106.3261         0.285721   
     62. A(C   8,C  11,H  13)          109.7053         0.321177   
     63. A(C   8,C  11,H  12)          109.7086         0.321178   
     64. A(H  16,C  14,C  17)          109.5888         0.321130   
     65. A(C  11,C  14,C  17)          113.1031         0.362390   
     66. A(H  15,C  14,H  16)          105.8755         0.285624   
     67. A(C  11,C  14,H  16)          109.2133         0.320572   
     68. A(C  11,C  14,H  15)          109.2138         0.320573   
     69. A(H  15,C  14,C  17)          109.5901         0.321130   
     70. A(C  14,C  17,H  18)          111.2841         0.321520   
     71. A(H  19,C  17,H  32)          107.6003         0.286572   
     72. A(H  18,C  17,H  32)          107.6004         0.286571   
     73. A(C  14,C  17,H  32)          111.4599         0.321858   
     74. A(H  18,C  17,H  19)          107.4099         0.286285   
     75. A(C  14,C  17,H  19)          111.2830         0.321520   
     76. A(H  22,C  20,C  23)          109.3109         0.321191   
     77. A(H  21,C  20,C  23)          109.3120         0.321190   
     78. A(C   4,C  20,C  23)          117.0548         0.366265   
     79. A(H  21,C  20,H  22)          104.6105         0.285678   
     80. A(C   4,C  20,H  22)          107.9145         0.323859   
     81. A(C   4,C  20,H  21)          107.9161         0.323858   
     82. A(H  25,C  23,C  26)          109.0122         0.320556   
     83. A(H  24,C  23,C  26)          109.0140         0.320555   
     84. A(C  20,C  23,C  26)          112.5660         0.362376   
     85. A(H  24,C  23,H  25)          106.2830         0.285662   
     86. A(C  20,C  23,H  25)          109.8839         0.321181   
     87. A(C  20,C  23,H  24)          109.8797         0.321181   
     88. A(H  28,C  26,C  29)          109.5763         0.321095   
     89. A(H  27,C  26,C  29)          109.5754         0.321095   
     90. A(C  23,C  26,C  29)          113.1623         0.362330   
     91. A(H  27,C  26,H  28)          105.8848         0.285583   
     92. A(C  23,C  26,H  28)          109.1910         0.320509   
     93. A(C  23,C  26,H  27)          109.1915         0.320508   
     94. A(H  31,C  29,H  33)          107.6003         0.286566   
     95. A(H  30,C  29,H  33)          107.6000         0.286566   
     96. A(C  26,C  29,H  33)          111.4859         0.321833   
     97. A(H  30,C  29,H  31)          107.3931         0.286299   
     98. A(C  26,C  29,H  31)          111.2790         0.321517   
     99. A(C  26,C  29,H  30)          111.2782         0.321517   
    100. D(C   8,C   1,C   0,C   5)   -179.9863         0.015068   
    101. D(C   2,C   1,C   0,C   5)      0.0065         0.015068   
    102. D(C   3,C   2,C   1,C   0)     -0.0061         0.029944   
    103. D(H   6,C   2,C   1,C   0)    179.9965         0.029944   
    104. D(C   3,C   2,C   1,C   8)    179.9862         0.029944   
    105. D(H   6,C   2,C   1,C   8)     -0.0112         0.029944   
    106. D(C   4,C   3,C   2,C   1)      0.0062         0.020557   
    107. D(H  34,C   3,C   2,H   6)      0.0007         0.020557   
    108. D(C   4,C   3,C   2,H   6)   -179.9964         0.020557   
    109. D(H  34,C   3,C   2,C   1)   -179.9967         0.020557   
    110. D(C  20,C   4,C   3,H  34)      0.0000         0.018918   
    111. D(C   5,C   4,C   3,H  34)    179.9964         0.018918   
    112. D(C   5,C   4,C   3,C   2)     -0.0064         0.018918   
    113. D(C  20,C   4,C   3,C   2)    179.9972         0.018918   
    114. D(C   4,C   5,C   0,C   1)     -0.0073         0.015684   
    115. D(H   7,C   5,C   0,C   1)    179.9957         0.015684   
    116. D(H   7,C   5,C   4,C  20)      0.0004         0.029564   
    117. D(C   0,C   5,C   4,C  20)   -179.9966         0.029564   
    118. D(C   0,C   5,C   4,C   3)      0.0071         0.029564   
    119. D(H   7,C   5,C   4,C   3)   -179.9959         0.029564   
    120. D(C  11,C   8,C   1,C   0)   -179.9418         0.011611   
    121. D(H  10,C   8,C   1,C   2)    123.5889         0.011611   
    122. D(H  10,C   8,C   1,C   0)    -56.4188         0.011611   
    123. D(H   9,C   8,C   1,C   2)   -123.4564         0.011611   
    124. D(H   9,C   8,C   1,C   0)     56.5358         0.011611   
    125. D(C  11,C   8,C   1,C   2)      0.0659         0.011611   
    126. D(H  13,C  11,C   8,C   1)     58.2286         0.011089   
    127. D(H  12,C  11,C   8,H  10)    178.8196         0.011089   
    128. D(H  12,C  11,C   8,H   9)     64.7320         0.011089   
    129. D(H  13,C  11,C   8,H   9)   -178.8147         0.011089   
    130. D(H  12,C  11,C   8,C   1)    -58.2247         0.011089   
    131. D(C  14,C  11,C   8,H  10)     57.0477         0.011089   
    132. D(C  14,C  11,C   8,H   9)    -57.0399         0.011089   
    133. D(C  14,C  11,C   8,C   1)   -179.9967         0.011089   
    134. D(H  13,C  11,C   8,H  10)    -64.7270         0.011089   
    135. D(C  17,C  14,C  11,H  13)    -57.8880         0.010873   
    136. D(H  16,C  14,C  11,H  13)    179.7905         0.010873   
    137. D(C  17,C  14,C  11,H  12)     57.9005         0.010873   
    138. D(H  16,C  14,C  11,H  12)    -64.4211         0.010873   
    139. D(H  16,C  14,C  11,C   8)     57.6854         0.010873   
    140. D(C  17,C  14,C  11,C   8)   -179.9931         0.010873   
    141. D(H  15,C  14,C  11,H  12)   -179.7761         0.010873   
    142. D(H  15,C  14,C  11,H  13)     64.4355         0.010873   
    143. D(H  15,C  14,C  11,C   8)    -57.6696         0.010873   
    144. D(H  32,C  17,C  14,H  16)    -57.8677         0.011092   
    145. D(H  32,C  17,C  14,H  15)     57.9074         0.011092   
    146. D(H  32,C  17,C  14,C  11)   -179.9794         0.011092   
    147. D(H  19,C  17,C  14,H  16)     62.2519         0.011092   
    148. D(H  19,C  17,C  14,H  15)    178.0271         0.011092   
    149. D(H  19,C  17,C  14,C  11)    -59.8598         0.011092   
    150. D(H  18,C  17,C  14,H  16)   -177.9884         0.011092   
    151. D(H  18,C  17,C  14,H  15)    -62.2132         0.011092   
    152. D(H  18,C  17,C  14,C  11)     59.8999         0.011092   
    153. D(C  23,C  20,C   4,C   3)    179.9724         0.011435   
    154. D(H  22,C  20,C   4,C   5)   -123.7588         0.011435   
    155. D(H  22,C  20,C   4,C   3)     56.2374         0.011435   
    156. D(H  21,C  20,C   4,C   5)    123.7138         0.011435   
    157. D(C  23,C  20,C   4,C   5)     -0.0239         0.011435   
    158. D(H  21,C  20,C   4,C   3)    -56.2899         0.011435   
    159. D(H  25,C  23,C  20,C   4)     58.2995         0.011104   
    160. D(H  24,C  23,C  20,H  22)     64.7160         0.011104   
    161. D(H  24,C  23,C  20,H  21)    178.6708         0.011104   
    162. D(H  24,C  23,C  20,C   4)    -58.3051         0.011104   
    163. D(C  26,C  23,C  20,H  22)    -56.9814         0.011104   
    164. D(C  26,C  23,C  20,H  21)     56.9734         0.011104   
    165. D(C  26,C  23,C  20,C   4)    179.9975         0.011104   
    166. D(H  25,C  23,C  20,H  22)   -178.6794         0.011104   
    167. D(H  25,C  23,C  20,H  21)    -64.7246         0.011104   
    168. D(C  29,C  26,C  23,H  25)    -57.8178         0.010858   
    169. D(C  29,C  26,C  23,H  24)     57.8028         0.010858   
    170. D(C  29,C  26,C  23,C  20)    179.9905         0.010858   
    171. D(H  28,C  26,C  23,H  25)    179.8526         0.010858   
    172. D(H  28,C  26,C  23,H  24)    -64.5268         0.010858   
    173. D(H  28,C  26,C  23,C  20)     57.6609         0.010858   
    174. D(H  27,C  26,C  23,H  25)     64.5111         0.010858   
    175. D(H  27,C  26,C  23,H  24)   -179.8683         0.010858   
    176. D(H  27,C  26,C  23,C  20)    -57.6806         0.010858   
    177. D(H  33,C  29,C  26,H  28)    -57.9050         0.011088   
    178. D(H  33,C  29,C  26,H  27)     57.8659         0.011088   
    179. D(H  33,C  29,C  26,C  23)    179.9805         0.011088   
    180. D(H  31,C  29,C  26,H  28)     62.2297         0.011088   
    181. D(H  31,C  29,C  26,H  27)    178.0005         0.011088   
    182. D(H  31,C  29,C  26,C  23)    -59.8849         0.011088   
    183. D(H  30,C  29,C  26,H  28)   -178.0387         0.011088   
    184. D(H  30,C  29,C  26,H  27)    -62.2678         0.011088   
    185. D(H  30,C  29,C  26,C  23)     59.8467         0.011088   
    -----------------------------------------------------------------

Number of atoms                         .... 35
Number of degrees of freedom            .... 185

         *************************************************************
         *                GEOMETRY OPTIMIZATION CYCLE   1            *
         *************************************************************
---------------------------------
CARTESIAN COORDINATES (ANGSTROEM)
---------------------------------
  C      1.411778    0.000000   -0.000000
  C      0.701091    1.269014   -0.003453
  C     -0.675032    1.220444   -0.003257
  C     -1.411778   -0.000000   -0.000000
  C     -0.712985   -1.255156    0.003413
  C      0.665555   -1.242087    0.003302
  H     -1.246493    2.149292   -0.005725
  H      1.228688   -2.174393    0.005768
  C      1.518336    2.544202   -0.007160
  H      2.192386    2.517968   -0.885345
  H      2.194153    2.521897    0.869776
  C      0.740412    3.862503   -0.009353
  H      0.078092    3.903064   -0.893488
  H      0.079948    3.907036    0.875983
  C      1.658925    5.090558   -0.013137
  H      2.324982    5.049521    0.868537
  H      2.322916    5.045620   -0.896181
  C      0.891218    6.414777   -0.015185
  H      0.245093    6.504672    0.875121
  H      0.242503    6.500395   -0.904028
  C     -1.512502   -2.544099    0.006918
  H     -2.187914   -2.522988    0.881950
  H     -2.188581   -2.527296   -0.867689
  C     -0.721151   -3.854153    0.009824
  H     -0.059533   -3.895694   -0.875019
  H     -0.058710   -3.891358    0.894241
  C     -1.629152   -5.090258    0.013304
  H     -2.293988   -5.050475    0.896116
  H     -2.295015   -5.054678   -0.868911
  C     -0.851376   -6.408652    0.016005
  H     -0.202405   -6.489002    0.905103
  H     -0.203941   -6.493569   -0.873790
  H      1.576274    7.277940   -0.018259
  H     -1.529504   -7.277362    0.018824
  H     -2.792890    0.000000    0.000000

----------------------------
CARTESIAN COORDINATES (A.U.)
----------------------------
  NO LB      ZA    FRAG     MASS         X           Y           Z
   0 C     6.0000    0    12.011    2.667873    0.000000   -0.000000
   1 C     6.0000    0    12.011    1.324870    2.398088   -0.006525
   2 C     6.0000    0    12.011   -1.275626    2.306306   -0.006156
   3 C     6.0000    0    12.011   -2.667873   -0.000000   -0.000000
   4 C     6.0000    0    12.011   -1.347346   -2.371900    0.006450
   5 C     6.0000    0    12.011    1.257717   -2.347205    0.006240
   6 H     1.0000    0     1.008   -2.355531    4.061573   -0.010818
   7 H     1.0000    0     1.008    2.321885   -4.109007    0.010900
   8 C     6.0000    0    12.011    2.869238    4.807845   -0.013530
   9 H     1.0000    0     1.008    4.143009    4.758269   -1.673059
  10 H     1.0000    0     1.008    4.146349    4.765695    1.643638
  11 C     6.0000    0    12.011    1.399176    7.299072   -0.017675
  12 H     1.0000    0     1.008    0.147572    7.375722   -1.688448
  13 H     1.0000    0     1.008    0.151079    7.383227    1.655368
  14 C     6.0000    0    12.011    3.134914    9.619760   -0.024826
  15 H     1.0000    0     1.008    4.393579    9.542212    1.641298
  16 H     1.0000    0     1.008    4.389674    9.534840   -1.693537
  17 C     6.0000    0    12.011    1.684159   12.122173   -0.028695
  18 H     1.0000    0     1.008    0.463158   12.292049    1.653740
  19 H     1.0000    0     1.008    0.458265   12.283967   -1.708366
  20 C     6.0000    0    12.011   -2.858215   -4.807650    0.013073
  21 H     1.0000    0     1.008   -4.134558   -4.767757    1.666645
  22 H     1.0000    0     1.008   -4.135818   -4.775897   -1.639694
  23 C     6.0000    0    12.011   -1.362779   -7.283293    0.018564
  24 H     1.0000    0     1.008   -0.112501   -7.361794   -1.653546
  25 H     1.0000    0     1.008   -0.110946   -7.353601    1.689870
  26 C     6.0000    0    12.011   -3.078651   -9.619194    0.025141
  27 H     1.0000    0     1.008   -4.335009   -9.544014    1.693413
  28 H     1.0000    0     1.008   -4.336951   -9.551958   -1.642004
  29 C     6.0000    0    12.011   -1.608867  -12.110597    0.030244
  30 H     1.0000    0     1.008   -0.382491  -12.262437    1.710398
  31 H     1.0000    0     1.008   -0.385393  -12.271067   -1.651223
  32 H     1.0000    0     1.008    2.978727   13.753313   -0.034504
  33 H     1.0000    0     1.008   -2.890343  -13.752221    0.035572
  34 H     1.0000    0     1.008   -5.277797    0.000000    0.000000

--------------------------------
INTERNAL COORDINATES (ANGSTROEM)
--------------------------------
 C      0   0   0     0.000000000000     0.00000000     0.00000000
 C      1   0   0     1.454469916461     0.00000000     0.00000000
 C      2   1   0     1.376980215270   117.22867948     0.00000000
 C      3   2   1     1.425583668498   123.13940561     0.00000000
 C      4   3   2     1.436571908015   119.77572141     0.00000000
 C      5   4   3     1.378601846072   118.56311102     0.00000000
 H      3   2   1     1.090564630134   119.57987576   179.99649833
 H      6   5   4     1.089182460831   120.58966647   180.00407873
 C      2   1   3     1.514598137327   118.09498975   180.00717633
 H      9   2   1     1.107357920884   108.08554865    56.53583593
 H      9   2   1     1.107358659236   108.08373473   303.58115220
 C      9   2   1     1.530714499191   116.80037975   180.05817530
 H     12   9   2     1.105444583557   109.70863875   301.77526487
 H     12   9   2     1.105448464411   109.70533895    58.22859499
 C     12   9   2     1.533558075847   112.66110610   180.00330809
 H     15  12   9     1.105742161653   109.21375556   302.33041746
 H     15  12   9     1.105743868510   109.21334430    57.68537979
 C     15  12   9     1.530665071547   113.10306878   180.00694349
 H     18  15  12     1.103723190135   111.28414506    59.89992609
 H     18  15  12     1.103723020554   111.28296678   300.14024699
 C      5   4   3     1.516777668035   119.08294723   179.99717513
 H     21   5   4     1.105580695090   107.91606357   303.71010554
 H     21   5   4     1.105577031964   107.91447116    56.23744276
 C     21   5   4     1.530518228938   117.05478227   179.97241622
 H     24  21   5     1.105627082562   109.87974611   301.69490790
 H     24  21   5     1.105624501000   109.88387210    58.29948666
 C     24  21   5     1.533764587240   112.56596700   179.99750910
 H     27  24  21     1.105868825032   109.19151542   302.31939476
 H     27  24  21     1.105867994934   109.19103185    57.66089102
 C     27  24  21     1.530720357166   113.16229170   179.99053428
 H     30  27  24     1.103682680849   111.27817027    59.84672669
 H     30  27  24     1.103682983367   111.27899064   300.11506702
 H     18  15  12     1.101980311358   111.45985784   180.02058315
 H     30  27  24     1.102053738826   111.48590938   179.98045042
 H      4   3   2     1.381112410000   121.11801786   180.00328207

---------------------------
INTERNAL COORDINATES (A.U.)
---------------------------
 C      0   0   0     0.000000000000     0.00000000     0.00000000
 C      1   0   0     2.748549812139     0.00000000     0.00000000
 C      2   1   0     2.602115498688   117.22867948     0.00000000
 C      3   2   1     2.693962714452   123.13940561     0.00000000
 C      4   3   2     2.714727477833   119.77572141     0.00000000
 C      5   4   3     2.605179936795   118.56311102     0.00000000
 H      3   2   1     2.060868482295   119.57987576   179.99649833
 H      6   5   4     2.058256560841   120.58966647   180.00407873
 C      2   1   3     2.862175682495   118.09498975   180.00717633
 H      9   2   1     2.092603202698   108.08554865    56.53583593
 H      9   2   1     2.092604597983   108.08373473   303.58115220
 C      9   2   1     2.892631192693   116.80037975   180.05817530
 H     12   9   2     2.088987519150   109.70863875   301.77526487
 H     12   9   2     2.088994852900   109.70533895    58.22859499
 C     12   9   2     2.898004773814   112.66110610   180.00330809
 H     15  12   9     2.089549860255   109.21375556   302.33041746
 H     15  12   9     2.089553085746   109.21334430    57.68537979
 C     15  12   9     2.892537787982   113.10306878   180.00694349
 H     18  15  12     2.085734557013   111.28414506    59.89992609
 H     18  15  12     2.085734236551   111.28296678   300.14024699
 C      5   4   3     2.866294398633   119.08294723   179.99717513
 H     21   5   4     2.089244732671   107.91606357   303.71010554
 H     21   5   4     2.089237810365   107.91447116    56.23744276
 C     21   5   4     2.892260295668   117.05478227   179.97241622
 H     24  21   5     2.089332392289   109.87974611   301.69490790
 H     24  21   5     2.089327513843   109.88387210    58.29948666
 C     24  21   5     2.898395023790   112.56596700   179.99750910
 H     27  24  21     2.089789219351   109.19151542   302.31939476
 H     27  24  21     2.089787650694   109.19103185    57.66089102
 C     27  24  21     2.892642262662   113.16229170   179.99053428
 H     30  27  24     2.085658005557   111.27817027    59.84672669
 H     30  27  24     2.085658577232   111.27899064   300.11506702
 H     18  15  12     2.082440993441   111.45985784   180.02058315
 H     30  27  24     2.082579751245   111.48590938   179.98045042
 H      4   3   2     2.609924215060   121.11801786   180.00328207

---------------------
BASIS SET INFORMATION
---------------------
There are 2 groups of distinct atoms

 Group   1 Type C   : 10s5p1d contracted to 6s2p1d pattern {511111/41/1}
 Group   2 Type H   : 6s1p contracted to 4s1p pattern {3111/1}

Atom   0C    basis set group =>   1
Atom   1C    basis set group =>   1
Atom   2C    basis set group =>   1
Atom   3C    basis set group =>   1
Atom   4C    basis set group =>   1
Atom   5C    basis set group =>   1
Atom   6H    basis set group =>   2
Atom   7H    basis set group =>   2
Atom   8C    basis set group =>   1
Atom   9H    basis set group =>   2
Atom  10H    basis set group =>   2
Atom  11C    basis set group =>   1
Atom  12H    basis set group =>   2
Atom  13H    basis set group =>   2
Atom  14C    basis set group =>   1
Atom  15H    basis set group =>   2
Atom  16H    basis set group =>   2
Atom  17C    basis set group =>   1
Atom  18H    basis set group =>   2
Atom  19H    basis set group =>   2
Atom  20C    basis set group =>   1
Atom  21H    basis set group =>   2
Atom  22H    basis set group =>   2
Atom  23C    basis set group =>   1
Atom  24H    basis set group =>   2
Atom  25H    basis set group =>   2
Atom  26C    basis set group =>   1
Atom  27H    basis set group =>   2
Atom  28H    basis set group =>   2
Atom  29C    basis set group =>   1
Atom  30H    basis set group =>   2
Atom  31H    basis set group =>   2
Atom  32H    basis set group =>   2
Atom  33H    basis set group =>   2
Atom  34H    basis set group =>   2
---------------------------------
AUXILIARY/J BASIS SET INFORMATION
---------------------------------
There are 2 groups of distinct atoms

 Group   1 Type C   : 12s5p4d2f1g contracted to 6s4p3d1f1g pattern {711111/2111/211/2/1}
 Group   2 Type H   : 5s2p1d contracted to 3s1p1d pattern {311/2/1}

Atom   0C    basis set group =>   1
Atom   1C    basis set group =>   1
Atom   2C    basis set group =>   1
Atom   3C    basis set group =>   1
Atom   4C    basis set group =>   1
Atom   5C    basis set group =>   1
Atom   6H    basis set group =>   2
Atom   7H    basis set group =>   2
Atom   8C    basis set group =>   1
Atom   9H    basis set group =>   2
Atom  10H    basis set group =>   2
Atom  11C    basis set group =>   1
Atom  12H    basis set group =>   2
Atom  13H    basis set group =>   2
Atom  14C    basis set group =>   1
Atom  15H    basis set group =>   2
Atom  16H    basis set group =>   2
Atom  17C    basis set group =>   1
Atom  18H    basis set group =>   2
Atom  19H    basis set group =>   2
Atom  20C    basis set group =>   1
Atom  21H    basis set group =>   2
Atom  22H    basis set group =>   2
Atom  23C    basis set group =>   1
Atom  24H    basis set group =>   2
Atom  25H    basis set group =>   2
Atom  26C    basis set group =>   1
Atom  27H    basis set group =>   2
Atom  28H    basis set group =>   2
Atom  29C    basis set group =>   1
Atom  30H    basis set group =>   2
Atom  31H    basis set group =>   2
Atom  32H    basis set group =>   2
Atom  33H    basis set group =>   2
Atom  34H    basis set group =>   2


           ************************************************************
           *        Program running with 16 parallel MPI-processes    *
           *              working on a common directory               *
           ************************************************************
------------------------------------------------------------------------------
                           ORCA GTO INTEGRAL CALCULATION
                           -- RI-GTO INTEGRALS CHOSEN --
------------------------------------------------------------------------------
------------------------------------------------------------------------------
                   ___                                                        
                  /   \      - P O W E R E D   B Y -                         
                 /     \                                                     
                 |  |  |   _    _      __       _____    __    __             
                 |  |  |  | |  | |    /  \     |  _  \  |  |  /  |          
                  \  \/   | |  | |   /    \    | | | |  |  | /  /          
                 / \  \   | |__| |  /  /\  \   | |_| |  |  |/  /          
                |  |  |   |  __  | /  /__\  \  |    /   |      \           
                |  |  |   | |  | | |   __   |  |    \   |  |\   \          
                \     /   | |  | | |  |  |  |  | |\  \  |  | \   \       
                 \___/    |_|  |_| |__|  |__|  |_| \__\ |__|  \__/        
                                                                              
                      - O R C A' S   B I G   F R I E N D -                    
                                      &                                       
                       - I N T E G R A L  F E E D E R -                       
                                                                              
 v1 FN, 2020, v2 2021                                                         
------------------------------------------------------------------------------


Reading SHARK input file BDE.SHARKINP.tmp ... ok
----------------------
SHARK INTEGRAL PACKAGE
----------------------

Number of atoms                             ...     35
Number of basis functions                   ...    385
Number of shells                            ...    231
Maximum angular momentum                    ...      2
Integral batch strategy                     ... SHARK/LIBINT Hybrid
RI-J (if used) integral strategy            ... SPLIT-RIJ (Revised 2003 algorithm where possible)
Printlevel                                  ...      1
Contraction scheme used                     ... SEGMENTED contraction
Coulomb Range Separation                    ... NOT USED
Exchange Range Separation                   ... NOT USED
Finite Nucleus Model                        ... NOT USED
Auxiliary Coulomb fitting basis             ... AVAILABLE
   # of basis functions in Aux-J            ...    917
   # of shells in Aux-J                     ...    315
   Maximum angular momentum in Aux-J        ...      4
Auxiliary J/K fitting basis                 ... NOT available
Auxiliary Correlation fitting basis         ... NOT available
Auxiliary 'external' fitting basis          ... NOT available
Integral threshold                          ...     2.500000e-11
Primitive cut-off                           ...     2.500000e-12
Primitive pair pre-selection threshold      ...     2.500000e-12

Calculating pre-screening integrals         ... done (  0.1 sec) Dimension = 231
Organizing shell pair data                  ... done (  0.1 sec)
Shell pair information
Total number of shell pairs                 ...     26796
Shell pairs after pre-screening             ...     15685
Total number of primitive shell pairs       ...     69293
Primitive shell pairs kept                  ...     29944
          la=0 lb=0:   7406 shell pairs
          la=1 lb=0:   5366 shell pairs
          la=1 lb=1:    903 shell pairs
          la=2 lb=0:   1440 shell pairs
          la=2 lb=1:    495 shell pairs
          la=2 lb=2:     75 shell pairs

Calculating one electron integrals          ... done (  0.0 sec)
Calculating RI/J V-Matrix + Cholesky decomp.... done (  0.1 sec)
Calculating Nuclear repulsion               ... done (  0.0 sec) ENN=    799.447146254564 Eh

SHARK setup successfully completed in   0.6 seconds

Maximum memory used throughout the entire GTOINT-calculation: 22.9 MB


           ************************************************************
           *        Program running with 16 parallel MPI-processes    *
           *              working on a common directory               *
           ************************************************************
-------------------------------------------------------------------------------
                                 ORCA SCF
-------------------------------------------------------------------------------

------------
SCF SETTINGS
------------
Hamiltonian:
 Density Functional     Method          .... DFT(GTOs)
 Exchange Functional    Exchange        .... B88
   X-Alpha parameter    XAlpha          ....  0.666667
   Becke's b parameter  XBeta           ....  0.004200
 Correlation Functional Correlation     .... LYP
 LDA part of GGA corr.  LDAOpt          .... VWN-5
 Gradients option       PostSCFGGA      .... off
 Hybrid DFT is turned on
   Fraction HF Exchange ScalHFX         ....  0.200000
   Scaling of DF-GGA-X  ScalDFX         ....  0.720000
   Scaling of DF-GGA-C  ScalDFC         ....  0.810000
   Scaling of DF-LDA-C  ScalLDAC        ....  1.000000
   Perturbative correction              ....  0.000000
   Density functional embedding theory  .... OFF
   NL short-range parameter             ....  4.800000
 RI-approximation to the Coulomb term is turned on
   Number of AuxJ basis functions       .... 917
   RIJ-COSX (HFX calculated with COS-X)).... on


General Settings:
 Integral files         IntName         .... BDE
 Hartree-Fock type      HFTyp           .... UHF
 Total Charge           Charge          ....    0
 Multiplicity           Mult            ....    2
 Number of Electrons    NEL             ....  105
 Basis Dimension        Dim             ....  385
 Nuclear Repulsion      ENuc            ....    799.4471462546 Eh

Convergence Acceleration:
 DIIS                   CNVDIIS         .... on
   Start iteration      DIISMaxIt       ....    12
   Startup error        DIISStart       ....  0.200000
   # of expansion vecs  DIISMaxEq       ....     5
   Bias factor          DIISBfac        ....   1.050
   Max. coefficient     DIISMaxC        ....  10.000
 Trust-Rad. Augm. Hess. CNVTRAH         .... auto
   Auto Start mean grad. ratio tolernc. ....  1.125000
   Auto Start start iteration           ....    20
   Auto Start num. interpolation iter.  ....    10
   Max. Number of Micro iterations      ....    16
   Max. Number of Macro iterations      .... Maxiter - #DIIS iter
   Number of Davidson start vectors     ....     2
   Converg. threshold I  (grad. norm)   ....   1.000e-05
   Converg. threshold II (energy diff.) ....   1.000e-08
   Grad. Scal. Fac. for Micro threshold ....   0.100
   Minimum threshold for Micro iter.    ....   0.010
   NR start threshold (gradient norm)   ....   0.001
   Initial trust radius                 ....   0.400
   Minimum AH scaling param. (alpha)    ....   1.000
   Maximum AH scaling param. (alpha)    .... 1000.000
   Orbital update algorithm             .... Taylor
   White noise on init. David. guess    .... on
   Maximum white noise                  ....   0.010
   Quad. conv. algorithm                .... NR
 SOSCF                  CNVSOSCF        .... off
 Level Shifting         CNVShift        .... on
   Level shift para.    LevelShift      ....    0.2500
   Turn off err/grad.   ShiftErr        ....    0.0010
 Zerner damping         CNVZerner       .... off
 Static damping         CNVDamp         .... on
   Fraction old density DampFac         ....    0.7000
   Max. Damping (<1)    DampMax         ....    0.9800
   Min. Damping (>=0)   DampMin         ....    0.0000
   Turn off err/grad.   DampErr         ....    0.1000
 Fernandez-Rico         CNVRico         .... off

SCF Procedure:
 Maximum # iterations   MaxIter         ....   125
 SCF integral mode      SCFMode         .... Direct
   Integral package                     .... SHARK and LIBINT hybrid scheme
 Reset frequency        DirectResetFreq ....    20
 Integral Threshold     Thresh          ....  2.500e-11 Eh
 Primitive CutOff       TCut            ....  2.500e-12 Eh

Convergence Tolerance:
 Convergence Check Mode ConvCheckMode   .... Total+1el-Energy
 Convergence forced     ConvForced      .... 0
 Energy Change          TolE            ....  1.000e-08 Eh
 1-El. energy change                    ....  1.000e-05 Eh
 DIIS Error             TolErr          ....  5.000e-07


Diagonalization of the overlap matrix:
Smallest eigenvalue                        ... 3.422e-04
Time for diagonalization                   ...    0.028 sec
Threshold for overlap eigenvalues          ... 1.000e-08
Number of eigenvalues below threshold      ... 0
Time for construction of square roots      ...    0.033 sec
Total time needed                          ...    0.062 sec

Time for model grid setup =    0.204 sec

------------------------------
INITIAL GUESS: MODEL POTENTIAL
------------------------------
Loading Hartree-Fock densities                     ... done
Calculating cut-offs                               ... done
Initializing the effective Hamiltonian             ... done
Setting up the integral package (SHARK)            ... done
Starting the Coulomb interaction                   ... done (   0.2 sec)
Reading the grid                                   ... done
Mapping shells                                     ... done
Starting the XC term evaluation                    ... done (   0.1 sec)
  promolecular density results
     # of electrons  =    104.997161241
     EX              =    -78.085094842
     EC              =     -3.398580455
     EX+EC           =    -81.483675297
Transforming the Hamiltonian                       ... done (   0.0 sec)
Diagonalizing the Hamiltonian                      ... done (   0.0 sec)
Back transforming the eigenvectors                 ... done (   0.0 sec)
Now organizing SCF variables                       ... done
                      ------------------
                      INITIAL GUESS DONE (   0.7 sec)
                      ------------------
-------------------
DFT GRID GENERATION
-------------------

General Integration Accuracy     IntAcc      ... 4.388
Radial Grid Type                 RadialGrid  ... OptM3 with GC (2021)
Angular Grid (max. ang.)         AngularGrid ... 4 (Lebedev-302)
Angular grid pruning method      GridPruning ... 4 (adaptive)
Weight generation scheme         WeightScheme... Becke
Basis function cutoff            BFCut       ... 1.0000e-11
Integration weight cutoff        WCut        ... 1.0000e-14
Angular grids for H and He will be reduced by one unit
Partially contracted basis set               ... off
Rotationally invariant grid construction     ... off

Total number of grid points                  ...   150870
Total number of batches                      ...     2375
Average number of points per batch           ...       63
Average number of grid points per atom       ...     4311
Time for grid setup =    0.790 sec

--------------------
COSX GRID GENERATION
--------------------

GRIDX 1
-------
General Integration Accuracy     IntAcc      ... 3.816
Radial Grid Type                 RadialGrid  ... OptM3 with GC (2021)
Angular Grid (max. ang.)         AngularGrid ... 1 (Lebedev-50)
Angular grid pruning method      GridPruning ... 4 (adaptive)
Weight generation scheme         WeightScheme... Becke
Basis function cutoff            BFCut       ... 1.0000e-11
Integration weight cutoff        WCut        ... 1.0000e-14
Angular grids for H and He will be reduced by one unit
Partially contracted basis set               ... on
Rotationally invariant grid construction     ... off

Total number of grid points                  ...    19280
Total number of batches                      ...      323
Average number of points per batch           ...       59
Average number of grid points per atom       ...      551
UseSFitting                                  ... on

GRIDX 2
-------
General Integration Accuracy     IntAcc      ... 4.020
Radial Grid Type                 RadialGrid  ... OptM3 with GC (2021)
Angular Grid (max. ang.)         AngularGrid ... 2 (Lebedev-110)
Angular grid pruning method      GridPruning ... 4 (adaptive)
Weight generation scheme         WeightScheme... Becke
Basis function cutoff            BFCut       ... 1.0000e-11
Integration weight cutoff        WCut        ... 1.0000e-14
Angular grids for H and He will be reduced by one unit
Partially contracted basis set               ... on
Rotationally invariant grid construction     ... off

Total number of grid points                  ...    40426
Total number of batches                      ...      647
Average number of points per batch           ...       62
Average number of grid points per atom       ...     1155
UseSFitting                                  ... on

GRIDX 3
-------
General Integration Accuracy     IntAcc      ... 4.338
Radial Grid Type                 RadialGrid  ... OptM3 with GC (2021)
Angular Grid (max. ang.)         AngularGrid ... 3 (Lebedev-194)
Angular grid pruning method      GridPruning ... 4 (adaptive)
Weight generation scheme         WeightScheme... Becke
Basis function cutoff            BFCut       ... 1.0000e-11
Integration weight cutoff        WCut        ... 1.0000e-14
Angular grids for H and He will be reduced by one unit
Partially contracted basis set               ... on
Rotationally invariant grid construction     ... off

Total number of grid points                  ...    88417
Total number of batches                      ...     1401
Average number of points per batch           ...       63
Average number of grid points per atom       ...     2526
UseSFitting                                  ... on

Time for X-Grid setup             =    1.424 sec

--------------
SCF ITERATIONS
--------------
ITER       Energy         Delta-E        Max-DP      RMS-DP      [F,P]     Damp
               ***  Starting incremental Fock matrix formation  ***
  0   -545.3321073940   0.000000000000 0.04154245  0.00070242  0.0797867 0.7000
  1   -545.5149102855  -0.182802891498 0.02842354  0.00052121  0.0427526 0.7000
                               ***Turning on DIIS***
  2   -545.5909630352  -0.076052749634 0.05166358  0.00095385  0.0166134 0.0000
  3   -545.6952336980  -0.104270662843 0.02026143  0.00034546  0.0241122 0.0000
  4   -545.7281437000  -0.032910001981 0.01216503  0.00013194  0.0056451 0.0000
  5   -545.7295962189  -0.001452518893 0.00520325  0.00005847  0.0036085 0.0000
  6   -545.7298236064  -0.000227387555 0.00250248  0.00002518  0.0011630 0.0000
  7   -545.7298661992  -0.000042592761 0.00353564  0.00002601  0.0007673 0.0000
               *** Restarting incremental Fock matrix formation ***
                                   *** Resetting DIIS ***
  8   -545.7301581422  -0.000291942957 0.00208304  0.00001396  0.0005391 0.0000
  9   -545.7301702079  -0.000012065785 0.00086488  0.00000586  0.0005182 0.0000
 10   -545.7301758779  -0.000005669913 0.00180432  0.00000878  0.0003653 0.0000
 11   -545.7301815630  -0.000005685179 0.00149708  0.00000824  0.0003058 0.0000
 12   -545.7301850646  -0.000003501539 0.00070087  0.00000399  0.0000910 0.0000
 13   -545.7301855551  -0.000000490498 0.00011101  0.00000068  0.0000340 0.0000
 14   -545.7301855972  -0.000000042159 0.00006101  0.00000036  0.0000202 0.0000
 15   -545.7301855971   0.000000000131 0.00002666  0.00000018  0.0000154 0.0000
 16   -545.7301856075  -0.000000010434 0.00001464  0.00000011  0.0000066 0.0000
 17   -545.7301856123  -0.000000004752 0.00000847  0.00000005  0.0000037 0.0000
 18   -545.7301856117   0.000000000605 0.00000732  0.00000004  0.0000022 0.0000
 19   -545.7301855977   0.000000013964 0.00000530  0.00000004  0.0000014 0.0000
                 **** Energy Check signals convergence ****

               *****************************************************
               *                     SUCCESS                       *
               *           SCF CONVERGED AFTER  20 CYCLES          *
               *****************************************************

Old exchange energy                            =    -15.956236286 Eh
New exchange energy                            =    -15.956184390 Eh
Exchange energy change after final integration =      0.000051895 Eh
Total energy after final integration           =   -545.730133702 Eh
Final COS-X integration done in                =     3.916 sec

----------------
TOTAL SCF ENERGY
----------------

Total Energy       :         -545.73013370 Eh          -14850.07190 eV

Components:
Nuclear Repulsion  :          799.44714625 Eh           21754.06280 eV
Electronic Energy  :        -1345.17727996 Eh          -36604.13471 eV
One Electron Energy:        -2320.09563114 Eh          -63133.01174 eV
Two Electron Energy:          974.91835118 Eh           26528.87704 eV
Max COSX asymmetry :            0.00000070 Eh               0.00002 eV

Virial components:
Potential Energy   :        -1086.66207135 Eh          -29569.57825 eV
Kinetic Energy     :          540.93193765 Eh           14719.50635 eV
Virial Ratio       :            2.00887024


DFT components:
N(Alpha)           :       53.000105929042 electrons
N(Beta)            :       52.000104228236 electrons
N(Total)           :      105.000210157278 electrons
E(X)               :      -63.251823485601 Eh       
E(C)               :       -4.014483690033 Eh       
E(XC)              :      -67.266307175634 Eh       
DFET-embed. en.    :        0.000000000000 Eh       

---------------
SCF CONVERGENCE
---------------

  Last Energy change         ...    3.7960e-10  Tolerance :   1.0000e-08
  Last MAX-Density change    ...    0.0000e+00  Tolerance :   1.0000e-07
  Last RMS-Density change    ...    0.0000e+00  Tolerance :   5.0000e-09
  Last DIIS Error            ...    8.8157e-07  Tolerance :   5.0000e-07

             **** THE GBW FILE WAS UPDATED (BDE.gbw) ****
             **** DENSITY BDE.scfp WAS UPDATED ****
             **** ENERGY FILE WAS UPDATED (BDE.en.tmp) ****
----------------------
UHF SPIN CONTAMINATION
----------------------

Warning: in a DFT calculation there is little theoretical justification to 
         calculate <S**2> as in Hartree-Fock theory. We will do it anyways
         but you should keep in mind that the values have only limited relevance

Expectation value of <S**2>     :     0.762758
Ideal value S*(S+1) for S=0.5   :     0.750000
Deviation                       :     0.012758

             **** THE GBW FILE WAS UPDATED (BDE.gbw) ****
             **** DENSITY BDE.scfp WAS UPDATED ****
----------------
ORBITAL ENERGIES
----------------
                 SPIN UP ORBITALS
  NO   OCC          E(Eh)            E(eV) 
   0   1.0000     -10.224359      -278.2190 
   1   1.0000     -10.217672      -278.0370 
   2   1.0000     -10.209500      -277.8146 
   3   1.0000     -10.207886      -277.7707 
   4   1.0000     -10.198495      -277.5152 
   5   1.0000     -10.197679      -277.4929 
   6   1.0000     -10.187905      -277.2270 
   7   1.0000     -10.186984      -277.2019 
   8   1.0000     -10.182688      -277.0850 
   9   1.0000     -10.182339      -277.0755 
  10   1.0000     -10.181774      -277.0602 
  11   1.0000     -10.181258      -277.0461 
  12   1.0000     -10.173346      -276.8308 
  13   1.0000     -10.172768      -276.8151 
  14   1.0000      -0.851975       -23.1834 
  15   1.0000      -0.808458       -21.9993 
  16   1.0000      -0.789901       -21.4943 
  17   1.0000      -0.764554       -20.8046 
  18   1.0000      -0.726576       -19.7711 
  19   1.0000      -0.725404       -19.7392 
  20   1.0000      -0.693033       -18.8584 
  21   1.0000      -0.646398       -17.5894 
  22   1.0000      -0.614163       -16.7122 
  23   1.0000      -0.599090       -16.3021 
  24   1.0000      -0.576191       -15.6789 
  25   1.0000      -0.567395       -15.4396 
  26   1.0000      -0.548439       -14.9238 
  27   1.0000      -0.471489       -12.8299 
  28   1.0000      -0.469814       -12.7843 
  29   1.0000      -0.468499       -12.7485 
  30   1.0000      -0.456243       -12.4150 
  31   1.0000      -0.434111       -11.8128 
  32   1.0000      -0.422784       -11.5045 
  33   1.0000      -0.419034       -11.4025 
  34   1.0000      -0.418657       -11.3922 
  35   1.0000      -0.415275       -11.3002 
  36   1.0000      -0.406930       -11.0731 
  37   1.0000      -0.378140       -10.2897 
  38   1.0000      -0.365699        -9.9512 
  39   1.0000      -0.365160        -9.9365 
  40   1.0000      -0.356430        -9.6990 
  41   1.0000      -0.354910        -9.6576 
  42   1.0000      -0.349530        -9.5112 
  43   1.0000      -0.331263        -9.0141 
  44   1.0000      -0.331208        -9.0126 
  45   1.0000      -0.328307        -8.9337 
  46   1.0000      -0.323738        -8.8094 
  47   1.0000      -0.322661        -8.7801 
  48   1.0000      -0.320329        -8.7166 
  49   1.0000      -0.311810        -8.4848 
  50   1.0000      -0.255682        -6.9575 
  51   1.0000      -0.248480        -6.7615 
  52   1.0000      -0.229338        -6.2406 
  53   0.0000      -0.021376        -0.5817 
  54   0.0000       0.006554         0.1783 
  55   0.0000       0.017920         0.4876 
  56   0.0000       0.023971         0.6523 
  57   0.0000       0.025594         0.6965 
  58   0.0000       0.034709         0.9445 
  59   0.0000       0.035427         0.9640 
  60   0.0000       0.048916         1.3311 
  61   0.0000       0.050855         1.3838 
  62   0.0000       0.070910         1.9295 
  63   0.0000       0.079894         2.1740 
  64   0.0000       0.097738         2.6596 
  65   0.0000       0.103205         2.8083 
  66   0.0000       0.105950         2.8830 
  67   0.0000       0.124517         3.3883 
  68   0.0000       0.129600         3.5266 
  69   0.0000       0.152915         4.1610 
  70   0.0000       0.159193         4.3319 
  71   0.0000       0.171074         4.6552 
  72   0.0000       0.177109         4.8194 
  73   0.0000       0.178713         4.8630 
  74   0.0000       0.186165         5.0658 
  75   0.0000       0.193322         5.2606 
  76   0.0000       0.197921         5.3857 
  77   0.0000       0.198685         5.4065 
  78   0.0000       0.199617         5.4319 
  79   0.0000       0.202184         5.5017 
  80   0.0000       0.211110         5.7446 
  81   0.0000       0.217810         5.9269 
  82   0.0000       0.219095         5.9619 
  83   0.0000       0.222938         6.0664 
  84   0.0000       0.235977         6.4213 
  85   0.0000       0.238091         6.4788 
  86   0.0000       0.243716         6.6319 
  87   0.0000       0.249594         6.7918 
  88   0.0000       0.253124         6.8878 
  89   0.0000       0.256650         6.9838 
  90   0.0000       0.260337         7.0841 
  91   0.0000       0.270714         7.3665 
  92   0.0000       0.273636         7.4460 
  93   0.0000       0.279515         7.6060 
  94   0.0000       0.284796         7.7497 
  95   0.0000       0.288292         7.8448 
  96   0.0000       0.291419         7.9299 
  97   0.0000       0.298707         8.1282 
  98   0.0000       0.300049         8.1648 
  99   0.0000       0.304523         8.2865 
 100   0.0000       0.314553         8.5594 
 101   0.0000       0.314698         8.5634 
 102   0.0000       0.320535         8.7222 
 103   0.0000       0.329451         8.9648 
 104   0.0000       0.332863         9.0577 
 105   0.0000       0.339461         9.2372 
 106   0.0000       0.339696         9.2436 
 107   0.0000       0.357950         9.7403 
 108   0.0000       0.361696         9.8423 
 109   0.0000       0.368135        10.0175 
 110   0.0000       0.370064        10.0700 
 111   0.0000       0.375972        10.2307 
 112   0.0000       0.376471        10.2443 
 113   0.0000       0.381322        10.3763 
 114   0.0000       0.401643        10.9293 
 115   0.0000       0.409111        11.1325 
 116   0.0000       0.412741        11.2313 
 117   0.0000       0.419664        11.4196 
 118   0.0000       0.424392        11.5483 
 119   0.0000       0.428727        11.6663 
 120   0.0000       0.432859        11.7787 
 121   0.0000       0.458173        12.4675 
 122   0.0000       0.469510        12.7760 
 123   0.0000       0.472415        12.8551 
 124   0.0000       0.482044        13.1171 
 125   0.0000       0.486930        13.2500 
 126   0.0000       0.494815        13.4646 
 127   0.0000       0.501661        13.6509 
 128   0.0000       0.508356        13.8331 
 129   0.0000       0.521331        14.1861 
 130   0.0000       0.524645        14.2763 
 131   0.0000       0.529538        14.4095 
 132   0.0000       0.543151        14.7799 
 133   0.0000       0.546521        14.8716 
 134   0.0000       0.560694        15.2572 
 135   0.0000       0.568290        15.4640 
 136   0.0000       0.577939        15.7265 
 137   0.0000       0.579664        15.7735 
 138   0.0000       0.609684        16.5904 
 139   0.0000       0.638850        17.3840 
 140   0.0000       0.644257        17.5311 
 141   0.0000       0.669472        18.2173 
 142   0.0000       0.679185        18.4816 
 143   0.0000       0.710389        19.3307 
 144   0.0000       0.743552        20.2331 
 145   0.0000       0.749361        20.3911 
 146   0.0000       0.766510        20.8578 
 147   0.0000       0.776179        21.1209 
 148   0.0000       0.789621        21.4867 
 149   0.0000       0.806264        21.9396 
 150   0.0000       0.836983        22.7755 
 151   0.0000       0.843484        22.9524 
 152   0.0000       0.845328        23.0025 
 153   0.0000       0.845404        23.0046 
 154   0.0000       0.863750        23.5038 
 155   0.0000       0.864917        23.5356 
 156   0.0000       0.877852        23.8876 
 157   0.0000       0.882449        24.0127 
 158   0.0000       0.893910        24.3245 
 159   0.0000       0.896551        24.3964 
 160   0.0000       0.897775        24.4297 
 161   0.0000       0.920023        25.0351 
 162   0.0000       0.921796        25.0833 
 163   0.0000       0.922751        25.1093 
 164   0.0000       0.926151        25.2018 
 165   0.0000       0.930249        25.3134 
 166   0.0000       0.941317        25.6145 
 167   0.0000       0.953330        25.9414 
 168   0.0000       0.958027        26.0692 
 169   0.0000       0.961204        26.1557 
 170   0.0000       0.976985        26.5851 
 171   0.0000       0.984845        26.7990 
 172   0.0000       0.988750        26.9052 
 173   0.0000       0.997819        27.1520 
 174   0.0000       1.007730        27.4217 
 175   0.0000       1.025996        27.9188 
 176   0.0000       1.027096        27.9487 
 177   0.0000       1.045369        28.4459 
 178   0.0000       1.049248        28.5515 
 179   0.0000       1.049779        28.5659 
 180   0.0000       1.066555        29.0224 
 181   0.0000       1.078931        29.3592 
 182   0.0000       1.089419        29.6446 
 183   0.0000       1.105531        30.0830 
 184   0.0000       1.107367        30.1330 
 185   0.0000       1.110704        30.2238 
 186   0.0000       1.111606        30.2483 
 187   0.0000       1.157390        31.4942 
 188   0.0000       1.177161        32.0322 
 189   0.0000       1.179638        32.0996 
 190   0.0000       1.180768        32.1303 
 191   0.0000       1.185348        32.2550 
 192   0.0000       1.203963        32.7615 
 193   0.0000       1.204571        32.7780 
 194   0.0000       1.217476        33.1292 
 195   0.0000       1.240061        33.7438 
 196   0.0000       1.263582        34.3838 
 197   0.0000       1.271848        34.6087 
 198   0.0000       1.282461        34.8975 
 199   0.0000       1.282580        34.9008 
 200   0.0000       1.304636        35.5010 
 201   0.0000       1.338708        36.4281 
 202   0.0000       1.347164        36.6582 
 203   0.0000       1.360644        37.0250 
 204   0.0000       1.366082        37.1730 
 205   0.0000       1.401964        38.1494 
 206   0.0000       1.419856        38.6362 
 207   0.0000       1.419927        38.6382 
 208   0.0000       1.426938        38.8290 
 209   0.0000       1.429497        38.8986 
 210   0.0000       1.450605        39.4730 
 211   0.0000       1.452393        39.5216 
 212   0.0000       1.457907        39.6717 
 213   0.0000       1.497227        40.7416 
 214   0.0000       1.504272        40.9333 
 215   0.0000       1.507061        41.0092 
 216   0.0000       1.519384        41.3446 
 217   0.0000       1.528041        41.5801 
 218   0.0000       1.541717        41.9523 
 219   0.0000       1.547383        42.1064 
 220   0.0000       1.555409        42.3248 
 221   0.0000       1.561814        42.4991 
 222   0.0000       1.562939        42.5297 
 223   0.0000       1.578970        42.9660 
 224   0.0000       1.584686        43.1215 
 225   0.0000       1.595443        43.4142 
 226   0.0000       1.597825        43.4790 
 227   0.0000       1.602058        43.5942 
 228   0.0000       1.607055        43.7302 
 229   0.0000       1.615693        43.9652 
 230   0.0000       1.616182        43.9785 
 231   0.0000       1.631968        44.4081 
 232   0.0000       1.635373        44.5008 
 233   0.0000       1.644223        44.7416 
 234   0.0000       1.656513        45.0760 
 235   0.0000       1.664826        45.3022 
 236   0.0000       1.683430        45.8085 
 237   0.0000       1.691540        46.0292 
 238   0.0000       1.702967        46.3401 
 239   0.0000       1.706177        46.4274 
 240   0.0000       1.710343        46.5408 
 241   0.0000       1.720188        46.8087 
 242   0.0000       1.734699        47.2036 
 243   0.0000       1.736766        47.2598 
 244   0.0000       1.738914        47.3183 
 245   0.0000       1.755368        47.7660 
 246   0.0000       1.761672        47.9375 
 247   0.0000       1.768847        48.1328 
 248   0.0000       1.778255        48.3888 
 249   0.0000       1.787105        48.6296 
 250   0.0000       1.787530        48.6412 
 251   0.0000       1.811897        49.3042 
 252   0.0000       1.821987        49.5788 
 253   0.0000       1.827943        49.7409 
 254   0.0000       1.834408        49.9168 
 255   0.0000       1.880666        51.1755 
 256   0.0000       1.888677        51.3935 
 257   0.0000       1.896668        51.6110 
 258   0.0000       1.921600        52.2894 
 259   0.0000       1.922612        52.3169 
 260   0.0000       1.937415        52.7197 
 261   0.0000       1.942719        52.8641 
 262   0.0000       1.944357        52.9086 
 263   0.0000       1.960001        53.3343 
 264   0.0000       2.007744        54.6335 
 265   0.0000       2.025468        55.1158 
 266   0.0000       2.026092        55.1328 
 267   0.0000       2.047309        55.7101 
 268   0.0000       2.069248        56.3071 
 269   0.0000       2.083028        56.6821 
 270   0.0000       2.104879        57.2767 
 271   0.0000       2.143206        58.3196 
 272   0.0000       2.172913        59.1280 
 273   0.0000       2.179477        59.3066 
 274   0.0000       2.188050        59.5399 
 275   0.0000       2.188351        59.5481 
 276   0.0000       2.210995        60.1642 
 277   0.0000       2.244707        61.0816 
 278   0.0000       2.252605        61.2965 
 279   0.0000       2.260712        61.5171 
 280   0.0000       2.270756        61.7904 
 281   0.0000       2.284928        62.1760 
 282   0.0000       2.300487        62.5994 
 283   0.0000       2.309236        62.8375 
 284   0.0000       2.312911        62.9375 
 285   0.0000       2.319744        63.1234 
 286   0.0000       2.323727        63.2318 
 287   0.0000       2.337337        63.6022 
 288   0.0000       2.348627        63.9094 
 289   0.0000       2.354922        64.0807 
 290   0.0000       2.385110        64.9022 
 291   0.0000       2.419858        65.8477 
 292   0.0000       2.422536        65.9206 
 293   0.0000       2.430681        66.1422 
 294   0.0000       2.447620        66.6031 
 295   0.0000       2.455361        66.8138 
 296   0.0000       2.456093        66.8337 
 297   0.0000       2.470855        67.2354 
 298   0.0000       2.475949        67.3740 
 299   0.0000       2.483781        67.5871 
 300   0.0000       2.497896        67.9712 
 301   0.0000       2.508390        68.2568 
 302   0.0000       2.527654        68.7810 
 303   0.0000       2.539023        69.0903 
 304   0.0000       2.554119        69.5011 
 305   0.0000       2.567777        69.8728 
 306   0.0000       2.601406        70.7878 
 307   0.0000       2.610679        71.0402 
 308   0.0000       2.612277        71.0837 
 309   0.0000       2.619571        71.2821 
 310   0.0000       2.620094        71.2964 
 311   0.0000       2.632463        71.6330 
 312   0.0000       2.725648        74.1687 
 313   0.0000       2.807382        76.3928 
 314   0.0000       3.102781        84.4310 
 315   0.0000       4.963052       135.0515 
 316   0.0000       4.982030       135.5679 
 317   0.0000       4.984284       135.6293 
 318   0.0000       5.006780       136.2414 
 319   0.0000       5.007714       136.2668 
 320   0.0000       5.009467       136.3145 
 321   0.0000       5.010659       136.3470 
 322   0.0000       5.031493       136.9139 
 323   0.0000       5.034658       137.0000 
 324   0.0000       5.042502       137.2134 
 325   0.0000       5.047082       137.3381 
 326   0.0000       5.084183       138.3476 
 327   0.0000       5.201991       141.5534 
 328   0.0000       5.212705       141.8449 
 329   0.0000       5.254093       142.9711 
 330   0.0000       5.261006       143.1593 
 331   0.0000       5.266629       143.3123 
 332   0.0000       5.287974       143.8931 
 333   0.0000       5.297278       144.1463 
 334   0.0000       5.301802       144.2694 
 335   0.0000       5.321321       144.8005 
 336   0.0000       5.341338       145.3452 
 337   0.0000       5.372683       146.1981 
 338   0.0000       5.396668       146.8508 
 339   0.0000       5.425753       147.6423 
 340   0.0000       5.448358       148.2573 
 341   0.0000       5.470509       148.8601 
 342   0.0000       5.568979       151.5396 
 343   0.0000       5.582186       151.8990 
 344   0.0000       5.648414       153.7012 
 345   0.0000       5.720382       155.6595 
 346   0.0000       5.735468       156.0700 
 347   0.0000       5.837379       158.8432 
 348   0.0000       5.873865       159.8360 
 349   0.0000       6.024128       163.9248 
 350   0.0000      29.582641       804.9846 
 351   0.0000      29.791048       810.6556 
 352   0.0000      29.806202       811.0680 
 353   0.0000      29.816058       811.3362 
 354   0.0000      29.886919       813.2644 
 355   0.0000      29.910627       813.9095 
 356   0.0000      29.983963       815.9051 
 357   0.0000      29.986613       815.9772 
 358   0.0000      30.070860       818.2697 
 359   0.0000      30.129346       819.8612 
 360   0.0000      30.134271       819.9952 
 361   0.0000      30.236668       822.7816 
 362   0.0000      30.274057       823.7990 
 363   0.0000      30.367128       826.3316 
 364   0.0000      36.608664       996.1724 
 365   0.0000      36.610911       996.2335 
 366   0.0000      36.625743       996.6371 
 367   0.0000      36.626836       996.6669 
 368   0.0000      36.626863       996.6676 
 369   0.0000      36.631901       996.8047 
 370   0.0000      36.642185       997.0845 
 371   0.0000      36.655149       997.4373 
 372   0.0000      36.659951       997.5680 
 373   0.0000      36.666976       997.7591 
 374   0.0000      36.670715       997.8609 
 375   0.0000      36.806873      1001.5659 
 376   0.0000      36.841999      1002.5217 
 377   0.0000      36.856810      1002.9248 
 378   0.0000      36.871196      1003.3163 
 379   0.0000      36.876495      1003.4605 
 380   0.0000      36.882025      1003.6109 
 381   0.0000      36.926368      1004.8175 
 382   0.0000      36.929360      1004.8990 
 383   0.0000      36.982351      1006.3409 
 384   0.0000      36.988119      1006.4979 

                 SPIN DOWN ORBITALS
  NO   OCC          E(Eh)            E(eV) 
   0   1.0000     -10.218566      -278.0613 
   1   1.0000     -10.209447      -277.8132 
   2   1.0000     -10.208461      -277.7864 
   3   1.0000     -10.206705      -277.7386 
   4   1.0000     -10.198483      -277.5148 
   5   1.0000     -10.196630      -277.4644 
   6   1.0000     -10.187795      -277.2240 
   7   1.0000     -10.186715      -277.1946 
   8   1.0000     -10.182682      -277.0849 
   9   1.0000     -10.182337      -277.0755 
  10   1.0000     -10.181773      -277.0601 
  11   1.0000     -10.181263      -277.0463 
  12   1.0000     -10.173346      -276.8308 
  13   1.0000     -10.172766      -276.8150 
  14   1.0000      -0.846515       -23.0348 
  15   1.0000      -0.807430       -21.9713 
  16   1.0000      -0.789180       -21.4747 
  17   1.0000      -0.763282       -20.7700 
  18   1.0000      -0.726264       -19.7627 
  19   1.0000      -0.715999       -19.4833 
  20   1.0000      -0.690129       -18.7794 
  21   1.0000      -0.645477       -17.5643 
  22   1.0000      -0.612618       -16.6702 
  23   1.0000      -0.593796       -16.1580 
  24   1.0000      -0.575943       -15.6722 
  25   1.0000      -0.561288       -15.2734 
  26   1.0000      -0.542964       -14.7748 
  27   1.0000      -0.469714       -12.7816 
  28   1.0000      -0.468532       -12.7494 
  29   1.0000      -0.466092       -12.6830 
  30   1.0000      -0.451331       -12.2813 
  31   1.0000      -0.429373       -11.6838 
  32   1.0000      -0.421192       -11.4612 
  33   1.0000      -0.418772       -11.3954 
  34   1.0000      -0.417844       -11.3701 
  35   1.0000      -0.415253       -11.2996 
  36   1.0000      -0.405258       -11.0276 
  37   1.0000      -0.377723       -10.2784 
  38   1.0000      -0.364264        -9.9121 
  39   1.0000      -0.364099        -9.9076 
  40   1.0000      -0.354799        -9.6546 
  41   1.0000      -0.354548        -9.6478 
  42   1.0000      -0.344560        -9.3759 
  43   1.0000      -0.330599        -8.9960 
  44   1.0000      -0.329892        -8.9768 
  45   1.0000      -0.326105        -8.8738 
  46   1.0000      -0.323310        -8.7977 
  47   1.0000      -0.322544        -8.7769 
  48   1.0000      -0.320103        -8.7105 
  49   1.0000      -0.308919        -8.4061 
  50   1.0000      -0.247129        -6.7247 
  51   1.0000      -0.222710        -6.0602 
  52   0.0000      -0.096183        -2.6173 
  53   0.0000      -0.010346        -0.2815 
  54   0.0000       0.005840         0.1589 
  55   0.0000       0.017857         0.4859 
  56   0.0000       0.023984         0.6526 
  57   0.0000       0.025761         0.7010 
  58   0.0000       0.035182         0.9574 
  59   0.0000       0.036844         1.0026 
  60   0.0000       0.049103         1.3362 
  61   0.0000       0.050908         1.3853 
  62   0.0000       0.075409         2.0520 
  63   0.0000       0.080122         2.1802 
  64   0.0000       0.097979         2.6661 
  65   0.0000       0.103446         2.8149 
  66   0.0000       0.107024         2.9123 
  67   0.0000       0.129040         3.5114 
  68   0.0000       0.132287         3.5997 
  69   0.0000       0.155359         4.2275 
  70   0.0000       0.159694         4.3455 
  71   0.0000       0.171146         4.6571 
  72   0.0000       0.177461         4.8290 
  73   0.0000       0.178698         4.8626 
  74   0.0000       0.186890         5.0855 
  75   0.0000       0.193620         5.2687 
  76   0.0000       0.197954         5.3866 
  77   0.0000       0.198819         5.4101 
  78   0.0000       0.200835         5.4650 
  79   0.0000       0.204286         5.5589 
  80   0.0000       0.211796         5.7633 
  81   0.0000       0.217999         5.9320 
  82   0.0000       0.220460         5.9990 
  83   0.0000       0.223954         6.0941 
  84   0.0000       0.236598         6.4382 
  85   0.0000       0.238774         6.4974 
  86   0.0000       0.245334         6.6759 
  87   0.0000       0.251185         6.8351 
  88   0.0000       0.253352         6.8941 
  89   0.0000       0.257153         6.9975 
  90   0.0000       0.260869         7.0986 
  91   0.0000       0.272552         7.4165 
  92   0.0000       0.275502         7.4968 
  93   0.0000       0.279637         7.6093 
  94   0.0000       0.285069         7.7571 
  95   0.0000       0.291091         7.9210 
  96   0.0000       0.293346         7.9824 
  97   0.0000       0.299146         8.1402 
  98   0.0000       0.302163         8.2223 
  99   0.0000       0.304885         8.2963 
 100   0.0000       0.314779         8.5656 
 101   0.0000       0.315708         8.5909 
 102   0.0000       0.321503         8.7485 
 103   0.0000       0.329899         8.9770 
 104   0.0000       0.336378         9.1533 
 105   0.0000       0.341097         9.2817 
 106   0.0000       0.342215         9.3122 
 107   0.0000       0.359604         9.7853 
 108   0.0000       0.362724         9.8702 
 109   0.0000       0.369883        10.0650 
 110   0.0000       0.370259        10.0753 
 111   0.0000       0.377226        10.2648 
 112   0.0000       0.379084        10.3154 
 113   0.0000       0.383933        10.4474 
 114   0.0000       0.404667        11.0116 
 115   0.0000       0.411649        11.2015 
 116   0.0000       0.414043        11.2667 
 117   0.0000       0.422102        11.4860 
 118   0.0000       0.424326        11.5465 
 119   0.0000       0.430773        11.7219 
 120   0.0000       0.446330        12.1452 
 121   0.0000       0.460960        12.5433 
 122   0.0000       0.469483        12.7753 
 123   0.0000       0.482243        13.1225 
 124   0.0000       0.483920        13.1681 
 125   0.0000       0.490637        13.3509 
 126   0.0000       0.496888        13.5210 
 127   0.0000       0.503557        13.7025 
 128   0.0000       0.510504        13.8915 
 129   0.0000       0.523262        14.2387 
 130   0.0000       0.528341        14.3769 
 131   0.0000       0.532555        14.4916 
 132   0.0000       0.544410        14.8141 
 133   0.0000       0.547852        14.9078 
 134   0.0000       0.565726        15.3942 
 135   0.0000       0.570566        15.5259 
 136   0.0000       0.579922        15.7805 
 137   0.0000       0.580398        15.7934 
 138   0.0000       0.614391        16.7184 
 139   0.0000       0.642554        17.4848 
 140   0.0000       0.647668        17.6239 
[...]
     64      -0.001828  -0.000902   0.000918
     65       0.008078   0.002985  -0.002119
     66      -0.005831  -0.002053   0.002252
     67      -0.001869  -0.000916   0.000931
     68      -0.008100  -0.002991   0.002110
     69       0.000019  -0.000010   0.000847
     70      -0.000149  -0.000103  -0.000240
     71       0.000001   0.000002   0.000007
     72      -0.001068  -0.001047  -0.007630
     73       0.000444   0.000099  -0.000308
     74       0.001345   0.001356   0.010111
     75      -0.001076  -0.001063  -0.007718
     76       0.000438   0.000092  -0.000364
     77      -0.001354  -0.001371  -0.010183
     78       0.000115   0.000105   0.000008
     79      -0.000020  -0.000008   0.000058
     80       0.000000   0.000000   0.000001
     81      -0.000514  -0.000489  -0.000829
     82      -0.000028  -0.000028  -0.000283
     83       0.000763   0.000681   0.000946
     84      -0.000517  -0.000493  -0.000838
     85      -0.000032  -0.000032  -0.000289
     86      -0.000765  -0.000683  -0.000953
     87       0.000029   0.000034   0.000061
     88       0.000020   0.000057   0.000060
     89      -0.000000  -0.000000   0.000000
     90      -0.000124   0.000020  -0.000089
     91       0.000041   0.000038   0.000061
     92      -0.000178  -0.000011  -0.000081
     93      -0.000123   0.000021  -0.000087
     94       0.000041   0.000037   0.000061
     95       0.000177   0.000009   0.000078
     96       0.001000  -0.000697  -0.000134
     97       0.001293  -0.000717  -0.000240
     98      -0.000004   0.000002   0.000000
     99      -0.000241  -0.000607  -0.000510
    100      -0.000410  -0.000902  -0.000545
    101       0.000002   0.000003   0.000002
    102      -0.907885  -0.402863   0.057467
    103       0.015949   0.003733  -0.001747
    104      -0.000184  -0.000071   0.000014


-----------
IR SPECTRUM
-----------

 Mode   freq       eps      Int      T**2         TX        TY        TZ
       cm**-1   L/(mol*cm) km/mol    a.u.
----------------------------------------------------------------------------
  8:     57.85   0.000110    0.56  0.000596  (-0.000173  0.000182  0.024403)
  9:     60.45   0.000014    0.07  0.000071  ( 0.007712 -0.003388  0.000586)
 10:     85.70   0.000006    0.03  0.000020  (-0.000010  0.000020  0.004512)
 11:    105.92   0.000006    0.03  0.000017  ( 0.000038 -0.000162  0.004134)
 12:    105.98   0.000008    0.04  0.000025  (-0.000874  0.004904  0.000149)
 13:    107.85   0.000005    0.03  0.000015  (-0.000019 -0.000017 -0.003904)
 14:    143.72   0.000391    1.97  0.000848  ( 0.000027  0.000089  0.029126)
 15:    226.65   0.000010    0.05  0.000014  (-0.000403 -0.003674  0.000011)
 16:    227.72   0.000115    0.58  0.000157  ( 0.006297 -0.010855  0.000041)
 17:    237.50   0.000003    0.01  0.000003  ( 0.000003  0.000006  0.001813)
 18:    241.52   0.000005    0.02  0.000006  (-0.000020 -0.000016 -0.002504)
 19:    292.75   0.000042    0.21  0.000045  ( 0.000010  0.000029  0.006684)
 20:    304.97   0.000042    0.21  0.000043  ( 0.002686 -0.005960  0.000039)
 21:    338.27   0.000044    0.22  0.000040  (-0.002653  0.005782 -0.000023)
 22:    413.25   0.000775    3.92  0.000585  (-0.000004 -0.000078 -0.024189)
 23:    440.10   0.000509    2.57  0.000361  ( 0.004789 -0.018386  0.000055)
 24:    462.08   0.000026    0.13  0.000018  ( 0.002876 -0.003057  0.000005)
 25:    507.49   0.001520    7.68  0.000935  (-0.000006  0.000114  0.030571)
 26:    562.13   0.000107    0.54  0.000059  (-0.005366 -0.005515  0.000037)
 27:    639.88   0.000122    0.61  0.000059  (-0.007340  0.002322 -0.000009)
 28:    660.46   0.000454    2.30  0.000215  ( 0.000005  0.000051  0.014651)
 29:    730.16   0.000747    3.77  0.000319  (-0.000032 -0.000018 -0.017868)
 30:    735.49   0.000165    0.84  0.000070  (-0.000012 -0.000014 -0.008375)
 31:    753.16   0.000020    0.10  0.000008  ( 0.002897 -0.000222  0.000033)
 32:    770.91   0.002615   13.22  0.001059  (-0.000007 -0.000107 -0.032535)
 33:    787.26   0.000011    0.06  0.000004  ( 0.000002  0.000002  0.002103)
 34:    833.18   0.000104    0.53  0.000039  ( 0.004888  0.003891  0.000007)
 35:    840.21   0.003373   17.05  0.001253  (-0.000027  0.000096  0.035395)
 36:    861.62   0.001150    5.81  0.000416  ( 0.000024  0.000065  0.020408)
 37:    904.69   0.001565    7.91  0.000540  ( 0.010549  0.020702 -0.000067)
 38:    906.95   0.000021    0.11  0.000007  ( 0.001415  0.002306 -0.000007)
 39:    934.25   0.000085    0.43  0.000028  (-0.000003 -0.000003  0.005326)
 40:    947.26   0.001463    7.39  0.000482  ( 0.000000  0.000047  0.021950)
 41:    969.00   0.000000    0.00  0.000000  (-0.000016  0.000008  0.000276)
 42:   1005.04   0.001751    8.85  0.000544  ( 0.011831  0.020093 -0.000057)
 43:   1025.37   0.000043    0.22  0.000013  (-0.003536 -0.000762  0.000005)
 44:   1027.51   0.000330    1.67  0.000100  ( 0.009619  0.002747 -0.000013)
 45:   1066.81   0.000003    0.02  0.000001  ( 0.000877  0.000485  0.000000)
 46:   1069.59   0.000005    0.02  0.000001  (-0.001079 -0.000391  0.000002)
 47:   1105.33   0.001178    5.95  0.000333  (-0.014002 -0.011681  0.000034)
 48:   1117.04   0.000004    0.02  0.000001  (-0.000128  0.000984 -0.000005)
 49:   1119.92   0.000010    0.05  0.000003  (-0.000004 -0.000006 -0.001660)
 50:   1123.64   0.000043    0.22  0.000012  ( 0.000012  0.000013 -0.003467)
 51:   1154.45   0.000293    1.48  0.000079  ( 0.007842 -0.004194  0.000025)
 52:   1198.45   0.000746    3.77  0.000194  (-0.009144 -0.010513  0.000034)
 53:   1212.68   0.000115    0.58  0.000030  (-0.003582 -0.004101  0.000015)
 54:   1237.83   0.000001    0.01  0.000000  (-0.000001 -0.000015  0.000535)
 55:   1238.43   0.000025    0.13  0.000006  ( 0.000017  0.000034 -0.002521)
 56:   1255.17   0.002208   11.16  0.000549  (-0.017906 -0.015111  0.000042)
 57:   1264.81   0.000010    0.05  0.000003  (-0.001382 -0.000772 -0.000003)
 58:   1283.66   0.000399    2.02  0.000097  (-0.007321 -0.006590  0.000021)
 59:   1311.73   0.000050    0.25  0.000012  ( 0.000011 -0.000169  0.003456)
 60:   1313.16   0.000143    0.72  0.000034  (-0.000245  0.003052 -0.004961)
 61:   1313.24   0.001202    6.07  0.000286  (-0.001404  0.016816  0.000892)
 62:   1328.91   0.000024    0.12  0.000006  (-0.000009 -0.000003 -0.002367)
 63:   1329.64   0.000043    0.22  0.000010  (-0.000013 -0.000007 -0.003185)
 64:   1360.93   0.000583    2.95  0.000134  ( 0.007876  0.008463 -0.000026)
 65:   1365.92   0.002364   11.95  0.000540  (-0.012356 -0.019685  0.000056)
 66:   1389.40   0.002252   11.38  0.000506  (-0.003263 -0.022251  0.000057)
 67:   1399.21   0.000099    0.50  0.000022  (-0.002149 -0.004179  0.000009)
 68:   1410.04   0.002257   11.41  0.000499  (-0.016856  0.014676 -0.000021)
 69:   1410.91   0.000029    0.15  0.000006  (-0.000374  0.002501 -0.000011)
 70:   1418.15   0.001131    5.72  0.000249  (-0.005357 -0.014841  0.000045)
 71:   1475.77   0.002051   10.37  0.000434  (-0.017404 -0.011439  0.000037)
 72:   1479.44   0.001404    7.10  0.000296  ( 0.015219  0.008039 -0.000030)
 73:   1490.08   0.000772    3.90  0.000162  (-0.000425 -0.012708  0.000027)
 74:   1490.24   0.000080    0.41  0.000017  ( 0.000894  0.003999 -0.000010)
 75:   1495.71   0.003599   18.19  0.000751  ( 0.015185  0.022810 -0.000061)
 76:   1502.23   0.000022    0.11  0.000005  ( 0.002135  0.000031 -0.000000)
 77:   1503.36   0.000973    4.92  0.000202  ( 0.003208  0.013848 -0.000036)
 78:   1505.64   0.000865    4.37  0.000179  (-0.000011 -0.000035 -0.013391)
 79:   1505.65   0.002960   14.96  0.000614  ( 0.000025  0.000046  0.024770)
 80:   1515.80   0.000438    2.21  0.000090  (-0.008915 -0.003275  0.000017)
 81:   1516.16   0.003726   18.83  0.000767  ( 0.026648  0.007529 -0.000037)
 82:   1554.28   0.000402    2.03  0.000081  (-0.003692  0.008192 -0.000022)
 83:   1641.45   0.000979    4.95  0.000186  ( 0.003864  0.013081 -0.000035)
 84:   3000.41   0.000814    4.12  0.000085  (-0.009040 -0.001726  0.000018)
 85:   3003.59   0.000031    0.16  0.000003  (-0.000632 -0.001692  0.000000)
 86:   3004.43   0.000112    0.57  0.000012  (-0.000010 -0.003409  0.000011)
 87:   3008.34   0.000634    3.20  0.000066  (-0.007657  0.002674 -0.000010)
 88:   3013.45   0.012582   63.58  0.001303  ( 0.035767  0.004861 -0.000049)
 89:   3016.17   0.011531   58.28  0.001193  ( 0.033418  0.008735 -0.000085)
 90:   3019.81   0.008526   43.09  0.000881  (-0.021156  0.020820 -0.000014)
 91:   3020.08   0.007599   38.40  0.000785  ( 0.017904 -0.021556  0.000039)
 92:   3026.40   0.000633    3.20  0.000065  ( 0.000024  0.000023  0.008079)
 93:   3030.02   0.000171    0.86  0.000018  (-0.000054 -0.000015 -0.004194)
 94:   3035.96   0.000000    0.00  0.000000  ( 0.000010  0.000002 -0.000221)
 95:   3039.86   0.000005    0.03  0.000001  (-0.000040 -0.000007  0.000724)
 96:   3060.55   0.007635   38.58  0.000778  ( 0.000028  0.000078  0.027901)
 97:   3061.75   0.009129   46.14  0.000930  (-0.000056 -0.000076 -0.030504)
 98:   3088.61   0.011417   57.70  0.001154  ( 0.000048  0.000082  0.033963)
 99:   3088.97   0.014110   71.31  0.001425  (-0.000044 -0.000108 -0.037756)
100:   3092.34   0.009320   47.10  0.000940  (-0.023876 -0.019246  0.000078)
101:   3092.63   0.007619   38.50  0.000769  (-0.021491 -0.017519  0.000077)
102:   3152.22   0.003191   16.12  0.000316  ( 0.015191  0.009224 -0.000024)
103:   3176.82   0.004164   21.04  0.000409  ( 0.013715 -0.014865  0.000046)
104:   3185.25   0.000691    3.49  0.000068  ( 0.001421 -0.008105  0.000024)

* The epsilon (eps) is given for a Dirac delta lineshape.
** The dipole moment derivative (T) already includes vibrational overlap.

The first frequency considered to be a vibration is 8
The total number of vibrations considered is 97


--------------------------
THERMOCHEMISTRY AT 298.15K
--------------------------

Temperature         ... 298.15 K
Pressure            ... 1.00 atm
Total Mass          ... 189.32 AMU

Throughout the following assumptions are being made:
  (1) The electronic state is orbitally nondegenerate
      but the spin degeneracy is treated
  (2) There are no thermally accessible electronically excited states
  (3) Hindered rotations indicated by low frequency modes are not
      treated as such but are treated as vibrations and this may
      cause some error
  (4) All equations used are the standard statistical mechanics
      equations for an ideal gas
  (5) All vibrations are strictly harmonic

freq.      57.85  E(vib)   ...       0.51 
freq.      60.45  E(vib)   ...       0.51 
freq.      85.70  E(vib)   ...       0.48 
freq.     105.92  E(vib)   ...       0.45 
freq.     105.98  E(vib)   ...       0.45 
freq.     107.85  E(vib)   ...       0.45 
freq.     143.72  E(vib)   ...       0.41 
freq.     226.65  E(vib)   ...       0.33 
freq.     227.72  E(vib)   ...       0.33 
freq.     237.50  E(vib)   ...       0.32 
freq.     241.52  E(vib)   ...       0.31 
freq.     292.75  E(vib)   ...       0.27 
freq.     304.97  E(vib)   ...       0.26 
freq.     338.27  E(vib)   ...       0.23 
freq.     413.25  E(vib)   ...       0.19 
freq.     440.10  E(vib)   ...       0.17 
freq.     462.08  E(vib)   ...       0.16 
freq.     507.49  E(vib)   ...       0.14 
freq.     562.13  E(vib)   ...       0.11 
freq.     639.88  E(vib)   ...       0.09 
freq.     660.46  E(vib)   ...       0.08 
freq.     730.16  E(vib)   ...       0.06 
freq.     735.49  E(vib)   ...       0.06 
freq.     753.16  E(vib)   ...       0.06 
freq.     770.91  E(vib)   ...       0.05 
freq.     787.26  E(vib)   ...       0.05 
freq.     833.18  E(vib)   ...       0.04 
freq.     840.21  E(vib)   ...       0.04 
freq.     861.62  E(vib)   ...       0.04 
freq.     904.69  E(vib)   ...       0.03 
freq.     906.95  E(vib)   ...       0.03 
freq.     934.25  E(vib)   ...       0.03 
freq.     947.26  E(vib)   ...       0.03 
freq.     969.00  E(vib)   ...       0.03 
freq.    1005.04  E(vib)   ...       0.02 
freq.    1025.37  E(vib)   ...       0.02 
freq.    1027.51  E(vib)   ...       0.02 
freq.    1066.81  E(vib)   ...       0.02 
freq.    1069.59  E(vib)   ...       0.02 
freq.    1105.33  E(vib)   ...       0.02 
freq.    1117.04  E(vib)   ...       0.01 
freq.    1119.92  E(vib)   ...       0.01 
freq.    1123.64  E(vib)   ...       0.01 
freq.    1154.45  E(vib)   ...       0.01 
freq.    1198.45  E(vib)   ...       0.01 
freq.    1212.68  E(vib)   ...       0.01 
freq.    1237.83  E(vib)   ...       0.01 
freq.    1238.43  E(vib)   ...       0.01 
freq.    1255.17  E(vib)   ...       0.01 
freq.    1264.81  E(vib)   ...       0.01 
freq.    1283.66  E(vib)   ...       0.01 
freq.    1311.73  E(vib)   ...       0.01 
freq.    1313.16  E(vib)   ...       0.01 
freq.    1313.24  E(vib)   ...       0.01 
freq.    1328.91  E(vib)   ...       0.01 
freq.    1329.64  E(vib)   ...       0.01 
freq.    1360.93  E(vib)   ...       0.01 
freq.    1365.92  E(vib)   ...       0.01 
freq.    1389.40  E(vib)   ...       0.00 
freq.    1399.21  E(vib)   ...       0.00 
freq.    1410.04  E(vib)   ...       0.00 
freq.    1410.91  E(vib)   ...       0.00 
freq.    1418.15  E(vib)   ...       0.00 
freq.    1475.77  E(vib)   ...       0.00 
freq.    1479.44  E(vib)   ...       0.00 
freq.    1490.08  E(vib)   ...       0.00 
freq.    1490.24  E(vib)   ...       0.00 
freq.    1495.71  E(vib)   ...       0.00 
freq.    1502.23  E(vib)   ...       0.00 
freq.    1503.36  E(vib)   ...       0.00 
freq.    1505.64  E(vib)   ...       0.00 
freq.    1505.65  E(vib)   ...       0.00 
freq.    1515.80  E(vib)   ...       0.00 
freq.    1516.16  E(vib)   ...       0.00 
freq.    1554.28  E(vib)   ...       0.00 
freq.    1641.45  E(vib)   ...       0.00 
freq.    3000.41  E(vib)   ...       0.00 
freq.    3003.59  E(vib)   ...       0.00 
freq.    3004.43  E(vib)   ...       0.00 
freq.    3008.34  E(vib)   ...       0.00 
freq.    3013.45  E(vib)   ...       0.00 
freq.    3016.17  E(vib)   ...       0.00 
freq.    3019.81  E(vib)   ...       0.00 
freq.    3020.08  E(vib)   ...       0.00 
freq.    3026.40  E(vib)   ...       0.00 
freq.    3030.02  E(vib)   ...       0.00 
freq.    3035.96  E(vib)   ...       0.00 
freq.    3039.86  E(vib)   ...       0.00 
freq.    3060.55  E(vib)   ...       0.00 
freq.    3061.75  E(vib)   ...       0.00 
freq.    3088.61  E(vib)   ...       0.00 
freq.    3088.97  E(vib)   ...       0.00 
freq.    3092.34  E(vib)   ...       0.00 
freq.    3092.63  E(vib)   ...       0.00 
freq.    3152.22  E(vib)   ...       0.00 
freq.    3176.82  E(vib)   ...       0.00 
freq.    3185.25  E(vib)   ...       0.00 

------------
INNER ENERGY
------------

The inner energy is: U= E(el) + E(ZPE) + E(vib) + E(rot) + E(trans)
    E(el)   - is the total energy from the electronic structure calculation
              = E(kin-el) + E(nuc-el) + E(el-el) + E(nuc-nuc)
    E(ZPE)  - the the zero temperature vibrational energy from the frequency calculation
    E(vib)  - the the finite temperature correction to E(ZPE) due to population
              of excited vibrational states
    E(rot)  - is the rotational thermal energy
    E(trans)- is the translational thermal energy

Summary of contributions to the inner energy U:
Electronic energy                ...   -545.77542348 Eh
Zero point energy                ...      0.31198767 Eh     195.77 kcal/mol
Thermal vibrational correction   ...      0.01140769 Eh       7.16 kcal/mol
Thermal rotational correction    ...      0.00141627 Eh       0.89 kcal/mol
Thermal translational correction ...      0.00141627 Eh       0.89 kcal/mol
-----------------------------------------------------------------------
Total thermal energy                   -545.44919558 Eh


Summary of corrections to the electronic energy:
(perhaps to be used in another calculation)
Total thermal correction                  0.01424023 Eh       8.94 kcal/mol
Non-thermal (ZPE) correction              0.31198767 Eh     195.77 kcal/mol
-----------------------------------------------------------------------
Total correction                          0.32622790 Eh     204.71 kcal/mol


--------
ENTHALPY
--------

The enthalpy is H = U + kB*T
                kB is Boltzmann's constant
Total free energy                 ...   -545.44919558 Eh 
Thermal Enthalpy correction       ...      0.00094421 Eh       0.59 kcal/mol
-----------------------------------------------------------------------
Total Enthalpy                    ...   -545.44825137 Eh


Note: Only C1 symmetry has been detected, increase convergence thresholds 
      if your molecule has a higher symmetry. Symmetry factor of 1.0 is   
      used for the rotational entropy correction. 
 

Note: Rotational entropy computed according to Herzberg 
Infrared and Raman Spectra, Chapter V,1, Van Nostrand Reinhold, 1945 
Point Group:  C1, Symmetry Number:   1  
Rotational constants in cm-1:     0.111639     0.005964     0.005710 

Vibrational entropy computed according to the QRRHO of S. Grimme
Chem.Eur.J. 2012 18 9955


-------
ENTROPY
-------

The entropy contributions are T*S = T*(S(el)+S(vib)+S(rot)+S(trans))
     S(el)   - electronic entropy
     S(vib)  - vibrational entropy
     S(rot)  - rotational entropy
     S(trans)- translational entropy
The entropies will be listed as multiplied by the temperature to get
units of energy

Electronic entropy                ...      0.00065446 Eh      0.41 kcal/mol
Vibrational entropy               ...      0.01990513 Eh     12.49 kcal/mol
Rotational entropy                ...      0.01540251 Eh      9.67 kcal/mol
Translational entropy             ...      0.01977522 Eh     12.41 kcal/mol
-----------------------------------------------------------------------
Final entropy term                ...      0.05573731 Eh     34.98 kcal/mol

In case the symmetry of your molecule has not been determined correctly
or in case you have a reason to use a different symmetry number we print 
out the resulting rotational entropy values for sn=1,12 :
 --------------------------------------------------------
|  sn= 1 | S(rot)=       0.01540251 Eh      9.67 kcal/mol|
|  sn= 2 | S(rot)=       0.01474806 Eh      9.25 kcal/mol|
|  sn= 3 | S(rot)=       0.01436522 Eh      9.01 kcal/mol|
|  sn= 4 | S(rot)=       0.01409360 Eh      8.84 kcal/mol|
|  sn= 5 | S(rot)=       0.01388291 Eh      8.71 kcal/mol|
|  sn= 6 | S(rot)=       0.01371077 Eh      8.60 kcal/mol|
|  sn= 7 | S(rot)=       0.01356522 Eh      8.51 kcal/mol|
|  sn= 8 | S(rot)=       0.01343914 Eh      8.43 kcal/mol|
|  sn= 9 | S(rot)=       0.01332793 Eh      8.36 kcal/mol|
|  sn=10 | S(rot)=       0.01322845 Eh      8.30 kcal/mol|
|  sn=11 | S(rot)=       0.01313846 Eh      8.24 kcal/mol|
|  sn=12 | S(rot)=       0.01305631 Eh      8.19 kcal/mol|
 --------------------------------------------------------


-------------------
GIBBS FREE ENERGY
-------------------

The Gibbs free energy is G = H - T*S

Total enthalpy                    ...   -545.44825137 Eh 
Total entropy correction          ...     -0.05573731 Eh    -34.98 kcal/mol
-----------------------------------------------------------------------
Final Gibbs free energy         ...   -545.50398869 Eh

For completeness - the Gibbs free energy minus the electronic energy
G-E(el)                           ...      0.27143480 Eh    170.33 kcal/mol


Timings for individual modules:

Sum of individual times         ...      857.202 sec (=  14.287 min)
GTO integral calculation        ...       18.500 sec (=   0.308 min)   2.2 %
SCF iterations                  ...      356.982 sec (=   5.950 min)  41.6 %
SCF Gradient evaluation         ...       77.036 sec (=   1.284 min)   9.0 %
Geometry relaxation             ...        1.145 sec (=   0.019 min)   0.1 %
Analytical frequency calculation...      403.538 sec (=   6.726 min)  47.1 %
                             ****ORCA TERMINATED NORMALLY****
TOTAL RUN TIME: 0 days 0 hours 14 minutes 48 seconds 57 msec
