
                                 *****************
                                 * O   R   C   A *
                                 *****************

                                            #,                                       
                                            ###                                      
                                            ####                                     
                                            #####                                    
                                            ######                                   
                                           ########,                                 
                                     ,,################,,,,,                         
                               ,,#################################,,                 
                          ,,##########################################,,             
                       ,#########################################, ''#####,          
                    ,#############################################,,   '####,        
                  ,##################################################,,,,####,       
                ,###########''''           ''''###############################       
              ,#####''   ,,,,##########,,,,          '''####'''          '####       
            ,##' ,,,,###########################,,,                        '##       
           ' ,,###''''                  '''############,,,                           
         ,,##''                                '''############,,,,        ,,,,,,###''
      ,#''                                            '''#######################'''  
     '                                                          ''''####''''         
             ,#######,   #######,   ,#######,      ##                                
            ,#'     '#,  ##    ##  ,#'     '#,    #''#        ######   ,####,        
            ##       ##  ##   ,#'  ##            #'  '#       #        #'  '#        
            ##       ##  #######   ##           ,######,      #####,   #    #        
            '#,     ,#'  ##    ##  '#,     ,#' ,#      #,         ##   #,  ,#        
             '#######'   ##     ##  '#######'  #'      '#     #####' # '####'        



                  #######################################################
                  #                        -***-                        #
                  #          Department of theory and spectroscopy      #
                  #    Directorship and core code : Frank Neese         #
                  #        Max Planck Institute fuer Kohlenforschung    #
                  #                Kaiser Wilhelm Platz 1               #
                  #                 D-45470 Muelheim/Ruhr               #
                  #                      Germany                        #
                  #                                                     #
                  #                  All rights reserved                #
                  #                        -***-                        #
                  #######################################################


                         Program Version 5.0.4 -  RELEASE  -


 With contributions from (in alphabetic order):
   Daniel Aravena         : Magnetic Suceptibility
   Michael Atanasov       : Ab Initio Ligand Field Theory (pilot matlab implementation)
   Alexander A. Auer      : GIAO ZORA, VPT2 properties, NMR spectrum
   Ute Becker             : Parallelization
   Giovanni Bistoni       : ED, misc. LED, open-shell LED, HFLD
   Martin Brehm           : Molecular dynamics
   Dmytro Bykov           : SCF Hessian
   Vijay G. Chilkuri      : MRCI spin determinant printing, contributions to CSF-ICE
   Dipayan Datta          : RHF DLPNO-CCSD density
   Achintya Kumar Dutta   : EOM-CC, STEOM-CC
   Dmitry Ganyushin       : Spin-Orbit,Spin-Spin,Magnetic field MRCI
   Miquel Garcia          : C-PCM and meta-GGA Hessian, CC/C-PCM, Gaussian charge scheme
   Yang Guo               : DLPNO-NEVPT2, F12-NEVPT2, CIM, IAO-localization
   Andreas Hansen         : Spin unrestricted coupled pair/coupled cluster methods
   Benjamin Helmich-Paris : MC-RPA, TRAH-SCF, COSX integrals
   Lee Huntington         : MR-EOM, pCC
   Robert Izsak           : Overlap fitted RIJCOSX, COSX-SCS-MP3, EOM
   Marcus Kettner         : VPT2
   Christian Kollmar      : KDIIS, OOCD, Brueckner-CCSD(T), CCSD density, CASPT2, CASPT2-K
   Simone Kossmann        : Meta GGA functionals, TD-DFT gradient, OOMP2, MP2 Hessian
   Martin Krupicka        : Initial AUTO-CI
   Lucas Lang             : DCDCAS
   Marvin Lechner         : AUTO-CI (C++ implementation), FIC-MRCC
   Dagmar Lenk            : GEPOL surface, SMD
   Dimitrios Liakos       : Extrapolation schemes; Compound Job, initial MDCI parallelization
   Dimitrios Manganas     : Further ROCIS development; embedding schemes
   Dimitrios Pantazis     : SARC Basis sets
   Anastasios Papadopoulos: AUTO-CI, single reference methods and gradients
   Taras Petrenko         : DFT Hessian,TD-DFT gradient, ASA, ECA, R-Raman, ABS, FL, XAS/XES, NRVS
   Peter Pinski           : DLPNO-MP2, DLPNO-MP2 Gradient
   Christoph Reimann      : Effective Core Potentials
   Marius Retegan         : Local ZFS, SOC
   Christoph Riplinger    : Optimizer, TS searches, QM/MM, DLPNO-CCSD(T), (RO)-DLPNO pert. Triples
   Tobias Risthaus        : Range-separated hybrids, TD-DFT gradient, RPA, STAB
   Michael Roemelt        : Original ROCIS implementation
   Masaaki Saitow         : Open-shell DLPNO-CCSD energy and density
   Barbara Sandhoefer     : DKH picture change effects
   Avijit Sen             : IP-ROCIS
   Kantharuban Sivalingam : CASSCF convergence, NEVPT2, FIC-MRCI
   Bernardo de Souza      : ESD, SOC TD-DFT
   Georgi Stoychev        : AutoAux, RI-MP2 NMR, DLPNO-MP2 response
   Willem Van den Heuvel  : Paramagnetic NMR
   Boris Wezisla          : Elementary symmetry handling
   Frank Wennmohs         : Technical directorship


 We gratefully acknowledge several colleagues who have allowed us to
 interface, adapt or use parts of their codes:
   Stefan Grimme, W. Hujo, H. Kruse, P. Pracht,  : VdW corrections, initial TS optimization,
                  C. Bannwarth, S. Ehlert          DFT functionals, gCP, sTDA/sTD-DF
   Ed Valeev, F. Pavosevic, A. Kumar             : LibInt (2-el integral package), F12 methods
   Garnet Chan, S. Sharma, J. Yang, R. Olivares  : DMRG
   Ulf Ekstrom                                   : XCFun DFT Library
   Mihaly Kallay                                 : mrcc  (arbitrary order and MRCC methods)
   Jiri Pittner, Ondrej Demel                    : Mk-CCSD
   Frank Weinhold                                : gennbo (NPA and NBO analysis)
   Christopher J. Cramer and Donald G. Truhlar   : smd solvation model
   Lars Goerigk                                  : TD-DFT with DH, B97 family of functionals
   V. Asgeirsson, H. Jonsson                     : NEB implementation
   FAccTs GmbH                                   : IRC, NEB, NEB-TS, DLPNO-Multilevel, CI-OPT
                                                   MM, QMMM, 2- and 3-layer-ONIOM, Crystal-QMMM,
                                                   LR-CPCM, SF, NACMEs, symmetry and pop. for TD-DFT,
                                                   nearIR, NL-DFT gradient (VV10), updates on ESD,
                                                   ML-optimized integration grids
   S Lehtola, MJT Oliveira, MAL Marques          : LibXC Library
   Liviu Ungur et al                             : ANISO software


 Your calculation uses the libint2 library for the computation of 2-el integrals
 For citations please refer to: http://libint.valeyev.net

 Your ORCA version has been built with support for libXC version: 5.1.0
 For citations please refer to: https://tddft.org/programs/libxc/

 This ORCA versions uses:
   CBLAS   interface :  Fast vector & matrix operations
   LAPACKE interface :  Fast linear algebra routines
   SCALAPACK package :  Parallel linear algebra routines
   Shared memory     :  Shared parallel matrices
   BLAS/LAPACK       :  OpenBLAS 0.3.15  USE64BITINT DYNAMIC_ARCH NO_AFFINITY SkylakeX SINGLE_THREADED
        Core in use  :  SkylakeX
   Copyright (c) 2011-2014, The OpenBLAS Project




***************************************
The coordinates will be read from file: opt.xyz
***************************************


================================================================================

----- Orbital basis set information -----
Your calculation utilizes the basis: EPR-II
   V. Barone, in Recent Advances in Density Functional Methods, Part 1 (ed. D. P. Chong), World Scientific, Singapore, 1995, p. 287.

----- AuxJ basis set information -----
Your calculation utilizes the auxiliary basis: def2/J
   F. Weigend, Phys. Chem. Chem. Phys. 8, 1057 (2006).

================================================================================
                                        WARNINGS
                       Please study these warnings very carefully!
================================================================================


WARNING: your system is open-shell and RHF/RKS was chosen
  ===> : WILL SWITCH to UHF/UKS


INFO   : the flag for use of the SHARK integral package has been found!

================================================================================
                                       INPUT FILE
================================================================================
NAME = BDE.inp
|  1> ! B3LYP EPR-II FREQ
|  2> %pal nprocs 16 end
|  3> *XYZFile 0 2 opt.xyz
|  4> 
|  5>                          ****END OF INPUT****
================================================================================

                       ****************************
                       * Single Point Calculation *
                       ****************************

---------------------------------
CARTESIAN COORDINATES (ANGSTROEM)
---------------------------------
  C     -4.099903    0.083492   -0.018353
  C     -2.815946    0.043661   -0.012330
  C      2.806008   -0.004269   -0.008539
  C     -1.423131    0.006681   -0.011521
  C     -0.708303   -1.246812   -0.013959
  C      0.675892   -1.194656   -0.012684
  C      1.390969    0.032616   -0.009322
  C      0.692187    1.284040   -0.006826
  C     -0.689714    1.234894   -0.008082
  H      1.259776   -2.114722   -0.014385
  H     -1.277365    2.152363   -0.006417
  C     -1.482678   -2.545270   -0.017742
  H     -2.162956   -2.531884   -0.888087
  H     -2.164001   -2.536305    0.851848
  C     -0.664773   -3.838900   -0.020463
  H     -0.001060   -3.863836   -0.904705
  H     -0.002550   -3.868472    0.864757
  C     -1.549765   -5.091581   -0.024486
  H     -2.216738   -5.067647    0.856694
  H     -2.214979   -5.063238   -0.906864
  C     -0.747242   -6.394947   -0.026958
  H     -0.098785   -6.468624    0.863263
  H     -0.096713   -6.463963   -0.916039
  C      1.475610    2.580851   -0.003105
  H      2.150780    2.571663    0.872485
  H      2.151902    2.575969   -0.877872
  C      0.660276    3.876516   -0.000466
  H     -0.001813    3.904739   -0.885019
  H     -0.003430    3.900164    0.883007
  C      1.545553    5.128838    0.003581
  H      2.210398    5.101571    0.886923
  H      2.212314    5.105900   -0.878438
  C      0.742544    6.432044    0.005924
  H      0.091762    6.499753    0.894507
  H      0.094086    6.504395   -0.883993
  C      4.030665   -0.051608   -0.009917
  H     -1.409442   -7.275742   -0.030044
  H      1.404248    7.313240    0.009096
  C      5.453353   -0.107226   -0.009647
  C      6.121835   -1.352501   -0.012193
  C      7.514506   -1.401458   -0.011853
  C      8.262259   -0.217737   -0.009063
  C      7.609924    1.021237   -0.006590
  C      6.217754    1.081653   -0.006879
  H      9.353772   -0.260949   -0.008833
  H      8.191473    1.945911   -0.004438
  H      5.533939   -2.272105   -0.014369
  H      5.703998    2.044629   -0.004992
  H      8.021809   -2.368853   -0.013791

----------------------------
CARTESIAN COORDINATES (A.U.)
----------------------------
  NO LB      ZA    FRAG     MASS         X           Y           Z
   0 C     6.0000    0    12.011   -7.747695    0.157777   -0.034681
   1 C     6.0000    0    12.011   -5.321367    0.082508   -0.023300
   2 C     6.0000    0    12.011    5.302587   -0.008067   -0.016136
   3 C     6.0000    0    12.011   -2.689327    0.012626   -0.021772
   4 C     6.0000    0    12.011   -1.338498   -2.356134   -0.026378
   5 C     6.0000    0    12.011    1.277250   -2.257573   -0.023968
   6 C     6.0000    0    12.011    2.628550    0.061636   -0.017615
   7 C     6.0000    0    12.011    1.308044    2.426484   -0.012899
   8 C     6.0000    0    12.011   -1.303370    2.333612   -0.015274
   9 H     1.0000    0     1.008    2.380632   -3.996246   -0.027183
  10 H     1.0000    0     1.008   -2.413870    4.067376   -0.012127
  11 C     6.0000    0    12.011   -2.801855   -4.809864   -0.033528
  12 H     1.0000    0     1.008   -4.087394   -4.784568   -1.678241
  13 H     1.0000    0     1.008   -4.089368   -4.792922    1.609759
  14 C     6.0000    0    12.011   -1.256239   -7.254469   -0.038669
  15 H     1.0000    0     1.008   -0.002004   -7.301591   -1.709645
  16 H     1.0000    0     1.008   -0.004819   -7.310352    1.634154
  17 C     6.0000    0    12.011   -2.928631   -9.621693   -0.046271
  18 H     1.0000    0     1.008   -4.189027   -9.576465    1.618917
  19 H     1.0000    0     1.008   -4.185703   -9.568134   -1.713724
  20 C     6.0000    0    12.011   -1.412082  -12.084699   -0.050944
  21 H     1.0000    0     1.008   -0.186676  -12.223929    1.631331
  22 H     1.0000    0     1.008   -0.182760  -12.215120   -1.731062
  23 C     6.0000    0    12.011    2.788498    4.877102   -0.005869
  24 H     1.0000    0     1.008    4.064385    4.859738    1.648758
  25 H     1.0000    0     1.008    4.066505    4.867877   -1.658937
  26 C     6.0000    0    12.011    1.247740    7.325553   -0.000880
  27 H     1.0000    0     1.008   -0.003427    7.378887   -1.672443
  28 H     1.0000    0     1.008   -0.006481    7.370242    1.668641
  29 C     6.0000    0    12.011    2.920672    9.692100    0.006766
  30 H     1.0000    0     1.008    4.177046    9.640572    1.676042
  31 H     1.0000    0     1.008    4.180668    9.648753   -1.660007
  32 C     6.0000    0    12.011    1.403204   12.154802    0.011194
  33 H     1.0000    0     1.008    0.173404   12.282753    1.690374
  34 H     1.0000    0     1.008    0.177797   12.291525   -1.670505
  35 C     6.0000    0    12.011    7.616852   -0.097524   -0.018740
  36 H     1.0000    0     1.008   -2.663459  -13.749160   -0.056774
  37 H     1.0000    0     1.008    2.653644   13.820020    0.017189
  38 C     6.0000    0    12.011   10.305343   -0.202628   -0.018229
  39 C     6.0000    0    12.011   11.568592   -2.555857   -0.023041
  40 C     6.0000    0    12.011   14.200358   -2.648371   -0.022399
  41 C     6.0000    0    12.011   15.613407   -0.411462   -0.017127
  42 C     6.0000    0    12.011   14.380671    1.929859   -0.012454
  43 C     6.0000    0    12.011   11.749853    2.044027   -0.012999
  44 H     1.0000    0     1.008   17.676068   -0.493123   -0.016692
  45 H     1.0000    0     1.008   15.479640    3.677238   -0.008386
  46 H     1.0000    0     1.008   10.457630   -4.293656   -0.027154
  47 H     1.0000    0     1.008   10.778994    3.863789   -0.009434
  48 H     1.0000    0     1.008   15.159023   -4.476483   -0.026062

--------------------------------
INTERNAL COORDINATES (ANGSTROEM)
--------------------------------
 C      0   0   0     0.000000000000     0.00000000     0.00000000
 C      1   0   0     1.284589265702     0.00000000     0.00000000
 C      2   1   0     5.622159564040   178.69126092     0.00000000
 C      2   1   3     1.393306467235   179.65227083   327.51862601
 C      4   2   1     1.442993883273   121.21551837   222.73457308
 C      5   4   2     1.385177188993   117.53671655   180.01241966
 C      3   2   1     1.415520374158     1.00472520    10.51896560
 C      7   3   6     1.433304942608   120.67155711   180.00251040
 C      8   7   3     1.382775381372   117.14154389   179.98635314
 H      6   5   4     1.089699859879   120.24164121   179.99764177
 H      9   8   7     1.089534381280   120.60315497   180.00627168
 C      5   4   2     1.511841308952   119.49432899     0.00000000
 H     12   5   4     1.104743120331   107.87680572    55.82062536
 H     12   5   4     1.104747614791   107.87550603   304.14905360
 C     12   5   4     1.530507626416   116.88572550   179.98859445
 H     15  12   5     1.105902563797   109.95017923   301.68270487
 H     15  12   5     1.105905796946   109.94886218    58.34142276
 C     15  12   5     1.533765592879   112.45643147   180.01139442
 H     18  15  12     1.105397466238   109.17036193   302.38938945
 H     18  15  12     1.105397471384   109.17092419    57.63473439
 C     18  15  12     1.530625053453   113.13789375   180.01165525
 H     21  18  15     1.103820012046   111.31832012    59.91451649
 H     21  18  15     1.103818579039   111.31786680   300.10869648
 C      8   7   3     1.515085539117   119.68484965     0.00000000
 H     24   8   7     1.105711363744   108.09370501   303.63215986
 H     24   8   7     1.105717523955   108.09186412    56.38210693
 C     24   8   7     1.530856693276   116.68202454   180.00524344
 H     27  24   8     1.105257054054   109.83292962   301.74343574
 H     27  24   8     1.105254637747   109.83506491    58.22504828
 C     27  24   8     1.533637708065   112.56201510   179.98517391
 H     30  27  24     1.105918558839   109.20769736   302.29351001
 H     30  27  24     1.105917187097   109.20681994    57.67887704
 C     30  27  24     1.530743191815   113.10279452   179.98667424
 H     33  30  27     1.103486639694   111.27512830    59.84427318
 H     33  30  27     1.103487301721   111.27567707   300.12528013
 C      3   2   1     1.225571968783   178.27174768   193.54086091
 H     21  18  15     1.101961246509   111.44164475   180.01211336
 H     33  30  27     1.101983520380   111.45612407   179.98418205
 C     36   3   7     1.423774642696   179.92062648   280.85853904
 C     39  36   3     1.413359540444   120.46627745    71.67101810
 C     40  39  36     1.393531182661   120.24078976   180.00300340
 C     41  40  39     1.400120858211   120.26715974     0.00000000
 C     42  41  40     1.400215882953   119.95224590     0.00000000
 C     43  42  41     1.393479491271   120.25218298     0.00000000
 H     42  41  40     1.092368032818   120.01330674   180.00156118
 H     43  42  41     1.092348237933   120.06596006   180.00156057
 H     40  39  36     1.091465535315   119.18205456     0.00000000
 H     44  43  42     1.091454396523   120.56513382   180.00202302
 H     41  40  39     1.092343317309   119.68577979   179.99739793

---------------------------
INTERNAL COORDINATES (A.U.)
---------------------------
 C      0   0   0     0.000000000000     0.00000000     0.00000000
 C      1   0   0     2.427521906753     0.00000000     0.00000000
 C      2   1   0    10.624341857241   178.69126092     0.00000000
 C      2   1   3     2.632967643696   179.65227083   327.51862601
 C      4   2   1     2.726863252309   121.21551837   222.73457308
 C      5   4   2     2.617605534151   117.53671655   180.01241966
 C      3   2   1     2.674945844144     1.00472520    10.51896560
 C      7   3   6     2.708553807925   120.67155711   180.00251040
 C      8   7   3     2.613066775522   117.14154389   179.98635314
 H      6   5   4     2.059234303345   120.24164121   179.99764177
 H      9   8   7     2.058921594110   120.60315497   180.00627168
 C      5   4   2     2.856966031868   119.49432899     0.00000000
 H     12   5   4     2.087661945760   107.87680572    55.82062536
 H     12   5   4     2.087670439058   107.87550603   304.14905360
 C     12   5   4     2.892240259804   116.88572550   179.98859445
 H     15  12   5     2.089852976379   109.95017923   301.68270487
 H     15  12   5     2.089859086144   109.94886218    58.34142276
 C     15  12   5     2.898396924173   112.45643147   180.01139442
 H     18  15  12     2.088898480320   109.17036193   302.38938945
 H     18  15  12     2.088898490044   109.17092419    57.63473439
 C     18  15  12     2.892462164744   113.13789375   180.01165525
 H     21  18  15     2.085917523909   111.31832012    59.91451649
 H     21  18  15     2.085914815918   111.31786680   300.10869648
 C      8   7   3     2.863096738396   119.68484965     0.00000000
 H     24   8   7     2.089491660641   108.09370501   303.63215986
 H     24   8   7     2.089503301752   108.09186412    56.38210693
 C     24   8   7     2.892899900573   116.68202454   180.00524344
 H     27  24   8     2.088633139747   109.83292962   301.74343574
 H     27  24   8     2.088628573588   109.83506491    58.22504828
 C     27  24   8     2.898155256898   112.56201510   179.98517391
 H     30  27  24     2.089883202627   109.20769736   302.29351001
 H     30  27  24     2.089880610411   109.20681994    57.67887704
 C     30  27  24     2.892685413895   113.10279452   179.98667424
 H     33  30  27     2.085287541462   111.27512830    59.84427318
 H     33  30  27     2.085288792513   111.27567707   300.12528013
 C      3   2   1     2.315995378411   178.27174768   193.54086091
 H     21  18  15     2.082404966096   111.44164475   180.01211336
 H     33  30  27     2.082447057613   111.45612407   179.98418205
 C     36   3   7     2.690544151116   179.92062648   280.85853904
 C     39  36   3     2.670862460204   120.46627745    71.67101810
 C     40  39  36     2.633392294308   120.24078976   180.00300340
 C     41  40  39     2.645844976410   120.26715974     0.00000000
 C     42  41  40     2.646024547148   119.95224590     0.00000000
 C     43  42  41     2.633294611738   120.25218298     0.00000000
 H     42  41  40     2.064276419477   120.01330674   180.00156118
 H     43  42  41     2.064239012566   120.06596006   180.00156057
 H     40  39  36     2.062570946359   119.18205456     0.00000000
 H     44  43  42     2.062549897092   120.56513382   180.00202302
 H     41  40  39     2.064229713932   119.68577979   179.99739793

---------------------
BASIS SET INFORMATION
---------------------
There are 2 groups of distinct atoms

 Group   1 Type C   : 10s5p1d contracted to 6s2p1d pattern {511111/41/1}
 Group   2 Type H   : 6s1p contracted to 4s1p pattern {3111/1}

Atom   0C    basis set group =>   1
Atom   1C    basis set group =>   1
Atom   2C    basis set group =>   1
Atom   3C    basis set group =>   1
Atom   4C    basis set group =>   1
Atom   5C    basis set group =>   1
Atom   6C    basis set group =>   1
Atom   7C    basis set group =>   1
Atom   8C    basis set group =>   1
Atom   9H    basis set group =>   2
Atom  10H    basis set group =>   2
Atom  11C    basis set group =>   1
Atom  12H    basis set group =>   2
Atom  13H    basis set group =>   2
Atom  14C    basis set group =>   1
Atom  15H    basis set group =>   2
Atom  16H    basis set group =>   2
Atom  17C    basis set group =>   1
Atom  18H    basis set group =>   2
Atom  19H    basis set group =>   2
Atom  20C    basis set group =>   1
Atom  21H    basis set group =>   2
Atom  22H    basis set group =>   2
Atom  23C    basis set group =>   1
Atom  24H    basis set group =>   2
Atom  25H    basis set group =>   2
Atom  26C    basis set group =>   1
Atom  27H    basis set group =>   2
Atom  28H    basis set group =>   2
Atom  29C    basis set group =>   1
Atom  30H    basis set group =>   2
Atom  31H    basis set group =>   2
Atom  32C    basis set group =>   1
Atom  33H    basis set group =>   2
Atom  34H    basis set group =>   2
Atom  35C    basis set group =>   1
Atom  36H    basis set group =>   2
Atom  37H    basis set group =>   2
Atom  38C    basis set group =>   1
Atom  39C    basis set group =>   1
Atom  40C    basis set group =>   1
Atom  41C    basis set group =>   1
Atom  42C    basis set group =>   1
Atom  43C    basis set group =>   1
Atom  44H    basis set group =>   2
Atom  45H    basis set group =>   2
Atom  46H    basis set group =>   2
Atom  47H    basis set group =>   2
Atom  48H    basis set group =>   2
---------------------------------
AUXILIARY/J BASIS SET INFORMATION
---------------------------------
There are 2 groups of distinct atoms

 Group   1 Type C   : 12s5p4d2f1g contracted to 6s4p3d1f1g pattern {711111/2111/211/2/1}
 Group   2 Type H   : 5s2p1d contracted to 3s1p1d pattern {311/2/1}

Atom   0C    basis set group =>   1
Atom   1C    basis set group =>   1
Atom   2C    basis set group =>   1
Atom   3C    basis set group =>   1
Atom   4C    basis set group =>   1
Atom   5C    basis set group =>   1
Atom   6C    basis set group =>   1
Atom   7C    basis set group =>   1
Atom   8C    basis set group =>   1
Atom   9H    basis set group =>   2
Atom  10H    basis set group =>   2
Atom  11C    basis set group =>   1
Atom  12H    basis set group =>   2
Atom  13H    basis set group =>   2
Atom  14C    basis set group =>   1
Atom  15H    basis set group =>   2
Atom  16H    basis set group =>   2
Atom  17C    basis set group =>   1
Atom  18H    basis set group =>   2
Atom  19H    basis set group =>   2
Atom  20C    basis set group =>   1
Atom  21H    basis set group =>   2
Atom  22H    basis set group =>   2
Atom  23C    basis set group =>   1
Atom  24H    basis set group =>   2
Atom  25H    basis set group =>   2
Atom  26C    basis set group =>   1
Atom  27H    basis set group =>   2
Atom  28H    basis set group =>   2
Atom  29C    basis set group =>   1
Atom  30H    basis set group =>   2
Atom  31H    basis set group =>   2
Atom  32C    basis set group =>   1
Atom  33H    basis set group =>   2
Atom  34H    basis set group =>   2
Atom  35C    basis set group =>   1
Atom  36H    basis set group =>   2
Atom  37H    basis set group =>   2
Atom  38C    basis set group =>   1
Atom  39C    basis set group =>   1
Atom  40C    basis set group =>   1
Atom  41C    basis set group =>   1
Atom  42C    basis set group =>   1
Atom  43C    basis set group =>   1
Atom  44H    basis set group =>   2
Atom  45H    basis set group =>   2
Atom  46H    basis set group =>   2
Atom  47H    basis set group =>   2
Atom  48H    basis set group =>   2


           ************************************************************
           *        Program running with 16 parallel MPI-processes    *
           *              working on a common directory               *
           ************************************************************
------------------------------------------------------------------------------
                           ORCA GTO INTEGRAL CALCULATION
                           -- RI-GTO INTEGRALS CHOSEN --
------------------------------------------------------------------------------
------------------------------------------------------------------------------
                   ___                                                        
                  /   \      - P O W E R E D   B Y -                         
                 /     \                                                     
                 |  |  |   _    _      __       _____    __    __             
                 |  |  |  | |  | |    /  \     |  _  \  |  |  /  |          
                  \  \/   | |  | |   /    \    | | | |  |  | /  /          
                 / \  \   | |__| |  /  /\  \   | |_| |  |  |/  /          
                |  |  |   |  __  | /  /__\  \  |    /   |      \           
                |  |  |   | |  | | |   __   |  |    \   |  |\   \          
                \     /   | |  | | |  |  |  |  | |\  \  |  | \   \       
                 \___/    |_|  |_| |__|  |__|  |_| \__\ |__|  \__/        
                                                                              
                      - O R C A' S   B I G   F R I E N D -                    
                                      &                                       
                       - I N T E G R A L  F E E D E R -                       
                                                                              
 v1 FN, 2020, v2 2021                                                         
------------------------------------------------------------------------------


Reading SHARK input file BDE.SHARKINP.tmp ... ok
----------------------
SHARK INTEGRAL PACKAGE
----------------------

Number of atoms                             ...     49
Number of basis functions                   ...    583
Number of shells                            ...    341
Maximum angular momentum                    ...      2
Integral batch strategy                     ... SHARK/LIBINT Hybrid
RI-J (if used) integral strategy            ... SPLIT-RIJ (Revised 2003 algorithm where possible)
Printlevel                                  ...      1
Contraction scheme used                     ... SEGMENTED contraction
Coulomb Range Separation                    ... NOT USED
Exchange Range Separation                   ... NOT USED
Finite Nucleus Model                        ... NOT USED
Auxiliary Coulomb fitting basis             ... AVAILABLE
   # of basis functions in Aux-J            ...   1451
   # of shells in Aux-J                     ...    485
   Maximum angular momentum in Aux-J        ...      4
Auxiliary J/K fitting basis                 ... NOT available
Auxiliary Correlation fitting basis         ... NOT available
Auxiliary 'external' fitting basis          ... NOT available
Integral threshold                          ...     1.000000e-10
Primitive cut-off                           ...     1.000000e-11
Primitive pair pre-selection threshold      ...     1.000000e-11

Calculating pre-screening integrals         ... done (  0.0 sec) Dimension = 341
Organizing shell pair data                  ... done (  0.2 sec)
Shell pair information
Total number of shell pairs                 ...     58311
Shell pairs after pre-screening             ...     29659
Total number of primitive shell pairs       ...    156979
Primitive shell pairs kept                  ...     55799
          la=0 lb=0:  13596 shell pairs
          la=1 lb=0:  10218 shell pairs
          la=1 lb=1:   1832 shell pairs
          la=2 lb=0:   2787 shell pairs
          la=2 lb=1:   1064 shell pairs
          la=2 lb=2:    162 shell pairs

Calculating one electron integrals          ... done (  0.0 sec)
Calculating RI/J V-Matrix + Cholesky decomp.... done (  0.2 sec)
Calculating Nuclear repulsion               ... done (  0.0 sec) ENN=   1728.320371376087 Eh

SHARK setup successfully completed in   0.9 seconds

Maximum memory used throughout the entire GTOINT-calculation: 41.1 MB


           ************************************************************
           *        Program running with 16 parallel MPI-processes    *
           *              working on a common directory               *
           ************************************************************
-------------------------------------------------------------------------------
                                 ORCA SCF
-------------------------------------------------------------------------------

------------
SCF SETTINGS
------------
Hamiltonian:
 Density Functional     Method          .... DFT(GTOs)
 Exchange Functional    Exchange        .... B88
   X-Alpha parameter    XAlpha          ....  0.666667
   Becke's b parameter  XBeta           ....  0.004200
 Correlation Functional Correlation     .... LYP
 LDA part of GGA corr.  LDAOpt          .... VWN-5
 Gradients option       PostSCFGGA      .... off
 Hybrid DFT is turned on
   Fraction HF Exchange ScalHFX         ....  0.200000
   Scaling of DF-GGA-X  ScalDFX         ....  0.720000
   Scaling of DF-GGA-C  ScalDFC         ....  0.810000
   Scaling of DF-LDA-C  ScalLDAC        ....  1.000000
   Perturbative correction              ....  0.000000
   Density functional embedding theory  .... OFF
   NL short-range parameter             ....  4.800000
 RI-approximation to the Coulomb term is turned on
   Number of AuxJ basis functions       .... 1451
   RIJ-COSX (HFX calculated with COS-X)).... on


General Settings:
 Integral files         IntName         .... BDE
 Hartree-Fock type      HFTyp           .... UHF
 Total Charge           Charge          ....    0
 Multiplicity           Mult            ....    2
 Number of Electrons    NEL             ....  169
 Basis Dimension        Dim             ....  583
 Nuclear Repulsion      ENuc            ....   1728.3203713761 Eh

Convergence Acceleration:
 DIIS                   CNVDIIS         .... on
   Start iteration      DIISMaxIt       ....    12
   Startup error        DIISStart       ....  0.200000
   # of expansion vecs  DIISMaxEq       ....     5
   Bias factor          DIISBfac        ....   1.050
   Max. coefficient     DIISMaxC        ....  10.000
 Trust-Rad. Augm. Hess. CNVTRAH         .... auto
   Auto Start mean grad. ratio tolernc. ....  1.125000
   Auto Start start iteration           ....    20
   Auto Start num. interpolation iter.  ....    10
   Max. Number of Micro iterations      ....    16
   Max. Number of Macro iterations      .... Maxiter - #DIIS iter
   Number of Davidson start vectors     ....     2
   Converg. threshold I  (grad. norm)   ....   5.000e-05
   Converg. threshold II (energy diff.) ....   1.000e-06
   Grad. Scal. Fac. for Micro threshold ....   0.100
   Minimum threshold for Micro iter.    ....   0.010
   NR start threshold (gradient norm)   ....   0.001
   Initial trust radius                 ....   0.400
   Minimum AH scaling param. (alpha)    ....   1.000
   Maximum AH scaling param. (alpha)    .... 1000.000
   Orbital update algorithm             .... Taylor
   White noise on init. David. guess    .... on
   Maximum white noise                  ....   0.010
   Quad. conv. algorithm                .... NR
 SOSCF                  CNVSOSCF        .... off
 Level Shifting         CNVShift        .... on
   Level shift para.    LevelShift      ....    0.2500
   Turn off err/grad.   ShiftErr        ....    0.0010
 Zerner damping         CNVZerner       .... off
 Static damping         CNVDamp         .... on
   Fraction old density DampFac         ....    0.7000
   Max. Damping (<1)    DampMax         ....    0.9800
   Min. Damping (>=0)   DampMin         ....    0.0000
   Turn off err/grad.   DampErr         ....    0.1000
 Fernandez-Rico         CNVRico         .... off

SCF Procedure:
 Maximum # iterations   MaxIter         ....   125
 SCF integral mode      SCFMode         .... Direct
   Integral package                     .... SHARK and LIBINT hybrid scheme
 Reset frequency        DirectResetFreq ....    20
 Integral Threshold     Thresh          ....  1.000e-10 Eh
 Primitive CutOff       TCut            ....  1.000e-11 Eh

Convergence Tolerance:
 Convergence Check Mode ConvCheckMode   .... Total+1el-Energy
 Convergence forced     ConvForced      .... 0
 Energy Change          TolE            ....  1.000e-06 Eh
 1-El. energy change                    ....  1.000e-03 Eh
 DIIS Error             TolErr          ....  1.000e-06


Diagonalization of the overlap matrix:
Smallest eigenvalue                        ... 7.297e-05
Time for diagonalization                   ...    0.065 sec
Threshold for overlap eigenvalues          ... 1.000e-08
Number of eigenvalues below threshold      ... 0
Time for construction of square roots      ...    0.065 sec
Total time needed                          ...    0.132 sec

Time for model grid setup =    0.434 sec

------------------------------
INITIAL GUESS: MODEL POTENTIAL
------------------------------
Loading Hartree-Fock densities                     ... done
Calculating cut-offs                               ... done
Initializing the effective Hamiltonian             ... done
Setting up the integral package (SHARK)            ... done
Starting the Coulomb interaction                   ... done (   0.3 sec)
Reading the grid                                   ... done
Mapping shells                                     ... done
Starting the XC term evaluation                    ... done (   0.1 sec)
  promolecular density results
     # of electrons  =    168.999352814
     EX              =   -130.640432477
     EC              =     -5.563948929
     EX+EC           =   -136.204381406
Transforming the Hamiltonian                       ... done (   0.0 sec)
Diagonalizing the Hamiltonian                      ... done (   0.1 sec)
Back transforming the eigenvectors                 ... done (   0.0 sec)
Now organizing SCF variables                       ... done
                      ------------------
                      INITIAL GUESS DONE (   1.2 sec)
                      ------------------
-------------------
DFT GRID GENERATION
-------------------

General Integration Accuracy     IntAcc      ... 4.388
Radial Grid Type                 RadialGrid  ... OptM3 with GC (2021)
Angular Grid (max. ang.)         AngularGrid ... 4 (Lebedev-302)
Angular grid pruning method      GridPruning ... 4 (adaptive)
Weight generation scheme         WeightScheme... Becke
Basis function cutoff            BFCut       ... 1.0000e-10
Integration weight cutoff        WCut        ... 1.0000e-14
Angular grids for H and He will be reduced by one unit
Partially contracted basis set               ... off
Rotationally invariant grid construction     ... off

Total number of grid points                  ...   223003
Total number of batches                      ...     3511
Average number of points per batch           ...       63
Average number of grid points per atom       ...     4551
Time for grid setup =    1.549 sec

--------------------
COSX GRID GENERATION
--------------------

GRIDX 1
-------
General Integration Accuracy     IntAcc      ... 3.816
Radial Grid Type                 RadialGrid  ... OptM3 with GC (2021)
Angular Grid (max. ang.)         AngularGrid ... 1 (Lebedev-50)
Angular grid pruning method      GridPruning ... 4 (adaptive)
Weight generation scheme         WeightScheme... Becke
Basis function cutoff            BFCut       ... 1.0000e-10
Integration weight cutoff        WCut        ... 1.0000e-14
Angular grids for H and He will be reduced by one unit
Partially contracted basis set               ... on
Rotationally invariant grid construction     ... off

Total number of grid points                  ...    28396
Total number of batches                      ...      471
Average number of points per batch           ...       60
Average number of grid points per atom       ...      580
UseSFitting                                  ... on

GRIDX 2
-------
General Integration Accuracy     IntAcc      ... 4.020
Radial Grid Type                 RadialGrid  ... OptM3 with GC (2021)
Angular Grid (max. ang.)         AngularGrid ... 2 (Lebedev-110)
Angular grid pruning method      GridPruning ... 4 (adaptive)
Weight generation scheme         WeightScheme... Becke
Basis function cutoff            BFCut       ... 1.0000e-10
Integration weight cutoff        WCut        ... 1.0000e-14
Angular grids for H and He will be reduced by one unit
Partially contracted basis set               ... on
Rotationally invariant grid construction     ... off

Total number of grid points                  ...    60558
Total number of batches                      ...      971
Average number of points per batch           ...       62
Average number of grid points per atom       ...     1236
UseSFitting                                  ... on

GRIDX 3
-------
General Integration Accuracy     IntAcc      ... 4.338
Radial Grid Type                 RadialGrid  ... OptM3 with GC (2021)
Angular Grid (max. ang.)         AngularGrid ... 3 (Lebedev-194)
Angular grid pruning method      GridPruning ... 4 (adaptive)
Weight generation scheme         WeightScheme... Becke
Basis function cutoff            BFCut       ... 1.0000e-10
Integration weight cutoff        WCut        ... 1.0000e-14
Angular grids for H and He will be reduced by one unit
Partially contracted basis set               ... on
Rotationally invariant grid construction     ... off

Total number of grid points                  ...   132523
Total number of batches                      ...     2094
Average number of points per batch           ...       63
Average number of grid points per atom       ...     2705
UseSFitting                                  ... on

Time for X-Grid setup             =    2.789 sec

--------------
SCF ITERATIONS
--------------
ITER       Energy         Delta-E        Max-DP      RMS-DP      [F,P]     Damp
               ***  Starting incremental Fock matrix formation  ***
  0   -928.3820393240   0.000000000000 0.07370520  0.00091970  0.0799986 0.7000
  1   -928.6193034705  -0.237264146514 0.08604111  0.00074628  0.0428249 0.7000
                               ***Turning on DIIS***
  2   -928.7253172999  -0.106013829436 0.18997244  0.00148447  0.0165936 0.0000
  3   -928.8720538601  -0.146736560180 0.10134650  0.00061689  0.0235887 0.0000
  4   -928.9153592173  -0.043305357214 0.07088631  0.00035662  0.0061848 0.0000
  5   -928.9179684546  -0.002609237279 0.03340914  0.00015920  0.0037678 0.0000
  6   -928.9185215929  -0.000553138300 0.01483663  0.00006856  0.0022763 0.0000
  7   -928.9187643628  -0.000242769928 0.00702450  0.00003431  0.0014744 0.0000
  8   -928.9189181038  -0.000153740969 0.00495995  0.00002482  0.0011650 0.0000
  9   -928.9190186941  -0.000100590282 0.00602238  0.00003856  0.0009129 0.0000
               *** Restarting incremental Fock matrix formation ***
                                   *** Resetting DIIS ***
 10   -928.9194008311  -0.000382137061 0.00635579  0.00003792  0.0006777 0.0000
 11   -928.9193729988   0.000027832356 0.00104144  0.00000927  0.0013668 0.0000
 12   -928.9194077196  -0.000034720817 0.00246740  0.00001399  0.0006644 0.0000
 13   -928.9194172873  -0.000009567708 0.00054400  0.00000408  0.0002431 0.0000
 14   -928.9194189529  -0.000001665596 0.00039130  0.00000291  0.0002608 0.0000
                 **** Energy Check signals convergence ****

               *****************************************************
               *                     SUCCESS                       *
               *           SCF CONVERGED AFTER  15 CYCLES          *
               *****************************************************

Old exchange energy                            =    -26.592116496 Eh
New exchange energy                            =    -26.592099172 Eh
Exchange energy change after final integration =      0.000017324 Eh
Total energy after final integration           =   -928.919402369 Eh
Final COS-X integration done in                =     9.989 sec

----------------
TOTAL SCF ENERGY
----------------

Total Energy       :         -928.91940237 Eh          -25277.18201 eV

Components:
Nuclear Repulsion  :         1728.32037138 Eh           47029.98826 eV
Electronic Energy  :        -2657.23977375 Eh          -72307.17027 eV
One Electron Energy:        -4683.64627998 Eh         -127448.49463 eV
Two Electron Energy:         2026.40650623 Eh           55141.32437 eV
Max COSX asymmetry :            0.00000340 Eh               0.00009 eV

Virial components:
Potential Energy   :        -1850.48870117 Eh          -50354.35753 eV
Kinetic Energy     :          921.56929880 Eh           25077.17552 eV
Virial Ratio       :            2.00797564


DFT components:
N(Alpha)           :       85.000178965398 electrons
N(Beta)            :       84.000186300085 electrons
N(Total)           :      169.000365265483 electrons
E(X)               :     -105.502447608782 Eh       
E(C)               :       -6.573209196996 Eh       
E(XC)              :     -112.075656805778 Eh       
DFET-embed. en.    :        0.000000000000 Eh       

---------------
SCF CONVERGENCE
---------------

  Last Energy change         ...   -7.3989e-07  Tolerance :   1.0000e-06
  Last MAX-Density change    ...    0.0000e+00  Tolerance :   1.0000e-05
  Last RMS-Density change    ...    0.0000e+00  Tolerance :   1.0000e-06
  Last DIIS Error            ...    9.8818e-05  Tolerance :   1.0000e-06

             **** THE GBW FILE WAS UPDATED (BDE.gbw) ****
             **** DENSITY BDE.scfp WAS UPDATED ****
             **** ENERGY FILE WAS UPDATED (BDE.en.tmp) ****
----------------------
UHF SPIN CONTAMINATION
----------------------

Warning: in a DFT calculation there is little theoretical justification to 
         calculate <S**2> as in Hartree-Fock theory. We will do it anyways
         but you should keep in mind that the values have only limited relevance

Expectation value of <S**2>     :     0.773424
Ideal value S*(S+1) for S=0.5   :     0.750000
Deviation                       :     0.023424

             **** THE GBW FILE WAS UPDATED (BDE.gbw) ****
             **** DENSITY BDE.scfp WAS UPDATED ****
----------------
ORBITAL ENERGIES
----------------
                 SPIN UP ORBITALS
  NO   OCC          E(Eh)            E(eV) 
   0   1.0000     -10.254950      -279.0514 
   1   1.0000     -10.247815      -278.8572 
   2   1.0000     -10.242072      -278.7010 
   3   1.0000     -10.233346      -278.4635 
   4   1.0000     -10.232941      -278.4525 
   5   1.0000     -10.230210      -278.3782 
   6   1.0000     -10.226198      -278.2690 
   7   1.0000     -10.226045      -278.2648 
   8   1.0000     -10.225934      -278.2618 
   9   1.0000     -10.225113      -278.2395 
  10   1.0000     -10.222234      -278.1611 
  11   1.0000     -10.222113      -278.1578 
  12   1.0000     -10.218646      -278.0635 
  13   1.0000     -10.217711      -278.0381 
  14   1.0000     -10.203198      -277.6431 
  15   1.0000     -10.194421      -277.4043 
  16   1.0000     -10.192393      -277.3491 
  17   1.0000     -10.190768      -277.3049 
  18   1.0000     -10.189064      -277.2585 
  19   1.0000     -10.185880      -277.1719 
  20   1.0000     -10.185165      -277.1524 
  21   1.0000     -10.183843      -277.1164 
  22   1.0000     -10.178603      -276.9739 
  23   1.0000     -10.176059      -276.9046 
  24   1.0000      -0.893824       -24.3222 
  25   1.0000      -0.883937       -24.0532 
  26   1.0000      -0.833600       -22.6834 
  27   1.0000      -0.815244       -22.1839 
  28   1.0000      -0.800956       -21.7951 
  29   1.0000      -0.797427       -21.6991 
  30   1.0000      -0.776422       -21.1275 
  31   1.0000      -0.771152       -20.9841 
  32   1.0000      -0.754792       -20.5389 
  33   1.0000      -0.738259       -20.0890 
  34   1.0000      -0.719661       -19.5830 
  35   1.0000      -0.706500       -19.2248 
  36   1.0000      -0.662662       -18.0320 
  37   1.0000      -0.658879       -17.9290 
  38   1.0000      -0.634134       -17.2557 
  39   1.0000      -0.629693       -17.1348 
  40   1.0000      -0.629068       -17.1178 
  41   1.0000      -0.602251       -16.3881 
  42   1.0000      -0.585571       -15.9342 
  43   1.0000      -0.572903       -15.5895 
  44   1.0000      -0.559726       -15.2309 
  45   1.0000      -0.526227       -14.3194 
  46   1.0000      -0.523441       -14.2435 
  47   1.0000      -0.500175       -13.6105 
  48   1.0000      -0.493230       -13.4215 
  49   1.0000      -0.481047       -13.0900 
  50   1.0000      -0.477090       -12.9823 
  51   1.0000      -0.475601       -12.9418 
  52   1.0000      -0.455889       -12.4054 
  53   1.0000      -0.446948       -12.1621 
  54   1.0000      -0.444709       -12.1012 
  55   1.0000      -0.435461       -11.8495 
  56   1.0000      -0.434813       -11.8319 
  57   1.0000      -0.429539       -11.6883 
  58   1.0000      -0.424427       -11.5492 
  59   1.0000      -0.418091       -11.3768 
  60   1.0000      -0.410067       -11.1585 
  61   1.0000      -0.404630       -11.0105 
  62   1.0000      -0.391980       -10.6663 
  63   1.0000      -0.382860       -10.4181 
  64   1.0000      -0.380994       -10.3674 
  65   1.0000      -0.374131       -10.1806 
  66   1.0000      -0.371330       -10.1044 
  67   1.0000      -0.367782       -10.0079 
  68   1.0000      -0.367257        -9.9936 
  69   1.0000      -0.354782        -9.6541 
  70   1.0000      -0.345344        -9.3973 
  71   1.0000      -0.340619        -9.2687 
  72   1.0000      -0.335801        -9.1376 
  73   1.0000      -0.332206        -9.0398 
  74   1.0000      -0.330766        -9.0006 
  75   1.0000      -0.329494        -8.9660 
  76   1.0000      -0.326232        -8.8772 
  77   1.0000      -0.312731        -8.5098 
  78   1.0000      -0.293570        -7.9884 
  79   1.0000      -0.279074        -7.5940 
  80   1.0000      -0.267304        -7.2737 
  81   1.0000      -0.264336        -7.1929 
  82   1.0000      -0.250040        -6.8039 
  83   1.0000      -0.246162        -6.6984 
  84   1.0000      -0.221084        -6.0160 
  85   0.0000      -0.083443        -2.2706 
  86   0.0000      -0.033566        -0.9134 
  87   0.0000      -0.032935        -0.8962 
  88   0.0000      -0.022380        -0.6090 
  89   0.0000       0.001166         0.0317 
  90   0.0000       0.014467         0.3937 
  91   0.0000       0.016196         0.4407 
  92   0.0000       0.022122         0.6020 
  93   0.0000       0.025296         0.6883 
  94   0.0000       0.028422         0.7734 
  95   0.0000       0.030732         0.8363 
  96   0.0000       0.042103         1.1457 
  97   0.0000       0.044830         1.2199 
  98   0.0000       0.048236         1.3126 
  99   0.0000       0.049640         1.3508 
 100   0.0000       0.057139         1.5548 
 101   0.0000       0.059276         1.6130 
 102   0.0000       0.067590         1.8392 
 103   0.0000       0.070132         1.9084 
 104   0.0000       0.075289         2.0487 
 105   0.0000       0.076320         2.0768 
 106   0.0000       0.095006         2.5852 
 107   0.0000       0.096311         2.6208 
 108   0.0000       0.097131         2.6431 
 109   0.0000       0.108214         2.9447 
 110   0.0000       0.115381         3.1397 
 111   0.0000       0.122016         3.3202 
 112   0.0000       0.135908         3.6982 
 113   0.0000       0.136147         3.7048 
 114   0.0000       0.143499         3.9048 
 115   0.0000       0.148343         4.0366 
 116   0.0000       0.155845         4.2408 
 117   0.0000       0.164134         4.4663 
 118   0.0000       0.169348         4.6082 
 119   0.0000       0.169874         4.6225 
 120   0.0000       0.177249         4.8232 
 121   0.0000       0.182381         4.9628 
 122   0.0000       0.183383         4.9901 
 123   0.0000       0.192408         5.2357 
 124   0.0000       0.194443         5.2911 
 125   0.0000       0.195664         5.3243 
 126   0.0000       0.197826         5.3831 
 127   0.0000       0.200149         5.4463 
 128   0.0000       0.203087         5.5263 
 129   0.0000       0.207593         5.6489 
 130   0.0000       0.210383         5.7248 
 131   0.0000       0.210733         5.7343 
 132   0.0000       0.210863         5.7379 
 133   0.0000       0.223311         6.0766 
 134   0.0000       0.229797         6.2531 
 135   0.0000       0.231319         6.2945 
 136   0.0000       0.233961         6.3664 
 137   0.0000       0.239919         6.5285 
 138   0.0000       0.243354         6.6220 
 139   0.0000       0.246772         6.7150 
 140   0.0000       0.247474         6.7341 
 141   0.0000       0.252098         6.8599 
 142   0.0000       0.256750         6.9865 
 143   0.0000       0.264128         7.1873 
 144   0.0000       0.264759         7.2045 
 145   0.0000       0.265742         7.2312 
 146   0.0000       0.276658         7.5282 
 147   0.0000       0.277755         7.5581 
 148   0.0000       0.278247         7.5715 
 149   0.0000       0.279558         7.6072 
 150   0.0000       0.280098         7.6219 
 151   0.0000       0.289022         7.8647 
 152   0.0000       0.291312         7.9270 
 153   0.0000       0.291784         7.9399 
 154   0.0000       0.294939         8.0257 
 155   0.0000       0.297906         8.1064 
 156   0.0000       0.301609         8.2072 
 157   0.0000       0.303304         8.2533 
 158   0.0000       0.303980         8.2717 
 159   0.0000       0.307648         8.3715 
 160   0.0000       0.311450         8.4750 
 161   0.0000       0.313890         8.5414 
 162   0.0000       0.316914         8.6237 
 163   0.0000       0.326020         8.8714 
 164   0.0000       0.328022         8.9259 
 165   0.0000       0.331234         9.0133 
 166   0.0000       0.334047         9.0899 
 167   0.0000       0.335208         9.1215 
 168   0.0000       0.341366         9.2890 
 169   0.0000       0.348773         9.4906 
 170   0.0000       0.356473         9.7001 
 171   0.0000       0.364256         9.9119 
 172   0.0000       0.364536         9.9195 
 173   0.0000       0.368004        10.0139 
 174   0.0000       0.369447        10.0532 
 175   0.0000       0.372805        10.1445 
 176   0.0000       0.382994        10.4218 
 177   0.0000       0.390709        10.6317 
 178   0.0000       0.398920        10.8552 
 179   0.0000       0.400340        10.8938 
 180   0.0000       0.405413        11.0319 
 181   0.0000       0.408779        11.1234 
 182   0.0000       0.410035        11.1576 
 183   0.0000       0.412715        11.2306 
 184   0.0000       0.416614        11.3366 
 185   0.0000       0.419002        11.4016 
 186   0.0000       0.424645        11.5552 
 187   0.0000       0.430931        11.7262 
 188   0.0000       0.431881        11.7521 
 189   0.0000       0.436198        11.8696 
 190   0.0000       0.437383        11.9018 
 191   0.0000       0.442532        12.0419 
 192   0.0000       0.446713        12.1557 
 193   0.0000       0.452847        12.3226 
 194   0.0000       0.458138        12.4666 
 195   0.0000       0.461376        12.5547 
 196   0.0000       0.464808        12.6481 
 197   0.0000       0.467827        12.7302 
 198   0.0000       0.470617        12.8061 
 199   0.0000       0.481446        13.1008 
 200   0.0000       0.484597        13.1865 
 201   0.0000       0.489969        13.3327 
 202   0.0000       0.495857        13.4929 
 203   0.0000       0.502860        13.6835 
 204   0.0000       0.504276        13.7221 
 205   0.0000       0.512683        13.9508 
 206   0.0000       0.512754        13.9527 
 207   0.0000       0.522068        14.2062 
 208   0.0000       0.527566        14.3558 
 209   0.0000       0.533290        14.5116 
 210   0.0000       0.541136        14.7251 
 211   0.0000       0.542701        14.7676 
 212   0.0000       0.542794        14.7702 
 213   0.0000       0.557373        15.1669 
 214   0.0000       0.565481        15.3875 
 215   0.0000       0.573422        15.6036 
 216   0.0000       0.582244        15.8437 
 217   0.0000       0.585243        15.9253 
 218   0.0000       0.586921        15.9709 
 219   0.0000       0.593755        16.1569 
 220   0.0000       0.598732        16.2923 
 221   0.0000       0.614981        16.7345 
 222   0.0000       0.622580        16.9413 
 223   0.0000       0.632556        17.2127 
 224   0.0000       0.646808        17.6005 
 225   0.0000       0.647949        17.6316 
 226   0.0000       0.651566        17.7300 
 227   0.0000       0.659901        17.9568 
 228   0.0000       0.662408        18.0250 
 229   0.0000       0.669430        18.2161 
 230   0.0000       0.694588        18.9007 
 231   0.0000       0.698594        19.0097 
 232   0.0000       0.710631        19.3372 
 233   0.0000       0.740894        20.1608 
 234   0.0000       0.757503        20.6127 
 235   0.0000       0.759512        20.6674 
 236   0.0000       0.770809        20.9748 
 237   0.0000       0.779999        21.2248 
 238   0.0000       0.789872        21.4935 
 239   0.0000       0.801517        21.8104 
 240   0.0000       0.812901        22.1202 
 241   0.0000       0.823765        22.4158 
 242   0.0000       0.833515        22.6811 
 243   0.0000       0.839729        22.8502 
 244   0.0000       0.840315        22.8661 
 245   0.0000       0.843787        22.9606 
 246   0.0000       0.850772        23.1507 
 247   0.0000       0.853676        23.2297 
 248   0.0000       0.859642        23.3921 
 249   0.0000       0.866590        23.5811 
 250   0.0000       0.873868        23.7792 
 251   0.0000       0.881106        23.9761 
 252   0.0000       0.886807        24.1312 
 253   0.0000       0.889142        24.1948 
 254   0.0000       0.897007        24.4088 
 255   0.0000       0.903131        24.5754 
 256   0.0000       0.904271        24.6065 
 257   0.0000       0.910572        24.7779 
 258   0.0000       0.917357        24.9625 
 259   0.0000       0.920626        25.0515 
 260   0.0000       0.925497        25.1840 
 261   0.0000       0.926039        25.1988 
 262   0.0000       0.928563        25.2675 
 263   0.0000       0.936233        25.4762 
 264   0.0000       0.939713        25.5709 
 265   0.0000       0.948895        25.8208 
 266   0.0000       0.955108        25.9898 
 267   0.0000       0.959999        26.1229 
 268   0.0000       0.964979        26.2584 
 269   0.0000       0.968179        26.3455 
 270   0.0000       0.974203        26.5094 
 271   0.0000       0.976886        26.5824 
 272   0.0000       0.977108        26.5885 
 273   0.0000       0.982414        26.7328 
 274   0.0000       0.986437        26.8423 
 275   0.0000       0.993080        27.0231 
 276   0.0000       0.997288        27.1376 
 277   0.0000       1.008315        27.4377 
 278   0.0000       1.010465        27.4962 
 279   0.0000       1.012483        27.5511 
 280   0.0000       1.018276        27.7087 
 281   0.0000       1.026769        27.9398 
 282   0.0000       1.028013        27.9737 
 283   0.0000       1.039032        28.2735 
 284   0.0000       1.039594        28.2888 
 285   0.0000       1.054787        28.7022 
 286   0.0000       1.058609        28.8062 
 287   0.0000       1.069138        29.0927 
 288   0.0000       1.076882        29.3034 
 289   0.0000       1.088083        29.6082 
 290   0.0000       1.093429        29.7537 
 291   0.0000       1.097082        29.8531 
 292   0.0000       1.103815        30.0363 
 293   0.0000       1.105469        30.0813 
 294   0.0000       1.115562        30.3560 
 295   0.0000       1.121096        30.5066 
 296   0.0000       1.123710        30.5777 
 297   0.0000       1.145979        31.1837 
 298   0.0000       1.151311        31.3288 
 299   0.0000       1.167438        31.7676 
 300   0.0000       1.168852        31.8061 
 301   0.0000       1.171384        31.8750 
 302   0.0000       1.179366        32.0922 
 303   0.0000       1.180060        32.1111 
 304   0.0000       1.195143        32.5215 
 305   0.0000       1.200868        32.6773 
 306   0.0000       1.206513        32.8309 
 307   0.0000       1.213683        33.0260 
 308   0.0000       1.226499        33.3747 
 309   0.0000       1.237173        33.6652 
 310   0.0000       1.242987        33.8234 
 311   0.0000       1.247945        33.9583 
 312   0.0000       1.263304        34.3762 
 313   0.0000       1.264995        34.4223 
 314   0.0000       1.282226        34.8911 
 315   0.0000       1.294218        35.2175 
 316   0.0000       1.297155        35.2974 
 317   0.0000       1.306918        35.5631 
 318   0.0000       1.311009        35.6744 
 319   0.0000       1.318196        35.8699 
 320   0.0000       1.327327        36.1184 
 321   0.0000       1.337170        36.3862 
 322   0.0000       1.338052        36.4102 
 323   0.0000       1.343281        36.5525 
 324   0.0000       1.359597        36.9965 
 325   0.0000       1.371426        37.3184 
 326   0.0000       1.383771        37.6543 
 327   0.0000       1.384446        37.6727 
 328   0.0000       1.399154        38.0729 
 329   0.0000       1.403276        38.1851 
 330   0.0000       1.407563        38.3017 
 331   0.0000       1.421542        38.6821 
 332   0.0000       1.423918        38.7468 
 333   0.0000       1.424356        38.7587 
 334   0.0000       1.428827        38.8803 
 335   0.0000       1.431240        38.9460 
 336   0.0000       1.443431        39.2778 
 337   0.0000       1.450078        39.4586 
 338   0.0000       1.451269        39.4910 
 339   0.0000       1.454645        39.5829 
 340   0.0000       1.474222        40.1156 
 341   0.0000       1.484124        40.3851 
 342   0.0000       1.485988        40.4358 
 343   0.0000       1.493506        40.6404 
 344   0.0000       1.503671        40.9170 
 345   0.0000       1.507166        41.0121 
 346   0.0000       1.512037        41.1446 
 347   0.0000       1.536198        41.8021 
 348   0.0000       1.536367        41.8067 
 349   0.0000       1.546404        42.0798 
 350   0.0000       1.548228        42.1294 
 351   0.0000       1.550293        42.1856 
 352   0.0000       1.556275        42.3484 
 353   0.0000       1.571893        42.7734 
 354   0.0000       1.574716        42.8502 
 355   0.0000       1.585235        43.1364 
 356   0.0000       1.585654        43.1478 
 357   0.0000       1.592682        43.3391 
 358   0.0000       1.595546        43.4170 
 359   0.0000       1.601192        43.5706 
 360   0.0000       1.606904        43.7261 
 361   0.0000       1.611606        43.8540 
 362   0.0000       1.612955        43.8907 
 363   0.0000       1.620389        44.0930 
 364   0.0000       1.621398        44.1205 
 365   0.0000       1.628078        44.3023 
 366   0.0000       1.633475        44.4491 
 367   0.0000       1.639080        44.6016 
 368   0.0000       1.645316        44.7713 
 369   0.0000       1.656588        45.0780 
 370   0.0000       1.664356        45.2894 
 371   0.0000       1.671086        45.4726 
 372   0.0000       1.671718        45.4898 
 373   0.0000       1.677759        45.6541 
 374   0.0000       1.680557        45.7303 
 375   0.0000       1.689744        45.9803 
 376   0.0000       1.699471        46.2450 
 377   0.0000       1.699824        46.2545 
 378   0.0000       1.708201        46.4825 
 379   0.0000       1.714775        46.6614 
 380   0.0000       1.727648        47.0117 
 381   0.0000       1.735449        47.2240 
 382   0.0000       1.739070        47.3225 
 383   0.0000       1.748437        47.5774 
 384   0.0000       1.752065        47.6761 
 385   0.0000       1.755869        47.7796 
 386   0.0000       1.756640        47.8006 
 387   0.0000       1.767013        48.0829 
 388   0.0000       1.773200        48.2512 
 389   0.0000       1.778208        48.3875 
 390   0.0000       1.778300        48.3900 
 391   0.0000       1.790172        48.7131 
 392   0.0000       1.797454        48.9112 
 393   0.0000       1.802167        49.0395 
 394   0.0000       1.821353        49.5615 
 395   0.0000       1.831493        49.8375 
 396   0.0000       1.835593        49.9490 
 397   0.0000       1.836907        49.9848 
 398   0.0000       1.845024        50.2056 
 399   0.0000       1.859060        50.5876 
 400   0.0000       1.869491        50.8714 
 401   0.0000       1.898861        51.6706 
 402   0.0000       1.906354        51.8745 
 403   0.0000       1.910887        51.9979 
 404   0.0000       1.923351        52.3370 
 405   0.0000       1.932421        52.5838 
 406   0.0000       1.934211        52.6325 
 407   0.0000       1.937652        52.7262 
 408   0.0000       1.943252        52.8786 
 409   0.0000       1.950072        53.0642 
 410   0.0000       1.956782        53.2467 
 411   0.0000       1.999646        54.4131 
 412   0.0000       2.001620        54.4668 
 413   0.0000       2.014281        54.8114 
 414   0.0000       2.025456        55.1155 
 415   0.0000       2.032528        55.3079 
 416   0.0000       2.056521        55.9608 
 417   0.0000       2.061020        56.0832 
 418   0.0000       2.079763        56.5932 
 419   0.0000       2.092311        56.9347 
 420   0.0000       2.111474        57.4561 
 421   0.0000       2.112469        57.4832 
 422   0.0000       2.131328        57.9964 
 423   0.0000       2.134158        58.0734 
 424   0.0000       2.144528        58.3556 
 425   0.0000       2.154562        58.6286 
 426   0.0000       2.175838        59.2076 
 427   0.0000       2.185947        59.4826 
 428   0.0000       2.208743        60.1029 
 429   0.0000       2.228577        60.6427 
 430   0.0000       2.230675        60.6998 
 431   0.0000       2.234610        60.8068 
 432   0.0000       2.245842        61.1125 
 433   0.0000       2.246977        61.1434 
 434   0.0000       2.255420        61.3731 
 435   0.0000       2.280816        62.0642 
 436   0.0000       2.298398        62.5426 
 437   0.0000       2.305218        62.7282 
 438   0.0000       2.307671        62.7949 
 439   0.0000       2.317217        63.0547 
 440   0.0000       2.320565        63.1458 
 441   0.0000       2.336475        63.5787 
 442   0.0000       2.342179        63.7339 
 443   0.0000       2.345647        63.8283 
 444   0.0000       2.380606        64.7796 
 445   0.0000       2.386166        64.9309 
 446   0.0000       2.394548        65.1590 
 447   0.0000       2.408722        65.5446 
 448   0.0000       2.410598        65.5957 
 449   0.0000       2.416887        65.7668 
 450   0.0000       2.432060        66.1797 
 451   0.0000       2.444829        66.5272 
 452   0.0000       2.446116        66.5622 
 453   0.0000       2.456147        66.8352 
 454   0.0000       2.457984        66.8851 
 455   0.0000       2.469240        67.1914 
 456   0.0000       2.474184        67.3260 
 457   0.0000       2.485058        67.6219 
 458   0.0000       2.489943        67.7548 
 459   0.0000       2.502310        68.0913 
 460   0.0000       2.509559        68.2886 
 461   0.0000       2.514204        68.4150 
 462   0.0000       2.517746        68.5113 
 463   0.0000       2.537074        69.0373 
 464   0.0000       2.547155        69.3116 
 465   0.0000       2.555340        69.5343 
 466   0.0000       2.563941        69.7684 
 467   0.0000       2.572575        70.0033 
 468   0.0000       2.589348        70.4598 
 469   0.0000       2.604135        70.8621 
 470   0.0000       2.606342        70.9222 
 471   0.0000       2.614522        71.1448 
 472   0.0000       2.614742        71.1507 
 473   0.0000       2.626918        71.4821 
 474   0.0000       2.678400        72.8830 
 475   0.0000       2.710449        73.7551 
 476   0.0000       2.738541        74.5195 
 477   0.0000       2.749619        74.8209 
 478   0.0000       2.775611        75.5282 
 479   0.0000       2.803934        76.2989 
 480   0.0000       2.827120        76.9298 
 481   0.0000       2.925326        79.6022 
 482   0.0000       3.045838        82.8815 
 483   0.0000       3.243525        88.2608 
 484   0.0000       3.412780        92.8665 
 485   0.0000       4.976366       135.4138 
 486   0.0000       4.981149       135.5440 
 487   0.0000       4.992548       135.8542 
 488   0.0000       5.000520       136.0711 
 489   0.0000       5.006099       136.2229 
 490   0.0000       5.007472       136.2602 
 491   0.0000       5.014217       136.4438 
 492   0.0000       5.025167       136.7418 
 493   0.0000       5.030184       136.8783 
 494   0.0000       5.037644       137.0813 
 495   0.0000       5.042860       137.2232 
 496   0.0000       5.073711       138.0627 
 497   0.0000       5.078661       138.1974 
 498   0.0000       5.157701       140.3482 
 499   0.0000       5.182379       141.0197 
 500   0.0000       5.213785       141.8743 
 501   0.0000       5.228466       142.2738 
 502   0.0000       5.230961       142.3417 
 503   0.0000       5.247265       142.7853 
 504   0.0000       5.265905       143.2926 
 505   0.0000       5.282228       143.7367 
 506   0.0000       5.295064       144.0860 
 507   0.0000       5.297757       144.1593 
 508   0.0000       5.300907       144.2450 
 509   0.0000       5.305404       144.3674 
 510   0.0000       5.350650       145.5986 
 511   0.0000       5.358636       145.8159 
 512   0.0000       5.364400       145.9727 
 513   0.0000       5.402476       147.0088 
 514   0.0000       5.434154       147.8709 
 515   0.0000       5.447523       148.2346 
 516   0.0000       5.464282       148.6907 
 517   0.0000       5.484487       149.2405 
 518   0.0000       5.547445       150.9537 
 519   0.0000       5.559664       151.2862 
 520   0.0000       5.576224       151.7368 
 521   0.0000       5.606369       152.5570 
 522   0.0000       5.627460       153.1310 
 523   0.0000       5.642534       153.5412 
 524   0.0000       5.662332       154.0799 
 525   0.0000       5.725027       155.7859 
 526   0.0000       5.734941       156.0557 
 527   0.0000       5.775750       157.1661 
 528   0.0000       5.823081       158.4541 
 529   0.0000       5.847388       159.1155 
 530   0.0000       5.867995       159.6763 
 531   0.0000       5.934157       161.4766 
 532   0.0000       6.150366       167.3600 
 533   0.0000       6.294961       171.2946 
 534   0.0000      29.581600       804.9563 
 535   0.0000      29.711450       808.4897 
 536   0.0000      29.793706       810.7280 
 537   0.0000      29.798274       810.8522 
 538   0.0000      29.825764       811.6003 
 539   0.0000      29.840995       812.0148 
 540   0.0000      29.915076       814.0306 
 541   0.0000      29.945387       814.8554 
 542   0.0000      29.973396       815.6176 
 543   0.0000      29.995408       816.2166 
 544   0.0000      30.025245       817.0284 
 545   0.0000      30.055236       817.8446 
 546   0.0000      30.067661       818.1826 
 547   0.0000      30.094077       818.9015 
 548   0.0000      30.108185       819.2854 
 549   0.0000      30.120019       819.6074 
 550   0.0000      30.153436       820.5167 
 551   0.0000      30.204232       821.8989 
 552   0.0000      30.233218       822.6877 
 553   0.0000      30.245258       823.0153 
 554   0.0000      30.267556       823.6221 
 555   0.0000      30.298861       824.4739 
 556   0.0000      30.454971       828.7219 
 557   0.0000      30.521788       830.5401 
 558   0.0000      36.602656       996.0089 
 559   0.0000      36.607186       996.1322 
 560   0.0000      36.617457       996.4117 
 561   0.0000      36.622948       996.5611 
 562   0.0000      36.629236       996.7322 
 563   0.0000      36.633661       996.8526 
 564   0.0000      36.649453       997.2823 
 565   0.0000      36.654794       997.4276 
 566   0.0000      36.661140       997.6003 
 567   0.0000      36.665605       997.7218 
 568   0.0000      36.685211       998.2553 
 569   0.0000      36.697791       998.5977 
 570   0.0000      36.768761      1000.5288 
 571   0.0000      36.805906      1001.5396 
 572   0.0000      36.818651      1001.8864 
 573   0.0000      36.846610      1002.6472 
 574   0.0000      36.857546      1002.9448 
 575   0.0000      36.871185      1003.3160 
 576   0.0000      36.876449      1003.4592 
 577   0.0000      36.920437      1004.6562 
 578   0.0000      36.924221      1004.7591 
 579   0.0000      36.929526      1004.9035 
 580   0.0000      36.988470      1006.5074 
 581   0.0000      37.017546      1007.2986 
 582   0.0000      37.022420      1007.4313 

                 SPIN DOWN ORBITALS
  NO   OCC          E(Eh)            E(eV) 
   0   1.0000     -10.251871      -278.9676 
   1   1.0000     -10.248285      -278.8700 
   2   1.0000     -10.242355      -278.7087 
   3   1.0000     -10.231300      -278.4078 
   4   1.0000     -10.231162      -278.4041 
   5   1.0000     -10.230931      -278.3978 
   6   1.0000     -10.226841      -278.2865 
   7   1.0000     -10.225599      -278.2527 
   8   1.0000     -10.225446      -278.2485 
   9   1.0000     -10.224471      -278.2220 
  10   1.0000     -10.222525      -278.1691 
  11   1.0000     -10.222393      -278.1655 
  12   1.0000     -10.218844      -278.0689 
  13   1.0000     -10.217051      -278.0201 
  14   1.0000     -10.203151      -277.6419 
  15   1.0000     -10.194553      -277.4079 
  16   1.0000     -10.192397      -277.3492 
  17   1.0000     -10.190769      -277.3049 
  18   1.0000     -10.189068      -277.2586 
  19   1.0000     -10.185166      -277.1525 
  20   1.0000     -10.182207      -277.0719 
  21   1.0000     -10.179549      -276.9996 
  22   1.0000     -10.178603      -276.9739 
  23   1.0000     -10.176060      -276.9047 
  24   1.0000      -0.890802       -24.2400 
  25   1.0000      -0.883083       -24.0299 
  26   1.0000      -0.831058       -22.6142 
  27   1.0000      -0.813654       -22.1406 
  28   1.0000      -0.800471       -21.7819 
  29   1.0000      -0.794670       -21.6241 
  30   1.0000      -0.775974       -21.1153 
  31   1.0000      -0.770610       -20.9694 
  32   1.0000      -0.751294       -20.4438 
  33   1.0000      -0.737418       -20.0662 
  34   1.0000      -0.711094       -19.3498 
  35   1.0000      -0.700099       -19.0506 
  36   1.0000      -0.661847       -18.0098 
  37   1.0000      -0.653859       -17.7924 
  38   1.0000      -0.631228       -17.1766 
  39   1.0000      -0.629136       -17.1197 
  40   1.0000      -0.628623       -17.1057 
  41   1.0000      -0.600946       -16.3526 
  42   1.0000      -0.585439       -15.9306 
  43   1.0000      -0.572390       -15.5755 
  44   1.0000      -0.559034       -15.2121 
  45   1.0000      -0.524500       -14.2724 
  46   1.0000      -0.521388       -14.1877 
  47   1.0000      -0.499248       -13.5852 
  48   1.0000      -0.492149       -13.3921 
  49   1.0000      -0.480939       -13.0870 
  50   1.0000      -0.476734       -12.9726 
  51   1.0000      -0.474938       -12.9237 
  52   1.0000      -0.455523       -12.3954 
  53   1.0000      -0.446175       -12.1411 
  54   1.0000      -0.444553       -12.0969 
  55   1.0000      -0.434139       -11.8135 
  56   1.0000      -0.433310       -11.7910 
  57   1.0000      -0.429393       -11.6844 
  58   1.0000      -0.423118       -11.5136 
  59   1.0000      -0.417911       -11.3719 
  60   1.0000      -0.409432       -11.1412 
  61   1.0000      -0.401552       -10.9268 
  62   1.0000      -0.387450       -10.5431 
  63   1.0000      -0.382240       -10.4013 
  64   1.0000      -0.380518       -10.3544 
  65   1.0000      -0.374054       -10.1785 
  66   1.0000      -0.371056       -10.0969 
  67   1.0000      -0.366691        -9.9782 
  68   1.0000      -0.365267        -9.9394 
  69   1.0000      -0.352437        -9.5903 
  70   1.0000      -0.340512        -9.2658 
  71   1.0000      -0.337966        -9.1965 
  72   1.0000      -0.335774        -9.1369 
  73   1.0000      -0.332120        -9.0375 
  74   1.0000      -0.330586        -8.9957 
  75   1.0000      -0.329125        -8.9560 
  76   1.0000      -0.325813        -8.8658 
  77   1.0000      -0.298885        -8.1331 
  78   1.0000      -0.292640        -7.9631 
  79   1.0000      -0.277565        -7.5529 
  80   1.0000      -0.262776        -7.1505 
  81   1.0000      -0.246745        -6.7143 
  82   1.0000      -0.240682        -6.5493 
  83   1.0000      -0.239555        -6.5186 
  84   0.0000      -0.156411        -4.2562 
  85   0.0000      -0.072432        -1.9710 
  86   0.0000      -0.032111        -0.8738 
  87   0.0000      -0.022495        -0.6121 
  88   0.0000      -0.015696        -0.4271 
  89   0.0000       0.001284         0.0349 
  90   0.0000       0.014454         0.3933 
  91   0.0000       0.016391         0.4460 
  92   0.0000       0.022405         0.6097 
  93   0.0000       0.025341         0.6896 
  94   0.0000       0.028484         0.7751 
  95   0.0000       0.031017         0.8440 
  96   0.0000       0.042197         1.1482 
  97   0.0000       0.044852         1.2205 
  98   0.0000       0.049884         1.3574 
  99   0.0000       0.057341         1.5603 
 100   0.0000       0.060393         1.6434 
 101   0.0000       0.062146         1.6911 
 102   0.0000       0.068792         1.8719 
 103   0.0000       0.070885         1.9289 
 104   0.0000       0.075588         2.0568 
 105   0.0000       0.076511         2.0820 
 106   0.0000       0.095363         2.5950 
 107   0.0000       0.096818         2.6345 
 108   0.0000       0.107487         2.9249 
 109   0.0000       0.108379         2.9492 
 110   0.0000       0.115600         3.1456 
 111   0.0000       0.122470         3.3326 
 112   0.0000       0.136623         3.7177 
 113   0.0000       0.143748         3.9116 
 114   0.0000       0.145874         3.9694 
 115   0.0000       0.149013         4.0549 
 116   0.0000       0.159102         4.3294 
 117   0.0000       0.164902         4.4872 
 118   0.0000       0.169443         4.6108 
 119   0.0000       0.170784         4.6473 
 120   0.0000       0.178087         4.8460 
 121   0.0000       0.182746         4.9728 
 122   0.0000       0.187037         5.0895 
 123   0.0000       0.193315         5.2604 
 124   0.0000       0.194580         5.2948 
 125   0.0000       0.196046         5.3347 
 126   0.0000       0.198626         5.4049 
 127   0.0000       0.200735         5.4623 
 128   0.0000       0.204260         5.5582 
 129   0.0000       0.207838         5.6556 
 130   0.0000       0.210916         5.7393 
 131   0.0000       0.211172         5.7463 
 132   0.0000       0.211481         5.7547 
 133   0.0000       0.224175         6.1001 
 134   0.0000       0.230091         6.2611 
 135   0.0000       0.232216         6.3189 
 136   0.0000       0.234514         6.3814 
 137   0.0000       0.240530         6.5452 
 138   0.0000       0.243648         6.6300 
 139   0.0000       0.247155         6.7254 
 140   0.0000       0.248154         6.7526 
 141   0.0000       0.252351         6.8668 
 142   0.0000       0.257330         7.0023 
 143   0.0000       0.264765         7.2046 
 144   0.0000       0.265972         7.2375 
 145   0.0000       0.266647         7.2558 
 146   0.0000       0.276902         7.5349 
 147   0.0000       0.277859         7.5609 
 148   0.0000       0.278850         7.5879 
 149   0.0000       0.280879         7.6431 
 150   0.0000       0.281273         7.6538 
 151   0.0000       0.289631         7.8813 
 152   0.0000       0.291846         7.9415 
 153   0.0000       0.292558         7.9609 
 154   0.0000       0.295307         8.0357 
 155   0.0000       0.298508         8.1228 
 156   0.0000       0.302380         8.2282 
 157   0.0000       0.303703         8.2642 
 158   0.0000       0.304242         8.2788 
 159   0.0000       0.309309         8.4167 
 160   0.0000       0.313017         8.5176 
 161   0.0000       0.314842         8.5673 
 162   0.0000       0.319671         8.6987 
 163   0.0000       0.326335         8.8800 
 164   0.0000       0.328590         8.9414 
 165   0.0000       0.333255         9.0683 
 166   0.0000       0.335997         9.1429 
 167   0.0000       0.336323         9.1518 
 168   0.0000       0.342650         9.3240 
 169   0.0000       0.354445         9.6449 
 170   0.0000       0.356802         9.7091 
 171   0.0000       0.364496         9.9184 
 172   0.0000       0.366023         9.9600 
 173   0.0000       0.368552        10.0288 
 174   0.0000       0.370106        10.0711 
 175   0.0000       0.377427        10.2703 
 176   0.0000       0.383880        10.4459 
 177   0.0000       0.392060        10.6685 
 178   0.0000       0.399607        10.8738 
 179   0.0000       0.400891        10.9088 
 180   0.0000       0.406150        11.0519 
 181   0.0000       0.409592        11.1456 
 182   0.0000       0.411077        11.1860 
 183   0.0000       0.416882        11.3439 
 184   0.0000       0.417275        11.3546 
 185   0.0000       0.419791        11.4231 
 186   0.0000       0.429281        11.6813 
[...]
 45:    654.87   0.000014    0.07  0.000007  (-0.000650  0.000024 -0.002477)
 46:    708.19   0.003713   18.76  0.001636  ( 0.000029 -0.000254  0.040448)
 47:    734.39   0.000055    0.28  0.000023  (-0.004284  0.002193  0.000026)
 48:    739.22   0.000092    0.46  0.000039  ( 0.000410  0.000020 -0.006210)
 49:    771.37   0.002163   10.93  0.000875  ( 0.000192  0.000066 -0.029579)
 50:    777.00   0.000000    0.00  0.000000  (-0.000213 -0.000002 -0.000346)
 51:    792.58   0.000485    2.45  0.000191  (-0.013204  0.004058 -0.000040)
 52:    804.99   0.011668   58.96  0.004523  (-0.000095 -0.000394  0.067253)
 53:    818.02   0.000007    0.04  0.000003  ( 0.000238 -0.000017  0.001638)
 54:    823.03   0.000092    0.46  0.000035  (-0.000046  0.000036 -0.005891)
 55:    874.20   0.000536    2.71  0.000191  ( 0.001197 -0.013783 -0.000035)
 56:    887.22   0.000001    0.01  0.000000  ( 0.000030 -0.000015  0.000672)
 57:    928.49   0.000145    0.73  0.000049  ( 0.002403 -0.006547 -0.000027)
 58:    929.71   0.001626    8.22  0.000546  (-0.011805 -0.020162 -0.000077)
 59:    934.88   0.000047    0.24  0.000016  (-0.000031 -0.000004 -0.003942)
 60:    944.86   0.000672    3.40  0.000222  ( 0.000275 -0.000196  0.014896)
 61:    968.00   0.000540    2.73  0.000174  ( 0.000022  0.000155 -0.013192)
 62:    979.01   0.000438    2.21  0.000140  ( 0.000007  0.000053 -0.011811)
 63:    986.05   0.002874   14.53  0.000910  ( 0.000226 -0.000227  0.030159)
 64:   1007.97   0.000878    4.44  0.000272  (-0.016487  0.000327  0.000004)
 65:   1019.59   0.000001    0.01  0.000000  ( 0.000106 -0.000008  0.000630)
 66:   1031.14   0.000085    0.43  0.000026  ( 0.005053 -0.000416  0.000025)
 67:   1036.21   0.000000    0.00  0.000000  ( 0.000015 -0.000041 -0.000237)
 68:   1040.82   0.000127    0.64  0.000038  ( 0.003190  0.005293  0.000011)
 69:   1054.16   0.000112    0.57  0.000033  (-0.005582 -0.001443  0.000004)
 70:   1077.96   0.001590    8.03  0.000460  ( 0.021454  0.000000  0.000029)
 71:   1081.31   0.000332    1.68  0.000096  (-0.009017 -0.003817 -0.000006)
 72:   1094.85   0.003399   17.18  0.000969  ( 0.030935 -0.003437  0.000028)
 73:   1113.49   0.001096    5.54  0.000307  (-0.001199 -0.017482 -0.000024)
 74:   1124.41   0.000418    2.11  0.000116  (-0.007604 -0.007631 -0.000031)
 75:   1132.47   0.002615   13.21  0.000720  ( 0.026823 -0.000991 -0.000004)
 76:   1137.19   0.000027    0.14  0.000007  (-0.000047 -0.000001  0.002737)
 77:   1141.76   0.000014    0.07  0.000004  ( 0.000021  0.000026 -0.001949)
 78:   1175.74   0.002034   10.28  0.000540  ( 0.005318 -0.022617 -0.000080)
 79:   1189.12   0.004395   22.21  0.001153  ( 0.033739  0.003880 -0.000002)
 80:   1194.22   0.000022    0.11  0.000006  (-0.000550 -0.002360 -0.000004)
 81:   1208.21   0.005267   26.62  0.001360  ( 0.036783  0.002710  0.000026)
 82:   1220.49   0.026143  132.11  0.006684  (-0.081569 -0.005557 -0.000057)
 83:   1252.17   0.000006    0.03  0.000002  (-0.000037  0.000010  0.001249)
 84:   1254.04   0.000000    0.00  0.000000  (-0.000002 -0.000002  0.000017)
 85:   1292.81   0.000068    0.34  0.000016  ( 0.000118 -0.004047 -0.000018)
 86:   1295.01   0.000117    0.59  0.000028  ( 0.005128 -0.001413 -0.000008)
 87:   1300.28   0.000485    2.45  0.000116  (-0.010711 -0.001286  0.000002)
 88:   1324.60   0.000021    0.11  0.000005  ( 0.000001  0.000020 -0.002248)
 89:   1326.63   0.000025    0.13  0.000006  (-0.000040  0.000021  0.002415)
 90:   1328.79   0.005201   26.28  0.001221  ( 0.023254 -0.026090 -0.000033)
 91:   1336.00   0.000343    1.73  0.000080  ( 0.005941 -0.006693 -0.000005)
 92:   1344.31   0.000064    0.32  0.000015  (-0.000011  0.000015 -0.003856)
 93:   1344.80   0.000156    0.79  0.000036  (-0.000005  0.000002  0.006024)
 94:   1349.31   0.004308   21.77  0.000996  ( 0.028835  0.012839  0.000037)
 95:   1379.79   0.000506    2.56  0.000114  (-0.010257  0.003032  0.000016)
 96:   1380.98   0.000194    0.98  0.000044  (-0.000852  0.006561  0.000015)
 97:   1393.97   0.000895    4.52  0.000200  ( 0.013172  0.005174  0.000016)
 98:   1423.00   0.000323    1.63  0.000071  ( 0.004956 -0.006801 -0.000021)
 99:   1423.50   0.000994    5.02  0.000218  (-0.002606 -0.014529 -0.000026)
100:   1430.96   0.000600    3.03  0.000131  ( 0.009937 -0.005671 -0.000006)
101:   1432.17   0.001842    9.31  0.000401  ( 0.015019 -0.013261 -0.000026)
102:   1439.59   0.005418   27.38  0.001175  ( 0.000533 -0.034267 -0.000114)
103:   1472.52   0.002685   13.57  0.000569  (-0.023768 -0.002020 -0.000013)
104:   1478.64   0.001302    6.58  0.000275  ( 0.000066  0.016577  0.000044)
105:   1480.55   0.000508    2.57  0.000107  ( 0.010349 -0.000131  0.000014)
106:   1498.66   0.000400    2.02  0.000083  (-0.009091  0.000777  0.000012)
107:   1498.81   0.001309    6.62  0.000273  (-0.002721  0.016283  0.000039)
108:   1502.18   0.004144   20.94  0.000861  ( 0.023948 -0.016949 -0.000062)
109:   1509.56   0.000388    1.96  0.000080  ( 0.008885  0.001128  0.000006)
110:   1510.40   0.000321    1.62  0.000066  (-0.004725  0.006633  0.000018)
111:   1511.70   0.001808    9.14  0.000373  (-0.000035 -0.000043  0.019320)
112:   1512.02   0.001767    8.93  0.000365  ( 0.000034  0.000043 -0.019098)
113:   1523.64   0.006001   30.33  0.001229  (-0.029121 -0.019519 -0.000069)
114:   1524.33   0.001208    6.11  0.000247  ( 0.014629  0.005772  0.000031)
115:   1527.02   0.002214   11.19  0.000453  (-0.003479  0.020986  0.000043)
116:   1540.17   0.018288   92.42  0.003705  (-0.051978 -0.031681 -0.000086)
117:   1621.41   0.000264    1.33  0.000051  ( 0.003150 -0.006388 -0.000015)
118:   1629.84   0.061606  311.33  0.011796  ( 0.108532  0.004049 -0.000041)
119:   1656.70   0.000176    0.89  0.000033  ( 0.005709  0.000741 -0.000018)
120:   1998.67   0.103777  524.45  0.016203  ( 0.127285 -0.001126  0.000703)
121:   2258.66   0.116006  586.25  0.016028  ( 0.126594  0.001337 -0.000001)
122:   2938.22   0.000955    4.83  0.000101  (-0.009212 -0.004070 -0.000034)
123:   2940.61   0.001615    8.16  0.000171  ( 0.012489 -0.003925  0.000012)
124:   2945.29   0.000418    2.11  0.000044  ( 0.006128  0.002595  0.000024)
125:   2949.77   0.004326   21.86  0.000458  ( 0.021149  0.003226  0.000029)
126:   2953.59   0.004961   25.07  0.000524  ( 0.022457  0.004457  0.000027)
127:   2955.59   0.006158   31.12  0.000650  ( 0.015712 -0.020083 -0.000027)
128:   2958.33   0.007391   37.35  0.000780  ( 0.018385 -0.021016 -0.000040)
129:   2961.68   0.000735    3.71  0.000077  (-0.000024  0.000033 -0.008799)
130:   2961.94   0.000135    0.68  0.000014  ( 0.000054 -0.000024  0.003764)
131:   2965.76   0.002571   12.99  0.000271  (-0.015731  0.004807  0.000016)
132:   2969.30   0.000034    0.17  0.000004  ( 0.000027 -0.000007 -0.001902)
133:   2978.85   0.000891    4.50  0.000093  ( 0.000016  0.000012 -0.009661)
134:   2995.73   0.004522   22.85  0.000471  (-0.000017 -0.000056  0.021704)
135:   2996.04   0.006222   31.44  0.000648  ( 0.000032  0.000082 -0.025457)
136:   3017.09   0.014014   70.82  0.001450  (-0.000043 -0.000100  0.038072)
137:   3020.29   0.012510   63.22  0.001293  ( 0.000047  0.000097 -0.035952)
138:   3026.91   0.008908   45.02  0.000918  ( 0.022420  0.020390  0.000077)
139:   3027.67   0.007027   35.51  0.000724  ( 0.018950  0.019110  0.000086)
140:   3116.85   0.000590    2.98  0.000059  (-0.007686  0.000198 -0.000001)
141:   3125.46   0.000945    4.77  0.000094  (-0.000613 -0.009693 -0.000020)
142:   3136.18   0.003924   19.83  0.000390  (-0.019727  0.001156 -0.000003)
143:   3143.95   0.004074   20.59  0.000404  (-0.000907 -0.020088 -0.000041)
144:   3149.29   0.004535   22.92  0.000449  (-0.021190  0.000612 -0.000004)
145:   3154.22   0.001053    5.32  0.000104  (-0.003238  0.009680  0.000016)
146:   3161.08   0.000223    1.13  0.000022  (-0.001545  0.004434  0.000012)

* The epsilon (eps) is given for a Dirac delta lineshape.
** The dipole moment derivative (T) already includes vibrational overlap.

The first frequency considered to be a vibration is 7
The total number of vibrations considered is 140


--------------------------
THERMOCHEMISTRY AT 298.15K
--------------------------

Temperature         ... 298.15 K
Pressure            ... 1.00 atm
Total Mass          ... 313.46 AMU

Throughout the following assumptions are being made:
  (1) The electronic state is orbitally nondegenerate
      but the spin degeneracy is treated
  (2) There are no thermally accessible electronically excited states
  (3) Hindered rotations indicated by low frequency modes are not
      treated as such but are treated as vibrations and this may
      cause some error
  (4) All equations used are the standard statistical mechanics
      equations for an ideal gas
  (5) All vibrations are strictly harmonic

freq.       6.34  E(vib)   ...       0.58 
freq.       8.99  E(vib)   ...       0.58 
freq.      34.01  E(vib)   ...       0.55 
freq.      58.67  E(vib)   ...       0.51 
freq.      67.21  E(vib)   ...       0.50 
freq.      69.20  E(vib)   ...       0.50 
freq.      71.42  E(vib)   ...       0.50 
freq.      96.42  E(vib)   ...       0.47 
freq.     114.87  E(vib)   ...       0.44 
freq.     134.15  E(vib)   ...       0.42 
freq.     135.43  E(vib)   ...       0.42 
freq.     149.27  E(vib)   ...       0.40 
freq.     158.52  E(vib)   ...       0.39 
freq.     163.26  E(vib)   ...       0.39 
freq.     174.22  E(vib)   ...       0.38 
freq.     198.67  E(vib)   ...       0.35 
freq.     220.96  E(vib)   ...       0.33 
freq.     228.71  E(vib)   ...       0.32 
freq.     258.65  E(vib)   ...       0.30 
freq.     271.38  E(vib)   ...       0.29 
freq.     291.43  E(vib)   ...       0.27 
freq.     319.08  E(vib)   ...       0.25 
freq.     332.62  E(vib)   ...       0.24 
freq.     332.94  E(vib)   ...       0.24 
freq.     363.03  E(vib)   ...       0.22 
freq.     406.61  E(vib)   ...       0.19 
freq.     434.16  E(vib)   ...       0.17 
freq.     436.47  E(vib)   ...       0.17 
freq.     440.42  E(vib)   ...       0.17 
freq.     468.25  E(vib)   ...       0.16 
freq.     474.64  E(vib)   ...       0.15 
freq.     487.59  E(vib)   ...       0.15 
freq.     524.50  E(vib)   ...       0.13 
freq.     559.61  E(vib)   ...       0.12 
freq.     565.73  E(vib)   ...       0.11 
freq.     627.19  E(vib)   ...       0.09 
freq.     633.91  E(vib)   ...       0.09 
freq.     637.62  E(vib)   ...       0.09 
freq.     654.87  E(vib)   ...       0.08 
freq.     708.19  E(vib)   ...       0.07 
freq.     734.39  E(vib)   ...       0.06 
freq.     739.22  E(vib)   ...       0.06 
freq.     771.37  E(vib)   ...       0.05 
freq.     777.00  E(vib)   ...       0.05 
freq.     792.58  E(vib)   ...       0.05 
freq.     804.99  E(vib)   ...       0.05 
freq.     818.02  E(vib)   ...       0.05 
freq.     823.03  E(vib)   ...       0.05 
freq.     874.20  E(vib)   ...       0.04 
freq.     887.22  E(vib)   ...       0.04 
freq.     928.49  E(vib)   ...       0.03 
freq.     929.71  E(vib)   ...       0.03 
freq.     934.88  E(vib)   ...       0.03 
freq.     944.86  E(vib)   ...       0.03 
freq.     968.00  E(vib)   ...       0.03 
freq.     979.01  E(vib)   ...       0.03 
freq.     986.05  E(vib)   ...       0.02 
freq.    1007.97  E(vib)   ...       0.02 
freq.    1019.59  E(vib)   ...       0.02 
freq.    1031.14  E(vib)   ...       0.02 
freq.    1036.21  E(vib)   ...       0.02 
freq.    1040.82  E(vib)   ...       0.02 
freq.    1054.16  E(vib)   ...       0.02 
freq.    1077.96  E(vib)   ...       0.02 
freq.    1081.31  E(vib)   ...       0.02 
freq.    1094.85  E(vib)   ...       0.02 
freq.    1113.49  E(vib)   ...       0.01 
freq.    1124.41  E(vib)   ...       0.01 
freq.    1132.47  E(vib)   ...       0.01 
freq.    1137.19  E(vib)   ...       0.01 
freq.    1141.76  E(vib)   ...       0.01 
freq.    1175.74  E(vib)   ...       0.01 
freq.    1189.12  E(vib)   ...       0.01 
freq.    1194.22  E(vib)   ...       0.01 
freq.    1208.21  E(vib)   ...       0.01 
freq.    1220.49  E(vib)   ...       0.01 
freq.    1252.17  E(vib)   ...       0.01 
freq.    1254.04  E(vib)   ...       0.01 
freq.    1292.81  E(vib)   ...       0.01 
freq.    1295.01  E(vib)   ...       0.01 
freq.    1300.28  E(vib)   ...       0.01 
freq.    1324.60  E(vib)   ...       0.01 
freq.    1326.63  E(vib)   ...       0.01 
freq.    1328.79  E(vib)   ...       0.01 
freq.    1336.00  E(vib)   ...       0.01 
freq.    1344.31  E(vib)   ...       0.01 
freq.    1344.80  E(vib)   ...       0.01 
freq.    1349.31  E(vib)   ...       0.01 
freq.    1379.79  E(vib)   ...       0.01 
freq.    1380.98  E(vib)   ...       0.01 
freq.    1393.97  E(vib)   ...       0.00 
freq.    1423.00  E(vib)   ...       0.00 
freq.    1423.50  E(vib)   ...       0.00 
freq.    1430.96  E(vib)   ...       0.00 
freq.    1432.17  E(vib)   ...       0.00 
freq.    1439.59  E(vib)   ...       0.00 
freq.    1472.52  E(vib)   ...       0.00 
freq.    1478.64  E(vib)   ...       0.00 
freq.    1480.55  E(vib)   ...       0.00 
freq.    1498.66  E(vib)   ...       0.00 
freq.    1498.81  E(vib)   ...       0.00 
freq.    1502.18  E(vib)   ...       0.00 
freq.    1509.56  E(vib)   ...       0.00 
freq.    1510.40  E(vib)   ...       0.00 
freq.    1511.70  E(vib)   ...       0.00 
freq.    1512.02  E(vib)   ...       0.00 
freq.    1523.64  E(vib)   ...       0.00 
freq.    1524.33  E(vib)   ...       0.00 
freq.    1527.02  E(vib)   ...       0.00 
freq.    1540.17  E(vib)   ...       0.00 
freq.    1621.41  E(vib)   ...       0.00 
freq.    1629.84  E(vib)   ...       0.00 
freq.    1656.70  E(vib)   ...       0.00 
freq.    1998.67  E(vib)   ...       0.00 
freq.    2258.66  E(vib)   ...       0.00 
freq.    2938.22  E(vib)   ...       0.00 
freq.    2940.61  E(vib)   ...       0.00 
freq.    2945.29  E(vib)   ...       0.00 
freq.    2949.77  E(vib)   ...       0.00 
freq.    2953.59  E(vib)   ...       0.00 
freq.    2955.59  E(vib)   ...       0.00 
freq.    2958.33  E(vib)   ...       0.00 
freq.    2961.68  E(vib)   ...       0.00 
freq.    2961.94  E(vib)   ...       0.00 
freq.    2965.76  E(vib)   ...       0.00 
freq.    2969.30  E(vib)   ...       0.00 
freq.    2978.85  E(vib)   ...       0.00 
freq.    2995.73  E(vib)   ...       0.00 
freq.    2996.04  E(vib)   ...       0.00 
freq.    3017.09  E(vib)   ...       0.00 
freq.    3020.29  E(vib)   ...       0.00 
freq.    3026.91  E(vib)   ...       0.00 
freq.    3027.67  E(vib)   ...       0.00 
freq.    3116.85  E(vib)   ...       0.00 
freq.    3125.46  E(vib)   ...       0.00 
freq.    3136.18  E(vib)   ...       0.00 
freq.    3143.95  E(vib)   ...       0.00 
freq.    3149.29  E(vib)   ...       0.00 
freq.    3154.22  E(vib)   ...       0.00 
freq.    3161.08  E(vib)   ...       0.00 

------------
INNER ENERGY
------------

The inner energy is: U= E(el) + E(ZPE) + E(vib) + E(rot) + E(trans)
    E(el)   - is the total energy from the electronic structure calculation
              = E(kin-el) + E(nuc-el) + E(el-el) + E(nuc-nuc)
    E(ZPE)  - the the zero temperature vibrational energy from the frequency calculation
    E(vib)  - the the finite temperature correction to E(ZPE) due to population
              of excited vibrational states
    E(rot)  - is the rotational thermal energy
    E(trans)- is the translational thermal energy

Summary of contributions to the inner energy U:
Electronic energy                ...   -928.91940237 Eh
Zero point energy                ...      0.41223715 Eh     258.68 kcal/mol
Thermal vibrational correction   ...      0.02061232 Eh      12.93 kcal/mol
Thermal rotational correction    ...      0.00141627 Eh       0.89 kcal/mol
Thermal translational correction ...      0.00141627 Eh       0.89 kcal/mol
-----------------------------------------------------------------------
Total thermal energy                   -928.48372035 Eh


Summary of corrections to the electronic energy:
(perhaps to be used in another calculation)
Total thermal correction                  0.02344487 Eh      14.71 kcal/mol
Non-thermal (ZPE) correction              0.41223715 Eh     258.68 kcal/mol
-----------------------------------------------------------------------
Total correction                          0.43568202 Eh     273.39 kcal/mol


--------
ENTHALPY
--------

The enthalpy is H = U + kB*T
                kB is Boltzmann's constant
Total free energy                 ...   -928.48372035 Eh 
Thermal Enthalpy correction       ...      0.00094421 Eh       0.59 kcal/mol
-----------------------------------------------------------------------
Total Enthalpy                    ...   -928.48277614 Eh


Note: Only C1 symmetry has been detected, increase convergence thresholds 
      if your molecule has a higher symmetry. Symmetry factor of 1.0 is   
      used for the rotational entropy correction. 
 

Note: Rotational entropy computed according to Herzberg 
Infrared and Raman Spectra, Chapter V,1, Van Nostrand Reinhold, 1945 
Point Group:  C1, Symmetry Number:   1  
Rotational constants in cm-1:     0.006500     0.004325     0.002607 

Vibrational entropy computed according to the QRRHO of S. Grimme
Chem.Eur.J. 2012 18 9955


-------
ENTROPY
-------

The entropy contributions are T*S = T*(S(el)+S(vib)+S(rot)+S(trans))
     S(el)   - electronic entropy
     S(vib)  - vibrational entropy
     S(rot)  - rotational entropy
     S(trans)- translational entropy
The entropies will be listed as multiplied by the temperature to get
units of energy

Electronic entropy                ...      0.00065446 Eh      0.41 kcal/mol
Vibrational entropy               ...      0.03793148 Eh     23.80 kcal/mol
Rotational entropy                ...      0.01726660 Eh     10.83 kcal/mol
Translational entropy             ...      0.02048935 Eh     12.86 kcal/mol
-----------------------------------------------------------------------
Final entropy term                ...      0.07634189 Eh     47.91 kcal/mol

In case the symmetry of your molecule has not been determined correctly
or in case you have a reason to use a different symmetry number we print 
out the resulting rotational entropy values for sn=1,12 :
 --------------------------------------------------------
|  sn= 1 | S(rot)=       0.01726660 Eh     10.83 kcal/mol|
|  sn= 2 | S(rot)=       0.01661215 Eh     10.42 kcal/mol|
|  sn= 3 | S(rot)=       0.01622931 Eh     10.18 kcal/mol|
|  sn= 4 | S(rot)=       0.01595769 Eh     10.01 kcal/mol|
|  sn= 5 | S(rot)=       0.01574700 Eh      9.88 kcal/mol|
|  sn= 6 | S(rot)=       0.01557486 Eh      9.77 kcal/mol|
|  sn= 7 | S(rot)=       0.01542931 Eh      9.68 kcal/mol|
|  sn= 8 | S(rot)=       0.01530323 Eh      9.60 kcal/mol|
|  sn= 9 | S(rot)=       0.01519203 Eh      9.53 kcal/mol|
|  sn=10 | S(rot)=       0.01509255 Eh      9.47 kcal/mol|
|  sn=11 | S(rot)=       0.01500256 Eh      9.41 kcal/mol|
|  sn=12 | S(rot)=       0.01492040 Eh      9.36 kcal/mol|
 --------------------------------------------------------


-------------------
GIBBS FREE ENERGY
-------------------

The Gibbs free energy is G = H - T*S

Total enthalpy                    ...   -928.48277614 Eh 
Total entropy correction          ...     -0.07634189 Eh    -47.91 kcal/mol
-----------------------------------------------------------------------
Final Gibbs free energy         ...   -928.55911804 Eh

For completeness - the Gibbs free energy minus the electronic energy
G-E(el)                           ...      0.36028433 Eh    226.08 kcal/mol


Timings for individual modules:

Sum of individual times         ...     1443.627 sec (=  24.060 min)
GTO integral calculation        ...        3.201 sec (=   0.053 min)   0.2 %
SCF iterations                  ...      131.145 sec (=   2.186 min)   9.1 %
Analytical frequency calculation...     1309.281 sec (=  21.821 min)  90.7 %
                             ****ORCA TERMINATED NORMALLY****
TOTAL RUN TIME: 0 days 0 hours 24 minutes 9 seconds 469 msec
