 Entering Gaussian System, Link 0=g09
 Input=g09BDE.com
 Output=g09BDE.log
 Initial command:
 /hits/basement/its/doserbd/software/gaussian/g09d1/g09/l1.exe "/hits/basement/mbm/sucerquia/gaussian_scratch/Gau-3144354.inp" -scrdir="/hits/basement/mbm/sucerquia/gaussian_scratch/"
 Entering Link 1 = /hits/basement/its/doserbd/software/gaussian/g09d1/g09/l1.exe PID=   3144355.
  
 Copyright (c) 1988,1990,1992,1993,1995,1998,2003,2009,2013,
            Gaussian, Inc.  All Rights Reserved.
  
 This is part of the Gaussian(R) 09 program.  It is based on
 the Gaussian(R) 03 system (copyright 2003, Gaussian, Inc.),
 the Gaussian(R) 98 system (copyright 1998, Gaussian, Inc.),
 the Gaussian(R) 94 system (copyright 1995, Gaussian, Inc.),
 the Gaussian 92(TM) system (copyright 1992, Gaussian, Inc.),
 the Gaussian 90(TM) system (copyright 1990, Gaussian, Inc.),
 the Gaussian 88(TM) system (copyright 1988, Gaussian, Inc.),
 the Gaussian 86(TM) system (copyright 1986, Carnegie Mellon
 University), and the Gaussian 82(TM) system (copyright 1983,
 Carnegie Mellon University). Gaussian is a federally registered
 trademark of Gaussian, Inc.
  
 This software contains proprietary and confidential information,
 including trade secrets, belonging to Gaussian, Inc.
  
 This software is provided under written license and may be
 used, copied, transmitted, or stored only in accord with that
 written license.
  
 The following legend is applicable only to US Government
 contracts under FAR:
  
                    RESTRICTED RIGHTS LEGEND
  
 Use, reproduction and disclosure by the US Government is
 subject to restrictions as set forth in subparagraphs (a)
 and (c) of the Commercial Computer Software - Restricted
 Rights clause in FAR 52.227-19.
  
 Gaussian, Inc.
 340 Quinnipiac St., Bldg. 40, Wallingford CT 06492
  
  
 ---------------------------------------------------------------
 Warning -- This program may not be used in any manner that
 competes with the business of Gaussian, Inc. or will provide
 assistance to any competitor of Gaussian, Inc.  The licensee
 of this program is prohibited from giving any competitor of
 Gaussian, Inc. access to this program.  By using this program,
 the user acknowledges that Gaussian, Inc. is engaged in the
 business of creating and licensing software in the field of
 computational chemistry and represents and warrants to the
 licensee that it is not a competitor of Gaussian, Inc. and that
 it will not use this program in any manner prohibited above.
 ---------------------------------------------------------------
  

 Cite this work as:
 Gaussian 09, Revision D.01,
 M. J. Frisch, G. W. Trucks, H. B. Schlegel, G. E. Scuseria, 
 M. A. Robb, J. R. Cheeseman, G. Scalmani, V. Barone, B. Mennucci, 
 G. A. Petersson, H. Nakatsuji, M. Caricato, X. Li, H. P. Hratchian, 
 A. F. Izmaylov, J. Bloino, G. Zheng, J. L. Sonnenberg, M. Hada, 
 M. Ehara, K. Toyota, R. Fukuda, J. Hasegawa, M. Ishida, T. Nakajima, 
 Y. Honda, O. Kitao, H. Nakai, T. Vreven, J. A. Montgomery, Jr., 
 J. E. Peralta, F. Ogliaro, M. Bearpark, J. J. Heyd, E. Brothers, 
 K. N. Kudin, V. N. Staroverov, T. Keith, R. Kobayashi, J. Normand, 
 K. Raghavachari, A. Rendell, J. C. Burant, S. S. Iyengar, J. Tomasi, 
 M. Cossi, N. Rega, J. M. Millam, M. Klene, J. E. Knox, J. B. Cross, 
 V. Bakken, C. Adamo, J. Jaramillo, R. Gomperts, R. E. Stratmann, 
 O. Yazyev, A. J. Austin, R. Cammi, C. Pomelli, J. W. Ochterski, 
 R. L. Martin, K. Morokuma, V. G. Zakrzewski, G. A. Voth, 
 P. Salvador, J. J. Dannenberg, S. Dapprich, A. D. Daniels, 
 O. Farkas, J. B. Foresman, J. V. Ortiz, J. Cioslowski, 
 and D. J. Fox, Gaussian, Inc., Wallingford CT, 2013.
 
 ******************************************
 Gaussian 09:  ES64L-G09RevD.01 24-Apr-2013
                10-May-2024 
 ******************************************
 %chk=g09BDE
 %NProcShared=8
 Will use up to    8 processors via shared memory.
 ---------------------------------------
 #P bmk/6-31+g opt(modredun,calcfc) freq
 ---------------------------------------
 1/10=4,14=-1,18=120,19=15,26=3,38=1/1,3;
 2/9=110,12=2,17=6,18=5,40=1/2;
 3/5=1,6=6,7=10,11=2,16=1,25=1,30=1,71=2,74=-34,140=1/1,2,3;
 4//1;
 5/5=2,38=5/2;
 8/6=4,10=90,11=11/1;
 11/6=1,8=1,9=11,15=111,16=1/1,2,10;
 10/6=1,13=1/2;
 6/7=2,8=2,9=2,10=2,28=1/1;
 7/10=1,18=20,25=1/1,2,3,16;
 1/10=4,14=-1,18=20,19=15,26=3/3(2);
 2/9=110/2;
 99//99;
 2/9=110/2;
 3/5=1,6=6,7=10,11=2,16=1,25=1,30=1,71=1,74=-34/1,2,3;
 4/5=5,16=3,69=1/1;
 5/5=2,38=5/2;
 7//1,2,3,16;
 1/14=-1,18=20,19=15,26=3/3(-5);
 2/9=110/2;
 6/7=2,8=2,9=2,10=2,19=2,28=1/1;
 99/9=1/99;
 Leave Link    1 at Fri May 10 15:44:18 2024, MaxMem=           0 cpu:         0.6
 (Enter /hits/basement/its/doserbd/software/gaussian/g09d1/g09/l101.exe)
 ------------------------------
 Gaussian input prepared by ASE
 ------------------------------
 Symbolic Z-matrix:
 Charge =  0 Multiplicity = 2
 C                     2.83181  -0.00624  -0.00827 
 C                    -1.31414  -0.01477  -0.01293 
 C                    -0.70384  -1.25996  -0.01428 
 C                     0.69929  -1.20357  -0.01243 
 C                     1.40236   0.02301  -0.00954 
 C                     0.70861   1.26343  -0.0081 
 C                    -0.69967   1.21759  -0.00994 
 H                     1.28351  -2.12552  -0.01336 
 H                    -1.28509   2.13871  -0.00904 
 C                    -1.50969  -2.54804  -0.01724 
 H                    -2.18238  -2.53021  -0.89424 
 H                    -2.18059  -2.53532   0.86125 
 C                    -0.70861  -3.85255  -0.02172 
 H                    -0.04538  -3.8805   -0.90598 
 H                    -0.04544  -3.8866    0.86238 
 C                    -1.60319  -5.09775  -0.02592 
 H                    -2.26959  -5.07031   0.85627 
 H                    -2.26855  -5.06507  -0.90872 
 C                    -0.81164  -6.40788  -0.02937 
 H                    -0.16313  -6.48667   0.8603 
 H                    -0.16165  -6.48109  -0.91844 
 C                     1.48396   2.5667   -0.00484 
 H                     2.15995   2.5628    0.87028 
 H                     2.16052   2.56685  -0.87954 
 C                     0.663     3.85883  -0.00214 
 H                     0.00059   3.88473  -0.88717 
 H                    -0.00088   3.88011   0.88192 
 C                     1.54085   5.11616   0.00181 
 H                     2.20613   5.09232   0.88489 
 H                     2.20796   5.09658  -0.88001 
 C                     0.73238   6.41584   0.00412 
 H                     0.08108   6.48119   0.89285 
 H                     0.08326   6.48573  -0.88586 
 C                     4.05331  -0.04119  -0.00938 
 H                    -1.48046  -7.28385  -0.03269 
 H                     1.38955   7.3006    0.0072 
 C                     5.48119  -0.08565  -0.00859 
 C                     6.16232  -1.32256  -0.01226 
 C                     7.55639  -1.36128  -0.01139 
 C                     8.29734  -0.17407  -0.00693 
 C                     7.63255   1.05752  -0.00333 
 C                     6.23885   1.10597  -0.00414 
 H                     9.38931  -0.20877  -0.00627 
 H                     8.2049    1.98837   0.00017 
 H                     5.58288  -2.24773  -0.01576 
 H                     5.71867   2.06574  -0.0013 
 H                     8.06953  -2.32605  -0.01426 
 
 The following ModRedundant input section has been read:
 
 NAtoms=     47 NQM=       47 NQMF=       0 NMMI=      0 NMMIF=      0
                NMic=       0 NMicF=      0.
                    Isotopes and Nuclear Properties:
 (Nuclear quadrupole moments (NQMom) in fm**2, nuclear magnetic moments (NMagM)
  in nuclear magnetons)

  Atom         1           2           3           4           5           6           7           8           9          10
 IAtWgt=          12          12          12          12          12          12          12           1           1          12
 AtmWgt=  12.0000000  12.0000000  12.0000000  12.0000000  12.0000000  12.0000000  12.0000000   1.0078250   1.0078250  12.0000000
 NucSpn=           0           0           0           0           0           0           0           1           1           0
 AtZEff=   0.0000000   0.0000000   0.0000000   0.0000000   0.0000000   0.0000000   0.0000000   0.0000000   0.0000000   0.0000000
 NQMom=    0.0000000   0.0000000   0.0000000   0.0000000   0.0000000   0.0000000   0.0000000   0.0000000   0.0000000   0.0000000
 NMagM=    0.0000000   0.0000000   0.0000000   0.0000000   0.0000000   0.0000000   0.0000000   2.7928460   2.7928460   0.0000000
 AtZNuc=   6.0000000   6.0000000   6.0000000   6.0000000   6.0000000   6.0000000   6.0000000   1.0000000   1.0000000   6.0000000

  Atom        11          12          13          14          15          16          17          18          19          20
 IAtWgt=           1           1          12           1           1          12           1           1          12           1
 AtmWgt=   1.0078250   1.0078250  12.0000000   1.0078250   1.0078250  12.0000000   1.0078250   1.0078250  12.0000000   1.0078250
 NucSpn=           1           1           0           1           1           0           1           1           0           1
 AtZEff=   0.0000000   0.0000000   0.0000000   0.0000000   0.0000000   0.0000000   0.0000000   0.0000000   0.0000000   0.0000000
 NQMom=    0.0000000   0.0000000   0.0000000   0.0000000   0.0000000   0.0000000   0.0000000   0.0000000   0.0000000   0.0000000
 NMagM=    2.7928460   2.7928460   0.0000000   2.7928460   2.7928460   0.0000000   2.7928460   2.7928460   0.0000000   2.7928460
 AtZNuc=   1.0000000   1.0000000   6.0000000   1.0000000   1.0000000   6.0000000   1.0000000   1.0000000   6.0000000   1.0000000

  Atom        21          22          23          24          25          26          27          28          29          30
 IAtWgt=           1          12           1           1          12           1           1          12           1           1
 AtmWgt=   1.0078250  12.0000000   1.0078250   1.0078250  12.0000000   1.0078250   1.0078250  12.0000000   1.0078250   1.0078250
 NucSpn=           1           0           1           1           0           1           1           0           1           1
 AtZEff=   0.0000000   0.0000000   0.0000000   0.0000000   0.0000000   0.0000000   0.0000000   0.0000000   0.0000000   0.0000000
 NQMom=    0.0000000   0.0000000   0.0000000   0.0000000   0.0000000   0.0000000   0.0000000   0.0000000   0.0000000   0.0000000
 NMagM=    2.7928460   0.0000000   2.7928460   2.7928460   0.0000000   2.7928460   2.7928460   0.0000000   2.7928460   2.7928460
 AtZNuc=   1.0000000   6.0000000   1.0000000   1.0000000   6.0000000   1.0000000   1.0000000   6.0000000   1.0000000   1.0000000

  Atom        31          32          33          34          35          36          37          38          39          40
 IAtWgt=          12           1           1          12           1           1          12          12          12          12
 AtmWgt=  12.0000000   1.0078250   1.0078250  12.0000000   1.0078250   1.0078250  12.0000000  12.0000000  12.0000000  12.0000000
 NucSpn=           0           1           1           0           1           1           0           0           0           0
 AtZEff=   0.0000000   0.0000000   0.0000000   0.0000000   0.0000000   0.0000000   0.0000000   0.0000000   0.0000000   0.0000000
 NQMom=    0.0000000   0.0000000   0.0000000   0.0000000   0.0000000   0.0000000   0.0000000   0.0000000   0.0000000   0.0000000
 NMagM=    0.0000000   2.7928460   2.7928460   0.0000000   2.7928460   2.7928460   0.0000000   0.0000000   0.0000000   0.0000000
 AtZNuc=   6.0000000   1.0000000   1.0000000   6.0000000   1.0000000   1.0000000   6.0000000   6.0000000   6.0000000   6.0000000

  Atom        41          42          43          44          45          46          47
 IAtWgt=          12          12           1           1           1           1           1
 AtmWgt=  12.0000000  12.0000000   1.0078250   1.0078250   1.0078250   1.0078250   1.0078250
 NucSpn=           0           0           1           1           1           1           1
 AtZEff=   0.0000000   0.0000000   0.0000000   0.0000000   0.0000000   0.0000000   0.0000000
 NQMom=    0.0000000   0.0000000   0.0000000   0.0000000   0.0000000   0.0000000   0.0000000
 NMagM=    0.0000000   0.0000000   2.7928460   2.7928460   2.7928460   2.7928460   2.7928460
 AtZNuc=   6.0000000   6.0000000   1.0000000   1.0000000   1.0000000   1.0000000   1.0000000
 Leave Link  101 at Fri May 10 15:44:18 2024, MaxMem=    33554432 cpu:         0.5
 (Enter /hits/basement/its/doserbd/software/gaussian/g09d1/g09/l103.exe)

 GradGradGradGradGradGradGradGradGradGradGradGradGradGradGradGradGradGrad
 Berny optimization.
 Initialization pass.
                           ----------------------------
                           !    Initial Parameters    !
                           ! (Angstroms and Degrees)  !
 --------------------------                            --------------------------
 ! Name  Definition              Value          Derivative Info.                !
 --------------------------------------------------------------------------------
 ! R1    R(1,5)                  1.4297         calculate D2E/DX2 analytically  !
 ! R2    R(1,34)                 1.222          calculate D2E/DX2 analytically  !
 ! R3    R(2,3)                  1.3867         calculate D2E/DX2 analytically  !
 ! R4    R(2,7)                  1.3771         calculate D2E/DX2 analytically  !
 ! R5    R(3,4)                  1.4043         calculate D2E/DX2 analytically  !
 ! R6    R(3,10)                 1.5194         calculate D2E/DX2 analytically  !
 ! R7    R(4,5)                  1.4138         calculate D2E/DX2 analytically  !
 ! R8    R(4,8)                  1.0915         calculate D2E/DX2 analytically  !
 ! R9    R(5,6)                  1.4212         calculate D2E/DX2 analytically  !
 ! R10   R(6,7)                  1.409          calculate D2E/DX2 analytically  !
 ! R11   R(6,22)                 1.5165         calculate D2E/DX2 analytically  !
 ! R12   R(7,9)                  1.0914         calculate D2E/DX2 analytically  !
 ! R13   R(10,11)                1.1054         calculate D2E/DX2 analytically  !
 ! R14   R(10,12)                1.1054         calculate D2E/DX2 analytically  !
 ! R15   R(10,13)                1.5308         calculate D2E/DX2 analytically  !
 ! R16   R(13,14)                1.1057         calculate D2E/DX2 analytically  !
 ! R17   R(13,15)                1.1057         calculate D2E/DX2 analytically  !
 ! R18   R(13,16)                1.5332         calculate D2E/DX2 analytically  !
 ! R19   R(16,17)                1.1059         calculate D2E/DX2 analytically  !
 ! R20   R(16,18)                1.1059         calculate D2E/DX2 analytically  !
 ! R21   R(16,19)                1.5307         calculate D2E/DX2 analytically  !
 ! R22   R(19,20)                1.1038         calculate D2E/DX2 analytically  !
 ! R23   R(19,21)                1.1038         calculate D2E/DX2 analytically  !
 ! R24   R(19,35)                1.1021         calculate D2E/DX2 analytically  !
 ! R25   R(22,23)                1.1058         calculate D2E/DX2 analytically  !
 ! R26   R(22,24)                1.1058         calculate D2E/DX2 analytically  !
 ! R27   R(22,25)                1.5309         calculate D2E/DX2 analytically  !
 ! R28   R(25,26)                1.1058         calculate D2E/DX2 analytically  !
 ! R29   R(25,27)                1.1058         calculate D2E/DX2 analytically  !
 ! R30   R(25,28)                1.5335         calculate D2E/DX2 analytically  !
 ! R31   R(28,29)                1.1059         calculate D2E/DX2 analytically  !
 ! R32   R(28,30)                1.1059         calculate D2E/DX2 analytically  !
 ! R33   R(28,31)                1.5306         calculate D2E/DX2 analytically  !
 ! R34   R(31,32)                1.1038         calculate D2E/DX2 analytically  !
 ! R35   R(31,33)                1.1038         calculate D2E/DX2 analytically  !
 ! R36   R(31,36)                1.1021         calculate D2E/DX2 analytically  !
 ! R37   R(34,37)                1.4286         calculate D2E/DX2 analytically  !
 ! R38   R(37,38)                1.4121         calculate D2E/DX2 analytically  !
 ! R39   R(37,42)                1.4121         calculate D2E/DX2 analytically  !
 ! R40   R(38,39)                1.3946         calculate D2E/DX2 analytically  !
 ! R41   R(38,45)                1.0916         calculate D2E/DX2 analytically  !
 ! R42   R(39,40)                1.3995         calculate D2E/DX2 analytically  !
 ! R43   R(39,47)                1.0928         calculate D2E/DX2 analytically  !
 ! R44   R(40,41)                1.3996         calculate D2E/DX2 analytically  !
 ! R45   R(40,43)                1.0925         calculate D2E/DX2 analytically  !
 ! R46   R(41,42)                1.3945         calculate D2E/DX2 analytically  !
 ! R47   R(41,44)                1.0927         calculate D2E/DX2 analytically  !
 ! R48   R(42,46)                1.0917         calculate D2E/DX2 analytically  !
 ! A1    A(3,2,7)              127.3878         calculate D2E/DX2 analytically  !
 ! A2    A(2,3,4)              113.8092         calculate D2E/DX2 analytically  !
 ! A3    A(2,3,10)             121.8585         calculate D2E/DX2 analytically  !
 ! A4    A(4,3,10)             124.3323         calculate D2E/DX2 analytically  !
 ! A5    A(3,4,5)              122.1225         calculate D2E/DX2 analytically  !
 ! A6    A(3,4,8)              120.0601         calculate D2E/DX2 analytically  !
 ! A7    A(5,4,8)              117.8174         calculate D2E/DX2 analytically  !
 ! A8    A(1,5,4)              118.6491         calculate D2E/DX2 analytically  !
 ! A9    A(1,5,6)              120.3894         calculate D2E/DX2 analytically  !
 ! A10   A(4,5,6)              120.9615         calculate D2E/DX2 analytically  !
 ! A11   A(5,6,7)              117.3529         calculate D2E/DX2 analytically  !
 ! A12   A(5,6,22)             120.0331         calculate D2E/DX2 analytically  !
 ! A13   A(7,6,22)             122.614          calculate D2E/DX2 analytically  !
 ! A14   A(2,7,6)              118.366          calculate D2E/DX2 analytically  !
 ! A15   A(2,7,9)              121.0603         calculate D2E/DX2 analytically  !
 ! A16   A(6,7,9)              120.5737         calculate D2E/DX2 analytically  !
 ! A17   A(3,10,11)            108.0966         calculate D2E/DX2 analytically  !
 ! A18   A(3,10,12)            108.0944         calculate D2E/DX2 analytically  !
 ! A19   A(3,10,13)            116.416          calculate D2E/DX2 analytically  !
 ! A20   A(11,10,12)           105.1273         calculate D2E/DX2 analytically  !
 ! A21   A(11,10,13)           109.261          calculate D2E/DX2 analytically  !
 ! A22   A(12,10,13)           109.2517         calculate D2E/DX2 analytically  !
 ! A23   A(10,13,14)           109.7406         calculate D2E/DX2 analytically  !
 ! A24   A(10,13,15)           109.7401         calculate D2E/DX2 analytically  !
 ! A25   A(10,13,16)           112.7526         calculate D2E/DX2 analytically  !
 ! A26   A(14,13,15)           106.1948         calculate D2E/DX2 analytically  !
 ! A27   A(14,13,16)           109.1024         calculate D2E/DX2 analytically  !
 ! A28   A(15,13,16)           109.0946         calculate D2E/DX2 analytically  !
 ! A29   A(13,16,17)           109.2224         calculate D2E/DX2 analytically  !
 ! A30   A(13,16,18)           109.2212         calculate D2E/DX2 analytically  !
 ! A31   A(13,16,19)           113.1667         calculate D2E/DX2 analytically  !
 ! A32   A(17,16,18)           105.8715         calculate D2E/DX2 analytically  !
 ! A33   A(17,16,19)           109.5497         calculate D2E/DX2 analytically  !
 ! A34   A(18,16,19)           109.5489         calculate D2E/DX2 analytically  !
 ! A35   A(16,19,20)           111.2916         calculate D2E/DX2 analytically  !
 ! A36   A(16,19,21)           111.2908         calculate D2E/DX2 analytically  !
 ! A37   A(16,19,35)           111.4987         calculate D2E/DX2 analytically  !
 ! A38   A(20,19,21)           107.3685         calculate D2E/DX2 analytically  !
 ! A39   A(20,19,35)           107.5928         calculate D2E/DX2 analytically  !
 ! A40   A(21,19,35)           107.5913         calculate D2E/DX2 analytically  !
 ! A41   A(6,22,23)            108.1335         calculate D2E/DX2 analytically  !
 ! A42   A(6,22,24)            108.1331         calculate D2E/DX2 analytically  !
 ! A43   A(6,22,25)            116.8206         calculate D2E/DX2 analytically  !
 ! A44   A(23,22,24)           104.5942         calculate D2E/DX2 analytically  !
 ! A45   A(23,22,25)           109.2328         calculate D2E/DX2 analytically  !
 ! A46   A(24,22,25)           109.2309         calculate D2E/DX2 analytically  !
 ! A47   A(22,25,26)           109.853          calculate D2E/DX2 analytically  !
 ! A48   A(22,25,27)           109.8532         calculate D2E/DX2 analytically  !
 ! A49   A(22,25,28)           112.6478         calculate D2E/DX2 analytically  !
 ! A50   A(26,25,27)           106.2476         calculate D2E/DX2 analytically  !
 ! A51   A(26,25,28)           109.013          calculate D2E/DX2 analytically  !
 ! A52   A(27,25,28)           109.0178         calculate D2E/DX2 analytically  !
 ! A53   A(25,28,29)           109.1936         calculate D2E/DX2 analytically  !
 ! A54   A(25,28,30)           109.1935         calculate D2E/DX2 analytically  !
 ! A55   A(25,28,31)           113.1939         calculate D2E/DX2 analytically  !
 ! A56   A(29,28,30)           105.8701         calculate D2E/DX2 analytically  !
 ! A57   A(29,28,31)           109.5631         calculate D2E/DX2 analytically  !
 ! A58   A(30,28,31)           109.5641         calculate D2E/DX2 analytically  !
 ! A59   A(28,31,32)           111.2947         calculate D2E/DX2 analytically  !
 ! A60   A(28,31,33)           111.2953         calculate D2E/DX2 analytically  !
 ! A61   A(28,31,36)           111.5125         calculate D2E/DX2 analytically  !
 ! A62   A(32,31,33)           107.3653         calculate D2E/DX2 analytically  !
 ! A63   A(32,31,36)           107.5819         calculate D2E/DX2 analytically  !
 ! A64   A(33,31,36)           107.5827         calculate D2E/DX2 analytically  !
 ! A65   A(34,37,38)           120.6237         calculate D2E/DX2 analytically  !
 ! A66   A(34,37,42)           120.6657         calculate D2E/DX2 analytically  !
 ! A67   A(38,37,42)           118.7106         calculate D2E/DX2 analytically  !
 ! A68   A(37,38,39)           120.4309         calculate D2E/DX2 analytically  !
 ! A69   A(37,38,45)           119.1006         calculate D2E/DX2 analytically  !
 ! A70   A(39,38,45)           120.4684         calculate D2E/DX2 analytically  !
 ! A71   A(38,39,40)           120.3782         calculate D2E/DX2 analytically  !
 ! A72   A(38,39,47)           119.5983         calculate D2E/DX2 analytically  !
 ! A73   A(40,39,47)           120.0235         calculate D2E/DX2 analytically  !
 ! A74   A(39,40,41)           119.6718         calculate D2E/DX2 analytically  !
 ! A75   A(39,40,43)           120.1487         calculate D2E/DX2 analytically  !
 ! A76   A(41,40,43)           120.1794         calculate D2E/DX2 analytically  !
 ! A77   A(40,41,42)           120.3503         calculate D2E/DX2 analytically  !
 ! A78   A(40,41,44)           120.055          calculate D2E/DX2 analytically  !
 ! A79   A(42,41,44)           119.5947         calculate D2E/DX2 analytically  !
 ! A80   A(37,42,41)           120.4582         calculate D2E/DX2 analytically  !
 ! A81   A(37,42,46)           119.0939         calculate D2E/DX2 analytically  !
 ! A82   A(41,42,46)           120.448          calculate D2E/DX2 analytically  !
 ! A83   L(5,1,34,23,-1)       180.4751         calculate D2E/DX2 analytically  !
 ! A84   L(1,34,37,29,-1)      180.1277         calculate D2E/DX2 analytically  !
 ! A85   L(5,1,34,23,-2)       179.9432         calculate D2E/DX2 analytically  !
 ! A86   L(1,34,37,29,-2)      179.8847         calculate D2E/DX2 analytically  !
 ! D1    D(4,5,37,38)            0.0548         calculate D2E/DX2 analytically  !
 ! D2    D(4,5,37,42)         -179.9233         calculate D2E/DX2 analytically  !
 ! D3    D(6,5,37,38)         -179.8951         calculate D2E/DX2 analytically  !
 ! D4    D(6,5,37,42)            0.1268         calculate D2E/DX2 analytically  !
 ! D5    D(7,2,3,4)             -0.0066         calculate D2E/DX2 analytically  !
 ! D6    D(7,2,3,10)           179.9832         calculate D2E/DX2 analytically  !
 ! D7    D(3,2,7,6)              0.0068         calculate D2E/DX2 analytically  !
 ! D8    D(3,2,7,9)           -179.9947         calculate D2E/DX2 analytically  !
 ! D9    D(2,3,4,5)             -0.0036         calculate D2E/DX2 analytically  !
 ! D10   D(2,3,4,8)           -179.9939         calculate D2E/DX2 analytically  !
 ! D11   D(10,3,4,5)          -179.993          calculate D2E/DX2 analytically  !
 ! D12   D(10,3,4,8)             0.0166         calculate D2E/DX2 analytically  !
 ! D13   D(2,3,10,11)           56.5094         calculate D2E/DX2 analytically  !
 ! D14   D(2,3,10,12)          -56.7941         calculate D2E/DX2 analytically  !
 ! D15   D(2,3,10,13)          179.8647         calculate D2E/DX2 analytically  !
 ! D16   D(4,3,10,11)         -123.5019         calculate D2E/DX2 analytically  !
 ! D17   D(4,3,10,12)          123.1945         calculate D2E/DX2 analytically  !
 ! D18   D(4,3,10,13)           -0.1467         calculate D2E/DX2 analytically  !
 ! D19   D(3,4,5,1)           -179.9784         calculate D2E/DX2 analytically  !
 ! D20   D(3,4,5,6)              0.0132         calculate D2E/DX2 analytically  !
 ! D21   D(8,4,5,1)              0.0121         calculate D2E/DX2 analytically  !
 ! D22   D(8,4,5,6)           -179.9962         calculate D2E/DX2 analytically  !
 ! D23   D(1,5,6,7)            179.9788         calculate D2E/DX2 analytically  !
 ! D24   D(1,5,6,22)            -0.0159         calculate D2E/DX2 analytically  !
 ! D25   D(4,5,6,7)             -0.0127         calculate D2E/DX2 analytically  !
 ! D26   D(4,5,6,22)           179.9926         calculate D2E/DX2 analytically  !
 ! D27   D(5,6,7,2)              0.0033         calculate D2E/DX2 analytically  !
 ! D28   D(5,6,7,9)           -179.9953         calculate D2E/DX2 analytically  !
 ! D29   D(22,6,7,2)           179.9978         calculate D2E/DX2 analytically  !
 ! D30   D(22,6,7,9)            -0.0007         calculate D2E/DX2 analytically  !
 ! D31   D(5,6,22,23)          -56.3041         calculate D2E/DX2 analytically  !
 ! D32   D(5,6,22,24)           56.4171         calculate D2E/DX2 analytically  !
 ! D33   D(5,6,22,25)         -179.9449         calculate D2E/DX2 analytically  !
 ! D34   D(7,6,22,23)          123.7015         calculate D2E/DX2 analytically  !
 ! D35   D(7,6,22,24)         -123.5773         calculate D2E/DX2 analytically  !
 ! D36   D(7,6,22,25)            0.0607         calculate D2E/DX2 analytically  !
 ! D37   D(3,10,13,14)         -58.1029         calculate D2E/DX2 analytically  !
 ! D38   D(3,10,13,15)          58.2303         calculate D2E/DX2 analytically  !
 ! D39   D(3,10,13,16)        -179.9414         calculate D2E/DX2 analytically  !
 ! D40   D(11,10,13,14)         64.6474         calculate D2E/DX2 analytically  !
 ! D41   D(11,10,13,15)       -179.0194         calculate D2E/DX2 analytically  !
 ! D42   D(11,10,13,16)        -57.1911         calculate D2E/DX2 analytically  !
 ! D43   D(12,10,13,14)        179.1573         calculate D2E/DX2 analytically  !
 ! D44   D(12,10,13,15)        -64.5095         calculate D2E/DX2 analytically  !
 ! D45   D(12,10,13,16)         57.3188         calculate D2E/DX2 analytically  !
 ! D46   D(10,13,16,17)        -57.6358         calculate D2E/DX2 analytically  !
 ! D47   D(10,13,16,18)         57.7234         calculate D2E/DX2 analytically  !
 ! D48   D(10,13,16,19)       -179.9572         calculate D2E/DX2 analytically  !
 ! D49   D(14,13,16,17)       -179.8342         calculate D2E/DX2 analytically  !
 ! D50   D(14,13,16,18)        -64.475          calculate D2E/DX2 analytically  !
 ! D51   D(14,13,16,19)         57.8444         calculate D2E/DX2 analytically  !
 ! D52   D(15,13,16,17)         64.5565         calculate D2E/DX2 analytically  !
 ! D53   D(15,13,16,18)        179.9157         calculate D2E/DX2 analytically  !
 ! D54   D(15,13,16,19)        -57.7649         calculate D2E/DX2 analytically  !
 ! D55   D(13,16,19,20)         59.8766         calculate D2E/DX2 analytically  !
 ! D56   D(13,16,19,21)        -59.8409         calculate D2E/DX2 analytically  !
 ! D57   D(13,16,19,35)       -179.9809         calculate D2E/DX2 analytically  !
 ! D58   D(17,16,19,20)        -62.262          calculate D2E/DX2 analytically  !
 ! D59   D(17,16,19,21)        178.0205         calculate D2E/DX2 analytically  !
 ! D60   D(17,16,19,35)         57.8804         calculate D2E/DX2 analytically  !
 ! D61   D(18,16,19,20)       -177.9868         calculate D2E/DX2 analytically  !
 ! D62   D(18,16,19,21)         62.2957         calculate D2E/DX2 analytically  !
 ! D63   D(18,16,19,35)        -57.8444         calculate D2E/DX2 analytically  !
 ! D64   D(6,22,25,26)         -58.2974         calculate D2E/DX2 analytically  !
 ! D65   D(6,22,25,27)          58.2306         calculate D2E/DX2 analytically  !
 ! D66   D(6,22,25,28)         179.9697         calculate D2E/DX2 analytically  !
 ! D67   D(23,22,25,26)        178.6265         calculate D2E/DX2 analytically  !
 ! D68   D(23,22,25,27)        -64.8455         calculate D2E/DX2 analytically  !
 ! D69   D(23,22,25,28)         56.8936         calculate D2E/DX2 analytically  !
 ! D70   D(24,22,25,26)         64.7766         calculate D2E/DX2 analytically  !
 ! D71   D(24,22,25,27)       -178.6954         calculate D2E/DX2 analytically  !
 ! D72   D(24,22,25,28)        -56.9562         calculate D2E/DX2 analytically  !
 ! D73   D(22,25,28,29)        -57.6807         calculate D2E/DX2 analytically  !
 ! D74   D(22,25,28,30)         57.6458         calculate D2E/DX2 analytically  !
 ! D75   D(22,25,28,31)        179.9832         calculate D2E/DX2 analytically  !
 ! D76   D(26,25,28,29)       -179.8883         calculate D2E/DX2 analytically  !
 ! D77   D(26,25,28,30)        -64.5618         calculate D2E/DX2 analytically  !
 ! D78   D(26,25,28,31)         57.7756         calculate D2E/DX2 analytically  !
 ! D79   D(27,25,28,29)         64.5307         calculate D2E/DX2 analytically  !
 ! D80   D(27,25,28,30)        179.8572         calculate D2E/DX2 analytically  !
 ! D81   D(27,25,28,31)        -57.8054         calculate D2E/DX2 analytically  !
 ! D82   D(25,28,31,32)         59.8455         calculate D2E/DX2 analytically  !
 ! D83   D(25,28,31,33)        -59.873          calculate D2E/DX2 analytically  !
 ! D84   D(25,28,31,36)        179.9856         calculate D2E/DX2 analytically  !
 ! D85   D(29,28,31,32)        -62.2845         calculate D2E/DX2 analytically  !
 ! D86   D(29,28,31,33)        177.997          calculate D2E/DX2 analytically  !
 ! D87   D(29,28,31,36)         57.8556         calculate D2E/DX2 analytically  !
 ! D88   D(30,28,31,32)       -178.0239         calculate D2E/DX2 analytically  !
 ! D89   D(30,28,31,33)         62.2576         calculate D2E/DX2 analytically  !
 ! D90   D(30,28,31,36)        -57.8838         calculate D2E/DX2 analytically  !
 ! D91   D(34,37,38,39)       -179.9965         calculate D2E/DX2 analytically  !
 ! D92   D(34,37,38,45)          0.0025         calculate D2E/DX2 analytically  !
 ! D93   D(42,37,38,39)          0.0043         calculate D2E/DX2 analytically  !
 ! D94   D(42,37,38,45)       -179.9967         calculate D2E/DX2 analytically  !
 ! D95   D(34,37,42,41)        179.9975         calculate D2E/DX2 analytically  !
 ! D96   D(34,37,42,46)          0.0001         calculate D2E/DX2 analytically  !
 ! D97   D(38,37,42,41)         -0.0033         calculate D2E/DX2 analytically  !
 ! D98   D(38,37,42,46)        179.9993         calculate D2E/DX2 analytically  !
 ! D99   D(37,38,39,40)         -0.0026         calculate D2E/DX2 analytically  !
 ! D100  D(37,38,39,47)        179.9995         calculate D2E/DX2 analytically  !
 ! D101  D(45,38,39,40)        179.9984         calculate D2E/DX2 analytically  !
 ! D102  D(45,38,39,47)          0.0005         calculate D2E/DX2 analytically  !
 ! D103  D(38,39,40,41)         -0.0001         calculate D2E/DX2 analytically  !
 ! D104  D(38,39,40,43)        179.9998         calculate D2E/DX2 analytically  !
 ! D105  D(47,39,40,41)        179.9977         calculate D2E/DX2 analytically  !
 ! D106  D(47,39,40,43)         -0.0024         calculate D2E/DX2 analytically  !
 ! D107  D(39,40,41,42)          0.0011         calculate D2E/DX2 analytically  !
 ! D108  D(39,40,41,44)        179.9992         calculate D2E/DX2 analytically  !
 ! D109  D(43,40,41,42)       -179.9988         calculate D2E/DX2 analytically  !
 ! D110  D(43,40,41,44)         -0.0007         calculate D2E/DX2 analytically  !
 ! D111  D(40,41,42,37)          0.0006         calculate D2E/DX2 analytically  !
 ! D112  D(40,41,42,46)        179.998          calculate D2E/DX2 analytically  !
 ! D113  D(44,41,42,37)       -179.9975         calculate D2E/DX2 analytically  !
 ! D114  D(44,41,42,46)         -0.0002         calculate D2E/DX2 analytically  !
 --------------------------------------------------------------------------------
 Trust Radius=3.00D-01 FncErr=1.00D-07 GrdErr=1.00D-06
 Number of steps in this run=    258 maximum allowed number of steps=    282.
 GradGradGradGradGradGradGradGradGradGradGradGradGradGradGradGradGradGrad

 Leave Link  103 at Fri May 10 15:44:19 2024, MaxMem=    33554432 cpu:         0.1
 (Enter /hits/basement/its/doserbd/software/gaussian/g09d1/g09/l202.exe)
                          Input orientation:                          
 ---------------------------------------------------------------------
 Center     Atomic      Atomic             Coordinates (Angstroms)
 Number     Number       Type             X           Y           Z
 ---------------------------------------------------------------------
      1          6           0        2.831806   -0.006236   -0.008272
      2          6           0       -1.314139   -0.014773   -0.012929
      3          6           0       -0.703841   -1.259958   -0.014279
      4          6           0        0.699293   -1.203568   -0.012429
      5          6           0        1.402358    0.023007   -0.009542
      6          6           0        0.708612    1.263431   -0.008102
      7          6           0       -0.699666    1.217589   -0.009942
      8          1           0        1.283513   -2.125515   -0.013363
      9          1           0       -1.285093    2.138713   -0.009038
     10          6           0       -1.509688   -2.548043   -0.017242
     11          1           0       -2.182378   -2.530206   -0.894243
     12          1           0       -2.180594   -2.535322    0.861245
     13          6           0       -0.708611   -3.852555   -0.021718
     14          1           0       -0.045377   -3.880501   -0.905977
     15          1           0       -0.045441   -3.886600    0.862377
     16          6           0       -1.603186   -5.097748   -0.025923
     17          1           0       -2.269586   -5.070311    0.856270
     18          1           0       -2.268554   -5.065066   -0.908715
     19          6           0       -0.811642   -6.407882   -0.029365
     20          1           0       -0.163127   -6.486668    0.860305
     21          1           0       -0.161649   -6.481086   -0.918435
     22          6           0        1.483960    2.566701   -0.004836
     23          1           0        2.159953    2.562804    0.870276
     24          1           0        2.160515    2.566853   -0.879537
     25          6           0        0.662999    3.858831   -0.002137
     26          1           0        0.000591    3.884733   -0.887173
     27          1           0       -0.000881    3.880108    0.881917
     28          6           0        1.540854    5.116159    0.001806
     29          1           0        2.206133    5.092323    0.884894
     30          1           0        2.207958    5.096581   -0.880007
     31          6           0        0.732381    6.415841    0.004122
     32          1           0        0.081081    6.481192    0.892854
     33          1           0        0.083265    6.485731   -0.885860
     34          6           0        4.053310   -0.041189   -0.009378
     35          1           0       -1.480462   -7.283854   -0.032687
     36          1           0        1.389551    7.300598    0.007195
     37          6           0        5.481187   -0.085650   -0.008586
     38          6           0        6.162322   -1.322563   -0.012255
     39          6           0        7.556386   -1.361278   -0.011394
     40          6           0        8.297343   -0.174069   -0.006934
     41          6           0        7.632552    1.057518   -0.003328
     42          6           0        6.238850    1.105969   -0.004137
     43          1           0        9.389310   -0.208771   -0.006270
     44          1           0        8.204901    1.988374    0.000175
     45          1           0        5.582883   -2.247731   -0.015759
     46          1           0        5.718665    2.065740   -0.001296
     47          1           0        8.069533   -2.326054   -0.014261
 ---------------------------------------------------------------------
                    Distance matrix (angstroms):
                    1          2          3          4          5
     1  C    0.000000
     2  C    4.145957   0.000000
     3  C    3.751354   1.386706   0.000000
     4  C    2.445656   2.338192   1.404268   0.000000
     5  C    1.429748   2.716762   2.466191   1.413787   0.000000
     6  C    2.473865   2.392771   2.891808   2.467020   1.421245
     7  C    3.737519   1.377063   2.477554   2.796264   2.417753
     8  H    2.624611   3.347093   2.167663   1.091467   2.151810
     9  H    4.642162   2.153686   3.448021   3.886984   3.420322
    10  C    5.030848   2.540810   1.519395   2.585969   3.884633
    11  H    5.683081   2.803204   2.138677   3.292658   4.489089
    12  H    5.681240   2.805012   2.138667   3.290992   4.487858
    13  C    5.227705   3.885269   2.592612   2.999902   4.413198
    14  H    4.908563   4.165471   2.845338   2.918722   4.258745
    15  H    4.908544   4.167349   2.846272   2.918660   4.259271
    16  C    6.752256   5.091204   3.941775   4.523963   5.937651
    17  H    7.239923   5.217935   4.210487   4.951826   6.338351
    18  H    7.239906   5.217164   4.210367   4.952032   6.338186
    19  C    7.365882   6.412848   5.149074   5.419234   6.801362
    20  H    7.191665   6.631199   5.326891   5.423706   6.751537
    21  H    7.191165   6.630338   5.326504   5.423493   6.750958
    22  C    2.904601   3.807024   4.407934   3.851062   2.545006
    23  H    2.796998   4.415119   4.857701   4.135003   2.792597
    24  H    2.798307   4.414637   4.857745   4.135591   2.793357
    25  C    4.431987   4.349023   5.298151   5.062539   3.906437
    26  H    4.891614   4.207014   5.265550   5.210006   4.200966
    27  H    4.890830   4.206601   5.264750   5.209016   4.200119
    28  C    5.282575   5.871769   6.759718   6.375529   5.095047
    29  H    5.213877   6.267442   7.044710   6.535594   5.209994
    30  H    5.214197   6.267610   7.045115   6.536102   5.210360
    31  C    6.756539   6.748432   7.809031   7.619498   6.427860
    32  H    7.103889   6.705568   7.833543   7.762555   6.653439
    33  H    7.104244   6.706064   7.834213   7.763227   6.653927
    34  C    1.222005   5.367516   4.910795   3.549727   2.651730
    35  H    8.459313   7.271010   6.073780   6.459228   7.855024
    36  H    7.447829   7.799038   8.812824   8.532155   7.277621
    37  C    2.650571   6.795698   6.295523   4.910831   4.080277
    38  C    3.581210   7.589980   6.866449   5.464325   4.946496
    39  C    4.915058   8.972140   8.260848   6.858906   6.307797
    40  C    5.468113   9.612804   9.066450   7.667480   6.897801
    41  C    4.917190   9.010726   8.652529   7.292645   6.315502
    42  C    3.583987   7.635692   7.334758   6.001726   4.956258
    43  H    6.560631  10.705209  10.147746   8.746774   7.990315
    44  H    5.731377   9.727533   9.482486   8.156151   7.080773
    45  H    3.548630   7.249484   6.363850   4.993970   4.757423
    46  H    3.553462   7.334099   7.232498   5.990208   4.775284
    47  H    5.728471   9.664126   8.837910   7.455228   7.068899
                    6          7          8          9         10
     6  C    0.000000
     7  C    1.409025   0.000000
     8  H    3.437368   3.887075   0.000000
     9  H    2.177379   1.091419   4.978092   0.000000
    10  C    4.410020   3.851775   2.824981   4.692142   0.000000
    11  H    4.851263   4.126304   3.598906   4.836064   1.105423
    12  H    4.851165   4.127524   3.596237   4.837967   1.105449
    13  C    5.308674   5.070165   2.636530   6.018952   1.530849
    14  H    5.275862   5.217422   2.375433   6.210663   2.170139
    15  H    5.277229   5.219357   2.373701   6.212930   2.170135
    16  C    6.768259   6.379662   4.143351   7.243469   2.551434
    17  H    7.052169   6.538551   4.696019   7.327210   2.775302
    18  H    7.051560   6.537657   4.696785   7.326053   2.775970
    19  C    7.820529   7.626317   4.767451   8.559723   3.922470
    20  H    7.847172   7.771794   4.677149   8.741383   4.253949
    21  H    7.846248   7.770741   4.677461   8.740141   4.254197
    22  C    1.516472   2.566779   4.696503   2.801936   5.926440
    23  H    2.136892   3.280520   4.850701   3.580697   6.354110
    24  H    2.136897   3.279839   4.851567   3.579565   6.354219
    25  C    2.595808   2.972050   6.016442   2.598830   6.765267
    26  H    2.853994   2.893709   6.207457   2.339378   6.664708
    27  H    2.853508   2.893565   6.206344   2.339969   6.663790
    28  C    3.941603   4.496545   7.246262   4.105031   8.249010
    29  H    4.207187   4.925238   7.331800   4.659569   8.543791
    30  H    4.207290   4.925228   7.332417   4.659289   8.544327
    31  C    5.152479   5.391918   8.559137   4.729080   9.240051
    32  H    5.332030   5.397234   8.737419   4.640793   9.213355
    33  H    5.332348   5.397549   8.738158   4.640882   9.214178
    34  C    3.590131   4.916839   3.466440   5.766327   6.101748
    35  H    8.823193   8.537253   5.852212   9.424622   4.735926
    36  H    6.075466   6.431805   9.426732   5.813694  10.266543
    37  C    4.959586   6.316754   4.667070   7.122524   7.411869
    38  C    6.035755   7.317053   4.944443   8.212456   7.769271
    39  C    7.333561   8.649448   6.319256   9.509032   9.143421
    40  C    7.723681   9.104004   7.280247   9.857588  10.090278
    41  C    6.927003   8.333758   7.102260   8.982951   9.827554
    42  C    5.532481   6.939416   5.915906   7.594491   8.566903
    43  H    8.804652  10.189306   8.329340  10.929481  11.147218
    44  H    7.531265   8.937870   8.051700   9.491189  10.721596
    45  H    6.007231   7.174879   4.301107   8.149235   7.098926
    46  H    5.073892   6.474134   6.102241   7.004143   8.575334
    47  H    8.189481   9.458133   6.788983  10.365481   9.581794
                   11         12         13         14         15
    11  H    0.000000
    12  H    1.755496   0.000000
    13  C    2.163769   2.163669   0.000000
    14  H    2.527886   3.080866   1.105700   0.000000
    15  H    3.080911   2.526822   1.105702   1.768364   0.000000
    16  C    2.771591   2.772453   1.533229   2.164014   2.163915
    17  H    3.086103   2.536555   2.165742   3.077055   2.519530
    18  H    2.536366   3.088706   2.165726   2.519071   3.076976
    19  C    4.202773   4.202849   2.557415   2.782672   2.781929
    20  H    4.775919   4.436588   2.830913   3.150512   2.602732
    21  H    4.437723   4.776239   2.830626   2.603213   3.148993
    22  C    6.341256   6.341111   6.783398   6.687102   6.688513
    23  H    6.921569   6.695620   7.083865   7.038092   6.816057
    24  H    6.696338   6.921541   7.083539   6.814325   7.039002
    25  C    7.050661   7.051003   7.832444   7.824065   7.825661
    26  H    6.776197   7.002260   7.817775   7.765393   7.965969
    27  H    7.000413   6.775641   7.817385   7.964019   7.766860
    28  C    8.551740   8.551782   9.246539   9.180419   9.181862
    29  H    8.973701   8.799142   9.451377   9.422743   9.256951
    30  H    8.800178   8.974257   9.451458   9.255603   9.423972
    31  C    9.451700   9.452164  10.369044  10.365706  10.367348
    32  H    9.461620   9.295897  10.404152  10.517437  10.368609
    33  H    9.296253   9.463447  10.404517  10.367050  10.519418
    34  C    6.772149   6.770543   6.099389   5.687130   5.687434
    35  H    4.881816   4.882402   3.517057   3.795381   3.794965
    36  H   10.498379  10.498602  11.348829  11.309725  11.311230
    37  C    8.092618   8.090760   7.245919   6.763809   6.763831
    38  C    8.477637   8.475732   7.321930   6.773279   6.773152
    39  C    9.848316   9.846251   8.632307   8.058136   8.057822
    40  C   10.777905  10.775733   9.728241   9.173162   9.172820
    41  C   10.488009  10.485887   9.679057   9.173298   9.173076
    42  C    9.215809   9.213844   8.535483   8.072776   8.072726
    43  H   11.835604  11.833347  10.735241  10.163877  10.163439
    44  H   11.362795  11.360624  10.656811  10.165229  10.164981
    45  H    7.819898   7.818147   6.492949   5.927540   5.927482
    46  H    9.184038   9.182160   8.737077   8.330692   8.330739
    47  H   10.291634  10.289578   8.909886   8.310429   8.310031
                   16         17         18         19         20
    16  C    0.000000
    17  H    1.105941   0.000000
    18  H    1.105941   1.764993   0.000000
    19  C    1.530687   2.167729   2.167718   0.000000
    20  H    2.188211   2.538357   3.095676   1.103763   0.000000
    21  H    2.188203   3.095685   2.538554   1.103764   1.778749
    22  C    8.262850   8.553043   8.552323   9.263559   9.242557
    23  H    8.581868   8.825274   8.997827   9.492783   9.342898
    24  H    8.581387   8.998060   8.824040   9.492226   9.507502
    25  C    9.238857   9.437505   9.436728  10.372112  10.414204
    26  H    9.165087   9.401388   9.233005  10.360187  10.518861
    27  H    9.164794   9.233508   9.400257  10.360043  10.368068
    28  C   10.686892  10.909341  10.908620  11.761749  11.758664
    29  H   10.916870  11.104594  11.243328  11.924661  11.818927
    30  H   10.916896  11.244054  11.104011  11.924522  11.950832
    31  C   11.748128  11.902506  11.901685  12.916385  12.961857
    32  H   11.736813  11.788308  11.919837  12.952825  12.970201
    33  H   11.737146  11.921117  11.787811  12.952980  13.091713
    34  C    7.587161   8.125296   8.124907   8.012673   7.751058
    35  H    2.189558   2.512515   2.512276   1.102115   1.779975
    36  H   12.754472  12.928634  12.927887  13.884127  13.900623
    37  C    8.678121   9.255772   9.255448   8.920244   8.578245
    38  C    8.634543   9.268065   9.267667   8.631161   8.212226
    39  C    9.892380  10.538477  10.538153   9.772022   9.307006
    40  C   11.057281  11.678112  11.677896  11.037868  10.591533
    41  C   11.098949  11.676538  11.676372  11.271082  10.882703
    42  C    9.999206  10.548944  10.548737  10.303787   9.968988
    43  H   12.030688  12.661296  12.661114  11.936873  11.463508
    44  H   12.100098  12.659890  12.659793  12.320553  11.941108
    45  H    7.730607   8.389795   8.389268   7.628695   7.193936
    46  H   10.243324  10.745734  10.745580  10.698036  10.415447
    47  H   10.062005  10.732482  10.732115   9.774294   9.265651
                   21         22         23         24         25
    21  H    0.000000
    22  C    9.241490   0.000000
    23  H    9.506907   1.105804   0.000000
    24  H    9.341261   1.105816   1.749818   0.000000
    25  C   10.413143   1.530878   2.163715   2.163699   0.000000
    26  H   10.367136   2.171662   3.082040   2.530245   1.105778
    27  H   10.517673   2.171663   2.530737   3.082043   1.105776
    28  C   11.757613   2.550102   2.767155   2.767618   1.533466
    29  H   11.949987   2.773431   2.529983   3.081120   2.165546
    30  H   11.817736   2.773156   3.079906   2.530173   2.165543
    31  C   12.960754   3.921841   4.199295   4.199421   2.557959
    32  H   13.090468   4.254076   4.435762   4.773622   2.831327
    33  H   12.969171   4.254051   4.773469   4.435383   2.831547
    34  C    7.750131   3.660966   3.337570   3.337923   5.167632
    35  H    1.779959  10.286982  10.536823  10.536142  11.347017
    36  H   13.899562   4.734854   4.876999   4.877399   3.517630
    37  C    8.577356   4.797166   4.337892   4.338340   6.226870
    38  C    8.211220   6.083872   5.647468   5.647494   7.555760
    39  C    9.306085   7.232110   6.730323   6.730476   8.646873
    40  C   10.590743   7.343978   6.776985   6.777517   8.634090
    41  C   10.881982   6.331099   5.742683   5.743607   7.511460
    42  C    9.968236   4.974205   4.418638   4.419652   6.218390
    43  H   11.462757   8.378413   7.791890   7.792442   9.627767
    44  H   11.940467   6.745779   6.134202   6.135400   7.770386
    45  H    7.192758   6.322977   5.970155   5.969834   7.841909
    46  H   10.414772   4.264235   3.697451   3.699034   5.364228
    47  H    9.264674   8.204201   7.720523   7.720475   9.649337
                   26         27         28         29         30
    26  H    0.000000
    27  H    1.769097   0.000000
    28  C    2.163124   2.163184   0.000000
    29  H    3.076186   2.518013   1.105898   0.000000
    30  H    2.518153   3.076224   1.105896   1.764908   0.000000
    31  C    2.781445   2.781752   1.530623   2.167812   2.167823
    32  H    3.149060   2.602399   2.188200   2.538675   3.095769
    33  H    2.602312   3.149824   2.188206   3.095760   2.538522
    34  C    5.710335   5.710293   5.736794   5.528538   5.528110
    35  H   11.298716  11.298659  12.762831  12.946146  12.945947
    36  H    3.794369   3.794495   2.189679   2.512696   2.512888
    37  C    6.824427   6.824464   6.525731   6.191582   6.191036
    38  C    8.114699   8.114949   7.925611   7.589932   7.589163
    39  C    9.240003   9.240260   8.839909   8.430747   8.429953
    40  C    9.278189   9.278304   8.581185   8.101424   8.100779
    41  C    8.186645   8.186573   7.319931   6.820162   6.819738
    42  C    6.886012   6.885868   6.176798   5.739704   5.739358
    43  H   10.280117  10.280248   9.484367   8.971833   8.971176
    44  H    8.467247   8.467053   7.361560   6.811934   6.811681
    45  H    8.338372   8.338743   8.400308   8.129575   8.128712
    46  H    6.065467   6.065081   5.172927   4.720531   4.720508
    47  H   10.219769  10.220135   9.900023   9.498434   9.497531
                   31         32         33         34         35
    31  C    0.000000
    32  H    1.103770   0.000000
    33  H    1.103769   1.778721   0.000000
    34  C    7.260991   7.689869   7.689615   0.000000
    35  H   13.877308  13.884219  13.884330   9.114788   0.000000
    36  H    1.102123   1.779862   1.779871   7.810104  14.864212
    37  C    8.051131   8.549688   8.549283   1.428569  10.013954
    38  C    9.453435   9.934753   9.934162   2.467764   9.692758
    39  C   10.346539  10.872083  10.871420   3.743551  10.804720
    40  C   10.032731  10.611742  10.611151   4.246113  12.089465
    41  C    8.736363   9.340455   9.340027   3.744084  12.354204
    42  C    7.649576   8.222879   8.222561   2.468316  11.400777
    43  H   10.900826  11.498137  11.497500   5.338631  12.969558
    44  H    8.685680   9.326240   9.325892   4.621138  13.408264
    45  H    9.929010  10.358064  10.357424   2.684857   8.674887
    46  H    6.617132   7.216514   7.216406   2.685633  11.800141
    47  H   11.412925  11.925008  11.924249   4.620679  10.760229
                   36         37         38         39         40
    36  H    0.000000
    37  C    8.443838   0.000000
    38  C    9.855893   1.412059   0.000000
    39  C   10.632887   2.435915   1.394601   0.000000
    40  C   10.177840   2.817544   2.424331   1.399465   0.000000
    41  C    8.828999   2.436233   2.797577   2.420008   1.399559
    42  C    7.866973   1.412101   2.429751   2.797009   2.424025
    43  H   10.972098   3.910062   3.413798   2.165158   1.092519
    44  H    8.641109   3.423488   3.890319   3.411872   2.164429
    45  H   10.428573   2.164483   1.091649   2.163454   3.415911
    46  H    6.793014   2.164470   3.417243   3.888672   3.415604
    47  H   11.717297   3.423299   2.155099   1.092758   2.164022
                   41         42         43         44         45
    41  C    0.000000
    42  C    1.394544   0.000000
    43  H    2.165570   3.413787   0.000000
    44  H    1.092743   2.154997   2.496059   0.000000
    45  H    3.889211   3.417269   4.318140   4.981949   0.000000
    46  H    2.163210   1.091678   4.318224   2.487439   4.315632
    47  H    3.411690   3.889767   2.494947   4.316575   2.487884
                   46         47
    46  H    0.000000
    47  H    4.981426   0.000000
 Stoichiometry    C22H25(2)
 Framework group  C1[X(C22H25)]
 Deg. of freedom   135
 Full point group                 C1      NOp   1
 Largest Abelian subgroup         C1      NOp   1
 Largest concise Abelian subgroup C1      NOp   1
                         Standard orientation:                         
 ---------------------------------------------------------------------
 Center     Atomic      Atomic             Coordinates (Angstroms)
 Number     Number       Type             X           Y           Z
 ---------------------------------------------------------------------
      1          6           0       -0.567548   -0.506312   -0.001610
      2          6           0        2.435341    2.352291    0.000445
      3          6           0        2.854576    1.030476   -0.000921
      4          6           0        1.801323    0.101699   -0.001758
      5          6           0        0.445553    0.502551   -0.001157
      6          6           0        0.089930    1.878584    0.000056
      7          6           0        1.139613    2.818540    0.000906
      8          1           0        2.016058   -0.968436   -0.002752
      9          1           0        0.926319    3.888914    0.001928
     10          6           0        4.327147    0.656183   -0.001662
     11          1           0        4.802991    1.132695    0.874961
     12          1           0        4.801430    1.130164   -0.880533
     13          6           0        4.649474   -0.840347    0.000069
     14          1           0        4.191269   -1.320041    0.884668
     15          1           0        4.191696   -1.321987   -0.883695
     16          6           0        6.156549   -1.122327    0.000620
     17          1           0        6.617398   -0.640816   -0.881916
     18          1           0        6.616855   -0.640151    0.883077
     19          6           0        6.489649   -2.616331    0.001298
     20          1           0        6.073368   -3.120180   -0.888162
     21          1           0        6.072299   -3.119599    0.890587
     22          6           0       -1.371087    2.284929    0.000513
     23          1           0       -1.858947    1.816209   -0.874185
     24          1           0       -1.858357    1.816354    0.875633
     25          6           0       -1.670481    3.786245    0.000516
     26          1           0       -1.207624    4.261471    0.885202
     27          1           0       -1.207200    4.261564   -0.883895
     28          6           0       -3.173854    4.088551    0.000246
     29          1           0       -3.640209    3.612831   -0.882485
     30          1           0       -3.640643    3.612235    0.882423
     31          6           0       -3.487492    5.586695    0.000659
     32          1           0       -3.063770    6.085188   -0.888313
     33          1           0       -3.064629    6.084528    0.890408
     34          6           0       -1.426383   -1.375619    0.000170
     35          1           0        7.578406   -2.787405    0.002025
     36          1           0       -4.573897    5.772170    0.000195
     37          6           0       -2.427833   -2.394397    0.000156
     38          6           0       -2.065515   -3.759181    0.001174
     39          6           0       -3.046493   -4.750441    0.001083
     40          6           0       -4.402456   -4.404227    0.000036
     41          6           0       -4.772909   -3.054586   -0.000920
     42          6           0       -3.798920   -2.056538   -0.000858
     43          1           0       -5.167830   -5.183842   -0.000034
     44          1           0       -5.829853   -2.777178   -0.001752
     45          1           0       -1.007375   -4.027578    0.002016
     46          1           0       -4.086083   -1.003306   -0.001637
     47          1           0       -2.750785   -5.802428    0.001871
 ---------------------------------------------------------------------
 Rotational constants (GHZ):      0.2117099      0.1474570      0.0872958
 Leave Link  202 at Fri May 10 15:44:19 2024, MaxMem=    33554432 cpu:         0.1
 (Enter /hits/basement/its/doserbd/software/gaussian/g09d1/g09/l301.exe)
 Standard basis: 6-31+G (6D, 7F)
 Ernie: Thresh=  0.10000D-02 Tol=  0.10000D-05 Strict=F.
 There are   336 symmetry adapted cartesian basis functions of A   symmetry.
 There are   336 symmetry adapted basis functions of A   symmetry.
   336 basis functions,   672 primitive gaussians,   336 cartesian basis functions
    79 alpha electrons       78 beta electrons
       nuclear repulsion energy      1524.4801750128 Hartrees.
 IExCor= 3226 DFT=T Ex+Corr=BMK ExCW=0 ScaHFX=  0.420000
 ScaDFX=  1.000000  1.000000  1.000000  1.000000 ScalE2=  1.000000  1.000000
 IRadAn=      0 IRanWt=     -1 IRanGd=            0 ICorTp=0 IEmpDi=  4
 NAtoms=   47 NActive=   47 NUniq=   47 SFac= 1.00D+00 NAtFMM=   60 NAOKFM=F Big=F
 Integral buffers will be    131072 words long.
 Raffenetti 2 integral format.
 Two-electron integral symmetry is turned on.
 Leave Link  301 at Fri May 10 15:44:19 2024, MaxMem=    33554432 cpu:         0.3
 (Enter /hits/basement/its/doserbd/software/gaussian/g09d1/g09/l302.exe)
 NPDir=0 NMtPBC=     1 NCelOv=     1 NCel=       1 NClECP=     1 NCelD=      1
         NCelK=      1 NCelE2=     1 NClLst=     1 CellRange=     0.0.
 One-electron integrals computed using PRISM.
 NBasis=   336 RedAO= T EigKep=  1.32D-06  NBF=   336
 NBsUse=   328 1.00D-06 EigRej=  8.66D-07 NBFU=   328
 Precomputing XC quadrature grid using
 IXCGrd= 4 IRadAn=           0 IRanWt=          -1 IRanGd=           0 AccXCQ= 0.00D+00.
 Generated NRdTot=       0 NPtTot=           0 NUsed=           0 NTot=          32
 NSgBfM=   327   327   328   328   329 MxSgAt=    47 MxSgA2=    47.
 Leave Link  302 at Fri May 10 15:44:19 2024, MaxMem=    33554432 cpu:         2.7
 (Enter /hits/basement/its/doserbd/software/gaussian/g09d1/g09/l303.exe)
 DipDrv:  MaxL=1.
 Leave Link  303 at Fri May 10 15:44:20 2024, MaxMem=    33554432 cpu:         0.3
 (Enter /hits/basement/its/doserbd/software/gaussian/g09d1/g09/l401.exe)
 ExpMin= 4.38D-02 ExpMax= 3.05D+03 ExpMxC= 4.57D+02 IAcc=2 IRadAn=         4 AccDes= 0.00D+00
 Harris functional with IExCor= 1009 and IRadAn=       4 diagonalized for initial guess.
 HarFok:  IExCor= 1009 AccDes= 0.00D+00 IRadAn=         4 IDoV= 1 UseB2=F ITyADJ=14
 ICtDFT=  3500011 ScaDFX=  1.000000  1.000000  1.000000  1.000000
 FoFCou: FMM=F IPFlag=           0 FMFlag=      100000 FMFlg1=           0
         NFxFlg=           0 DoJE=T BraDBF=F KetDBF=T FulRan=T
         wScrn=  0.000000 ICntrl=     500 IOpCl=  0 I1Cent=   200000004 NGrid=           0
         NMat0=    1 NMatS0=      1 NMatT0=    0 NMatD0=    1 NMtDS0=    0 NMtDT0=    0
 Petite list used in FoFCou.
 Harris En= -852.326314989836    
 JPrj=0 DoOrth=F DoCkMO=F.
 Initial guess <Sx>= 0.0000 <Sy>= 0.0000 <Sz>= 0.5000 <S**2>= 0.7500 S= 0.5000
 Leave Link  401 at Fri May 10 15:44:21 2024, MaxMem=    33554432 cpu:         9.3
 (Enter /hits/basement/its/doserbd/software/gaussian/g09d1/g09/l502.exe)
 UHF open shell SCF:
 Using DIIS extrapolation, IDIIS=  1040.
 Integral symmetry usage will be decided dynamically.
 IVT=      362510 IEndB=      362510 NGot=    33554432 MDV=    33321795
 LenX=    33321795 LenY=    33208458
 Requested convergence on RMS density matrix=1.00D-08 within 128 cycles.
 Requested convergence on MAX density matrix=1.00D-06.
 Requested convergence on             energy=1.00D-06.
 No special actions if energy rises.
 Fock matrices will be formed incrementally for  20 cycles.

 Cycle   1  Pass 1  IDiag  1:
 FoFJK:  IHMeth= 1 ICntrl=       0 DoSepK=F KAlg= 0 I1Cent=   0 FoldK=F
 IRaf= 720000000 NMat=   1 IRICut=       1 DoRegI=T DoRafI=F ISym2E= 0.
 FoFCou: FMM=F IPFlag=           0 FMFlag=      100000 FMFlg1=           0
         NFxFlg=           0 DoJE=F BraDBF=F KetDBF=F FulRan=T
         wScrn=  0.000000 ICntrl=       0 IOpCl=  1 I1Cent=           0 NGrid=           0
         NMat0=    1 NMatS0=      1 NMatT0=    0 NMatD0=    1 NMtDS0=    0 NMtDT0=    0
 Symmetry not used in FoFCou.
 E= -852.039445869855    
 DIIS: error= 3.99D-02 at cycle   1 NSaved=   1.
 NSaved= 1 IEnMin= 1 EnMin= -852.039445869855     IErMin= 1 ErrMin= 3.99D-02
 ErrMax= 3.99D-02  0.00D+00 EMaxC= 1.00D-01 BMatC= 1.56D+00 BMatP= 1.56D+00
 IDIUse=3 WtCom= 6.01D-01 WtEn= 3.99D-01
 Coeff-Com:  0.100D+01
 Coeff-En:   0.100D+01
 Coeff:      0.100D+01
 Gap=     0.291 Goal=   None    Shift=    0.000
 Gap=     0.159 Goal=   None    Shift=    0.000
 GapD=    0.159 DampG=1.000 DampE=0.500 DampFc=0.5000 IDamp=-1.
 Damping current iteration by 5.00D-01
 RMSDP=9.23D-02 MaxDP=9.38D+00              OVMax= 1.38D-01

 Cycle   2  Pass 1  IDiag  1:
 RMSU=  3.26D-02    CP:  1.27D+00
 E= -852.282638356983     Delta-E=       -0.243192487127 Rises=F Damp=T
 DIIS: error= 6.14D-03 at cycle   2 NSaved=   2.
 NSaved= 2 IEnMin= 2 EnMin= -852.282638356983     IErMin= 2 ErrMin= 6.14D-03
 ErrMax= 6.14D-03  0.00D+00 EMaxC= 1.00D-01 BMatC= 5.74D-02 BMatP= 1.56D+00
 IDIUse=3 WtCom= 9.39D-01 WtEn= 6.14D-02
 Coeff-Com: -0.847D-01 0.108D+01
 Coeff-En:   0.000D+00 0.100D+01
 Coeff:     -0.795D-01 0.108D+01
 Gap=     0.217 Goal=   None    Shift=    0.000
 Gap=     0.188 Goal=   None    Shift=    0.000
 RMSDP=2.26D-02 MaxDP=1.72D+00 DE=-2.43D-01 OVMax= 6.45D-02

 Cycle   3  Pass 1  IDiag  1:
 RMSU=  1.97D-02    CP:  1.34D+00  1.18D+00
 E= -852.502975730393     Delta-E=       -0.220337373410 Rises=F Damp=F
 DIIS: error= 3.00D-03 at cycle   3 NSaved=   3.
 NSaved= 3 IEnMin= 3 EnMin= -852.502975730393     IErMin= 3 ErrMin= 3.00D-03
 ErrMax= 3.00D-03  0.00D+00 EMaxC= 1.00D-01 BMatC= 1.01D-02 BMatP= 5.74D-02
 IDIUse=3 WtCom= 9.70D-01 WtEn= 3.00D-02
 Coeff-Com: -0.364D-01 0.287D+00 0.749D+00
 Coeff-En:   0.000D+00 0.000D+00 0.100D+01
 Coeff:     -0.353D-01 0.279D+00 0.757D+00
 Gap=     0.216 Goal=   None    Shift=    0.000
 Gap=     0.180 Goal=   None    Shift=    0.000
 RMSDP=3.20D-03 MaxDP=1.52D-01 DE=-2.20D-01 OVMax= 2.71D-02

 Cycle   4  Pass 1  IDiag  1:
 RMSU=  2.65D-03    CP:  1.35D+00  1.21D+00  9.66D-01
 E= -852.505419996943     Delta-E=       -0.002444266550 Rises=F Damp=F
 DIIS: error= 2.04D-03 at cycle   4 NSaved=   4.
 NSaved= 4 IEnMin= 4 EnMin= -852.505419996943     IErMin= 4 ErrMin= 2.04D-03
 ErrMax= 2.04D-03  0.00D+00 EMaxC= 1.00D-01 BMatC= 2.54D-03 BMatP= 1.01D-02
 IDIUse=3 WtCom= 9.80D-01 WtEn= 2.04D-02
 Coeff-Com: -0.249D-02 0.115D-01 0.330D+00 0.661D+00
 Coeff-En:   0.000D+00 0.000D+00 0.132D+00 0.868D+00
 Coeff:     -0.243D-02 0.113D-01 0.326D+00 0.665D+00
 Gap=     0.214 Goal=   None    Shift=    0.000
 Gap=     0.184 Goal=   None    Shift=    0.000
 RMSDP=1.86D-03 MaxDP=1.56D-01 DE=-2.44D-03 OVMax= 1.19D-02

 Cycle   5  Pass 1  IDiag  1:
 RMSU=  8.53D-04    CP:  1.34D+00  1.19D+00  9.72D-01  7.46D-01
 E= -852.506223667034     Delta-E=       -0.000803670092 Rises=F Damp=F
 DIIS: error= 8.72D-04 at cycle   5 NSaved=   5.
 NSaved= 5 IEnMin= 5 EnMin= -852.506223667034     IErMin= 5 ErrMin= 8.72D-04
 ErrMax= 8.72D-04  0.00D+00 EMaxC= 1.00D-01 BMatC= 2.37D-04 BMatP= 2.54D-03
 IDIUse=3 WtCom= 9.91D-01 WtEn= 8.72D-03
 Coeff-Com:  0.130D-02-0.102D-01 0.116D+00 0.320D+00 0.573D+00
 Coeff-En:   0.000D+00 0.000D+00 0.000D+00 0.000D+00 0.100D+01
 Coeff:      0.129D-02-0.102D-01 0.115D+00 0.318D+00 0.577D+00
 Gap=     0.214 Goal=   None    Shift=    0.000
 Gap=     0.184 Goal=   None    Shift=    0.000
 RMSDP=2.97D-04 MaxDP=1.94D-02 DE=-8.04D-04 OVMax= 3.27D-03

 Cycle   6  Pass 1  IDiag  1:
 RMSU=  2.25D-04    CP:  1.34D+00  1.19D+00  9.79D-01  7.96D-01  9.79D-01
 E= -852.506308394642     Delta-E=       -0.000084727607 Rises=F Damp=F
 DIIS: error= 3.19D-04 at cycle   6 NSaved=   6.
 NSaved= 6 IEnMin= 6 EnMin= -852.506308394642     IErMin= 6 ErrMin= 3.19D-04
 ErrMax= 3.19D-04  0.00D+00 EMaxC= 1.00D-01 BMatC= 3.53D-05 BMatP= 2.37D-04
 IDIUse=3 WtCom= 9.97D-01 WtEn= 3.19D-03
 Coeff-Com:  0.118D-02-0.619D-02-0.292D-01-0.237D-01 0.191D+00 0.867D+00
 Coeff-En:   0.000D+00 0.000D+00 0.000D+00 0.000D+00 0.000D+00 0.100D+01
 Coeff:      0.118D-02-0.617D-02-0.291D-01-0.237D-01 0.190D+00 0.867D+00
 Gap=     0.214 Goal=   None    Shift=    0.000
 Gap=     0.184 Goal=   None    Shift=    0.000
 RMSDP=2.36D-04 MaxDP=2.43D-02 DE=-8.47D-05 OVMax= 3.48D-03

 Cycle   7  Pass 1  IDiag  1:
 RMSU=  1.35D-04    CP:  1.34D+00  1.19D+00  9.80D-01  8.33D-01  1.09D+00
                    CP:  1.28D+00
 E= -852.506336599807     Delta-E=       -0.000028205166 Rises=F Damp=F
 DIIS: error= 2.71D-04 at cycle   7 NSaved=   7.
 NSaved= 7 IEnMin= 7 EnMin= -852.506336599807     IErMin= 7 ErrMin= 2.71D-04
 ErrMax= 2.71D-04  0.00D+00 EMaxC= 1.00D-01 BMatC= 2.35D-05 BMatP= 3.53D-05
 IDIUse=3 WtCom= 9.97D-01 WtEn= 2.71D-03
 Coeff-Com:  0.344D-03-0.117D-02-0.506D-01-0.103D+00-0.295D-01 0.567D+00
 Coeff-Com:  0.617D+00
 Coeff-En:   0.000D+00 0.000D+00 0.000D+00 0.000D+00 0.000D+00 0.000D+00
 Coeff-En:   0.100D+01
 Coeff:      0.343D-03-0.117D-02-0.504D-01-0.103D+00-0.294D-01 0.566D+00
 Coeff:      0.618D+00
 Gap=     0.214 Goal=   None    Shift=    0.000
 Gap=     0.184 Goal=   None    Shift=    0.000
 RMSDP=1.14D-04 MaxDP=9.96D-03 DE=-2.82D-05 OVMax= 2.52D-03

 Cycle   8  Pass 1  IDiag  1:
 RMSU=  5.05D-05    CP:  1.34D+00  1.19D+00  9.79D-01  8.48D-01  1.13D+00
                    CP:  1.46D+00  1.20D+00
 E= -852.506352681503     Delta-E=       -0.000016081695 Rises=F Damp=F
 DIIS: error= 1.47D-04 at cycle   8 NSaved=   8.
 NSaved= 8 IEnMin= 8 EnMin= -852.506352681503     IErMin= 8 ErrMin= 1.47D-04
 ErrMax= 1.47D-04  0.00D+00 EMaxC= 1.00D-01 BMatC= 6.32D-06 BMatP= 2.35D-05
 IDIUse=3 WtCom= 9.99D-01 WtEn= 1.47D-03
 Coeff-Com: -0.635D-03 0.296D-02-0.850D-02-0.401D-01-0.118D+00-0.194D+00
 Coeff-Com:  0.295D+00 0.106D+01
 Coeff-En:   0.000D+00 0.000D+00 0.000D+00 0.000D+00 0.000D+00 0.000D+00
 Coeff-En:   0.000D+00 0.100D+01
 Coeff:     -0.634D-03 0.295D-02-0.849D-02-0.400D-01-0.117D+00-0.194D+00
 Coeff:      0.294D+00 0.106D+01
 Gap=     0.214 Goal=   None    Shift=    0.000
 Gap=     0.185 Goal=   None    Shift=    0.000
 RMSDP=7.52D-05 MaxDP=7.22D-03 DE=-1.61D-05 OVMax= 2.65D-03

 Cycle   9  Pass 1  IDiag  1:
 RMSU=  3.59D-05    CP:  1.34D+00  1.19D+00  9.80D-01  8.57D-01  1.16D+00
                    CP:  1.64D+00  1.43D+00  1.05D+00
 E= -852.506362892690     Delta-E=       -0.000010211187 Rises=F Damp=F
 DIIS: error= 8.35D-05 at cycle   9 NSaved=   9.
 NSaved= 9 IEnMin= 9 EnMin= -852.506362892690     IErMin= 9 ErrMin= 8.35D-05
 ErrMax= 8.35D-05  0.00D+00 EMaxC= 1.00D-01 BMatC= 2.16D-06 BMatP= 6.32D-06
 IDIUse=1 WtCom= 1.00D+00 WtEn= 0.00D+00
 Coeff-Com: -0.439D-03 0.182D-02 0.106D-01 0.910D-02-0.515D-01-0.271D+00
 Coeff-Com: -0.320D-01 0.552D+00 0.781D+00
 Coeff:     -0.439D-03 0.182D-02 0.106D-01 0.910D-02-0.515D-01-0.271D+00
 Coeff:     -0.320D-01 0.552D+00 0.781D+00
 Gap=     0.214 Goal=   None    Shift=    0.000
 Gap=     0.184 Goal=   None    Shift=    0.000
 RMSDP=3.29D-05 MaxDP=2.25D-03 DE=-1.02D-05 OVMax= 1.42D-03

 Cycle  10  Pass 1  IDiag  1:
 RMSU=  2.25D-05    CP:  1.34D+00  1.19D+00  9.79D-01  8.58D-01  1.16D+00
                    CP:  1.66D+00  1.48D+00  1.11D+00  1.27D+00
 E= -852.506365800874     Delta-E=       -0.000002908184 Rises=F Damp=F
 DIIS: error= 5.37D-05 at cycle  10 NSaved=  10.
 NSaved=10 IEnMin=10 EnMin= -852.506365800874     IErMin=10 ErrMin= 5.37D-05
 ErrMax= 5.37D-05  0.00D+00 EMaxC= 1.00D-01 BMatC= 5.51D-07 BMatP= 2.16D-06
 IDIUse=1 WtCom= 1.00D+00 WtEn= 0.00D+00
 Coeff-Com:  0.124D-03-0.491D-03 0.574D-02 0.164D-01 0.285D-01-0.375D-04
 Coeff-Com: -0.120D+00-0.246D+00 0.240D+00 0.108D+01
 Coeff:      0.124D-03-0.491D-03 0.574D-02 0.164D-01 0.285D-01-0.375D-04
 Coeff:     -0.120D+00-0.246D+00 0.240D+00 0.108D+01
 Gap=     0.214 Goal=   None    Shift=    0.000
 Gap=     0.185 Goal=   None    Shift=    0.000
 RMSDP=2.76D-05 MaxDP=2.63D-03 DE=-2.91D-06 OVMax= 9.99D-04

 Cycle  11  Pass 1  IDiag  1:
 RMSU=  1.82D-05    CP:  1.34D+00  1.19D+00  9.79D-01  8.54D-01  1.14D+00
                    CP:  1.62D+00  1.44D+00  1.15D+00  1.39D+00  7.89D-01
 E= -852.506366774923     Delta-E=       -0.000000974050 Rises=F Damp=F
 DIIS: error= 2.88D-05 at cycle  11 NSaved=  11.
 NSaved=11 IEnMin=11 EnMin= -852.506366774923     IErMin=11 ErrMin= 2.88D-05
 ErrMax= 2.88D-05  0.00D+00 EMaxC= 1.00D-01 BMatC= 2.29D-07 BMatP= 5.51D-07
 IDIUse=1 WtCom= 1.00D+00 WtEn= 0.00D+00
 Coeff-Com:  0.192D-03-0.771D-03 0.254D-03 0.655D-02 0.285D-01 0.686D-01
 Coeff-Com: -0.572D-01-0.272D+00-0.797D-01 0.595D+00 0.711D+00
 Coeff:      0.192D-03-0.771D-03 0.254D-03 0.655D-02 0.285D-01 0.686D-01
 Coeff:     -0.572D-01-0.272D+00-0.797D-01 0.595D+00 0.711D+00
 Gap=     0.214 Goal=   None    Shift=    0.000
 Gap=     0.185 Goal=   None    Shift=    0.000
 RMSDP=1.15D-05 MaxDP=8.21D-04 DE=-9.74D-07 OVMax= 4.00D-04

 Cycle  12  Pass 1  IDiag  1:
 RMSU=  5.72D-06    CP:  1.34D+00  1.19D+00  9.79D-01  8.53D-01  1.14D+00
                    CP:  1.61D+00  1.41D+00  1.12D+00  1.45D+00  1.03D+00
                    CP:  1.14D+00
 E= -852.506366986739     Delta-E=       -0.000000211816 Rises=F Damp=F
 DIIS: error= 9.01D-06 at cycle  12 NSaved=  12.
 NSaved=12 IEnMin=12 EnMin= -852.506366986739     IErMin=12 ErrMin= 9.01D-06
 ErrMax= 9.01D-06  0.00D+00 EMaxC= 1.00D-01 BMatC= 3.90D-08 BMatP= 2.29D-07
 IDIUse=1 WtCom= 1.00D+00 WtEn= 0.00D+00
 Coeff-Com: -0.290D-05 0.116D-04-0.231D-02-0.507D-02-0.518D-02 0.140D-01
 Coeff-Com:  0.364D-01 0.386D-01-0.119D+00-0.262D+00 0.121D+00 0.118D+01
 Coeff:     -0.290D-05 0.116D-04-0.231D-02-0.507D-02-0.518D-02 0.140D-01
 Coeff:      0.364D-01 0.386D-01-0.119D+00-0.262D+00 0.121D+00 0.118D+01
 Gap=     0.214 Goal=   None    Shift=    0.000
 Gap=     0.185 Goal=   None    Shift=    0.000
 RMSDP=9.09D-06 MaxDP=6.67D-04 DE=-2.12D-07 OVMax= 2.46D-04

 Cycle  13  Pass 1  IDiag  1:
 RMSU=  5.26D-06    CP:  1.34D+00  1.19D+00  9.79D-01  8.53D-01  1.14D+00
                    CP:  1.60D+00  1.40D+00  1.11D+00  1.46D+00  1.08D+00
                    CP:  1.27D+00  1.07D+00
 E= -852.506367048580     Delta-E=       -0.000000061840 Rises=F Damp=F
 DIIS: error= 5.91D-06 at cycle  13 NSaved=  13.
 NSaved=13 IEnMin=13 EnMin= -852.506367048580     IErMin=13 ErrMin= 5.91D-06
 ErrMax= 5.91D-06  0.00D+00 EMaxC= 1.00D-01 BMatC= 1.02D-08 BMatP= 3.90D-08
 IDIUse=1 WtCom= 1.00D+00 WtEn= 0.00D+00
 Coeff-Com: -0.287D-04 0.107D-03-0.685D-03-0.234D-02-0.555D-02-0.531D-02
 Coeff-Com:  0.191D-01 0.500D-01-0.228D-01-0.167D+00-0.632D-01 0.361D+00
 Coeff-Com:  0.837D+00
 Coeff:     -0.287D-04 0.107D-03-0.685D-03-0.234D-02-0.555D-02-0.531D-02
 Coeff:      0.191D-01 0.500D-01-0.228D-01-0.167D+00-0.632D-01 0.361D+00
 Coeff:      0.837D+00
 Gap=     0.214 Goal=   None    Shift=    0.000
 Gap=     0.185 Goal=   None    Shift=    0.000
 RMSDP=3.73D-06 MaxDP=1.94D-04 DE=-6.18D-08 OVMax= 7.20D-05

 Cycle  14  Pass 1  IDiag  1:
 RMSU=  2.37D-06    CP:  1.34D+00  1.19D+00  9.79D-01  8.53D-01  1.14D+00
                    CP:  1.60D+00  1.40D+00  1.12D+00  1.46D+00  1.07D+00
                    CP:  1.32D+00  1.32D+00  9.47D-01
 E= -852.506367059243     Delta-E=       -0.000000010664 Rises=F Damp=F
 DIIS: error= 3.48D-06 at cycle  14 NSaved=  14.
 NSaved=14 IEnMin=14 EnMin= -852.506367059243     IErMin=14 ErrMin= 3.48D-06
 ErrMax= 3.48D-06  0.00D+00 EMaxC= 1.00D-01 BMatC= 4.66D-09 BMatP= 1.02D-08
 IDIUse=1 WtCom= 1.00D+00 WtEn= 0.00D+00
 Coeff-Com: -0.135D-04 0.499D-04 0.693D-03 0.110D-02-0.426D-03-0.832D-02
 Coeff-Com: -0.721D-02 0.636D-02 0.428D-01 0.354D-01-0.740D-01-0.355D+00
 Coeff-Com:  0.360D+00 0.998D+00
 Coeff:     -0.135D-04 0.499D-04 0.693D-03 0.110D-02-0.426D-03-0.832D-02
 Coeff:     -0.721D-02 0.636D-02 0.428D-01 0.354D-01-0.740D-01-0.355D+00
 Coeff:      0.360D+00 0.998D+00
 Gap=     0.214 Goal=   None    Shift=    0.000
 Gap=     0.185 Goal=   None    Shift=    0.000
 RMSDP=3.11D-06 MaxDP=1.88D-04 DE=-1.07D-08 OVMax= 5.53D-05

 Cycle  15  Pass 1  IDiag  1:
 RMSU=  1.33D-06    CP:  1.34D+00  1.19D+00  9.79D-01  8.53D-01  1.14D+00
                    CP:  1.60D+00  1.41D+00  1.12D+00  1.46D+00  1.07D+00
                    CP:  1.31D+00  1.34D+00  1.22D+00  1.13D+00
 E= -852.506367065331     Delta-E=       -0.000000006087 Rises=F Damp=F
 DIIS: error= 1.94D-06 at cycle  15 NSaved=  15.
 NSaved=15 IEnMin=15 EnMin= -852.506367065331     IErMin=15 ErrMin= 1.94D-06
 ErrMax= 1.94D-06  0.00D+00 EMaxC= 1.00D-01 BMatC= 1.49D-09 BMatP= 4.66D-09
 IDIUse=1 WtCom= 1.00D+00 WtEn= 0.00D+00
 Coeff-Com:  0.440D-05-0.150D-04 0.528D-03 0.126D-02 0.185D-02-0.135D-02
 Coeff-Com: -0.977D-02-0.154D-01 0.255D-01 0.739D-01-0.871D-02-0.276D+00
 Coeff-Com: -0.129D+00 0.423D+00 0.914D+00
 Coeff:      0.440D-05-0.150D-04 0.528D-03 0.126D-02 0.185D-02-0.135D-02
 Coeff:     -0.977D-02-0.154D-01 0.255D-01 0.739D-01-0.871D-02-0.276D+00
 Coeff:     -0.129D+00 0.423D+00 0.914D+00
 Gap=     0.214 Goal=   None    Shift=    0.000
 Gap=     0.185 Goal=   None    Shift=    0.000
 RMSDP=1.36D-06 MaxDP=6.06D-05 DE=-6.09D-09 OVMax= 3.24D-05

 Cycle  16  Pass 1  IDiag  1:
 RMSU=  7.46D-07    CP:  1.34D+00  1.19D+00  9.79D-01  8.53D-01  1.14D+00
                    CP:  1.61D+00  1.41D+00  1.13D+00  1.46D+00  1.06D+00
                    CP:  1.32D+00  1.40D+00  1.28D+00  1.46D+00  1.14D+00
 E= -852.506367067201     Delta-E=       -0.000000001870 Rises=F Damp=F
 DIIS: error= 9.42D-07 at cycle  16 NSaved=  16.
 NSaved=16 IEnMin=16 EnMin= -852.506367067201     IErMin=16 ErrMin= 9.42D-07
 ErrMax= 9.42D-07  0.00D+00 EMaxC= 1.00D-01 BMatC= 4.77D-10 BMatP= 1.49D-09
 IDIUse=1 WtCom= 1.00D+00 WtEn= 0.00D+00
 Coeff-Com:  0.782D-05-0.283D-04-0.729D-05 0.204D-03 0.115D-02 0.252D-02
 Coeff-Com: -0.186D-02-0.993D-02-0.498D-02 0.217D-01 0.235D-01 0.804D-02
 Coeff-Com: -0.204D+00-0.180D+00 0.459D+00 0.884D+00
 Coeff:      0.782D-05-0.283D-04-0.729D-05 0.204D-03 0.115D-02 0.252D-02
 Coeff:     -0.186D-02-0.993D-02-0.498D-02 0.217D-01 0.235D-01 0.804D-02
 Coeff:     -0.204D+00-0.180D+00 0.459D+00 0.884D+00
 Gap=     0.214 Goal=   None    Shift=    0.000
 Gap=     0.185 Goal=   None    Shift=    0.000
 RMSDP=8.13D-07 MaxDP=3.10D-05 DE=-1.87D-09 OVMax= 1.88D-05

 Cycle  17  Pass 1  IDiag  1:
 RMSU=  4.70D-07    CP:  1.34D+00  1.19D+00  9.79D-01  8.53D-01  1.14D+00
                    CP:  1.61D+00  1.41D+00  1.13D+00  1.47D+00  1.07D+00
                    CP:  1.31D+00  1.41D+00  1.33D+00  1.46D+00  1.42D+00
                    CP:  9.44D-01
 E= -852.506367067687     Delta-E=       -0.000000000487 Rises=F Damp=F
 DIIS: error= 4.06D-07 at cycle  17 NSaved=  17.
 NSaved=17 IEnMin=17 EnMin= -852.506367067687     IErMin=17 ErrMin= 4.06D-07
 ErrMax= 4.06D-07  0.00D+00 EMaxC= 1.00D-01 BMatC= 4.57D-11 BMatP= 4.77D-10
 IDIUse=1 WtCom= 1.00D+00 WtEn= 0.00D+00
 Coeff-Com:  0.121D-05-0.436D-05-0.950D-04-0.170D-03-0.484D-04 0.757D-03
 Coeff-Com:  0.123D-02 0.354D-03-0.544D-02-0.731D-02 0.659D-02 0.477D-01
 Coeff-Com: -0.300D-01-0.111D+00-0.441D-01 0.225D+00 0.917D+00
 Coeff:      0.121D-05-0.436D-05-0.950D-04-0.170D-03-0.484D-04 0.757D-03
 Coeff:      0.123D-02 0.354D-03-0.544D-02-0.731D-02 0.659D-02 0.477D-01
 Coeff:     -0.300D-01-0.111D+00-0.441D-01 0.225D+00 0.917D+00
 Gap=     0.214 Goal=   None    Shift=    0.000
 Gap=     0.185 Goal=   None    Shift=    0.000
 RMSDP=4.84D-07 MaxDP=3.81D-05 DE=-4.87D-10 OVMax= 5.95D-06

 Cycle  18  Pass 1  IDiag  1:
 RMSU=  1.67D-07    CP:  1.34D+00  1.19D+00  9.79D-01  8.53D-01  1.14D+00
                    CP:  1.60D+00  1.41D+00  1.13D+00  1.46D+00  1.07D+00
                    CP:  1.32D+00  1.42D+00  1.33D+00  1.50D+00  1.39D+00
                    CP:  1.02D+00  8.83D-01
 E= -852.506367067708     Delta-E=       -0.000000000020 Rises=F Damp=F
 DIIS: error= 2.16D-07 at cycle  18 NSaved=  18.
 NSaved=18 IEnMin=18 EnMin= -852.506367067708     IErMin=18 ErrMin= 2.16D-07
 ErrMax= 2.16D-07  0.00D+00 EMaxC= 1.00D-01 BMatC= 1.12D-11 BMatP= 4.57D-11
 IDIUse=1 WtCom= 1.00D+00 WtEn= 0.00D+00
 Coeff-Com: -0.602D-06 0.226D-05-0.368D-04-0.936D-04-0.185D-03-0.468D-04
 Coeff-Com:  0.745D-03 0.157D-02-0.150D-02-0.605D-02-0.108D-02 0.177D-01
 Coeff-Com:  0.190D-01-0.165D-01-0.846D-01-0.449D-01 0.346D+00 0.770D+00
 Coeff:     -0.602D-06 0.226D-05-0.368D-04-0.936D-04-0.185D-03-0.468D-04
 Coeff:      0.745D-03 0.157D-02-0.150D-02-0.605D-02-0.108D-02 0.177D-01
 Coeff:      0.190D-01-0.165D-01-0.846D-01-0.449D-01 0.346D+00 0.770D+00
 Gap=     0.214 Goal=   None    Shift=    0.000
 Gap=     0.185 Goal=   None    Shift=    0.000
 RMSDP=1.50D-07 MaxDP=1.24D-05 DE=-2.05D-11 OVMax= 1.82D-06

 Cycle  19  Pass 1  IDiag  1:
 RMSU=  5.32D-08    CP:  1.34D+00  1.19D+00  9.79D-01  8.53D-01  1.14D+00
                    CP:  1.60D+00  1.41D+00  1.12D+00  1.46D+00  1.07D+00
                    CP:  1.32D+00  1.42D+00  1.33D+00  1.49D+00  1.38D+00
                    CP:  1.01D+00  9.33D-01  1.03D+00
 E= -852.506367067761     Delta-E=       -0.000000000053 Rises=F Damp=F
 DIIS: error= 1.21D-07 at cycle  19 NSaved=  19.
 NSaved=19 IEnMin=19 EnMin= -852.506367067761     IErMin=19 ErrMin= 1.21D-07
 ErrMax= 1.21D-07  0.00D+00 EMaxC= 1.00D-01 BMatC= 2.38D-12 BMatP= 1.12D-11
 IDIUse=1 WtCom= 1.00D+00 WtEn= 0.00D+00
 Coeff-Com: -0.409D-06 0.149D-05 0.168D-04 0.255D-04-0.305D-04-0.211D-03
 Coeff-Com: -0.161D-03 0.238D-03 0.104D-02 0.744D-03-0.201D-02-0.842D-02
 Coeff-Com:  0.111D-01 0.233D-01-0.508D-02-0.643D-01-0.150D+00 0.160D+00
 Coeff-Com:  0.103D+01
 Coeff:     -0.409D-06 0.149D-05 0.168D-04 0.255D-04-0.305D-04-0.211D-03
 Coeff:     -0.161D-03 0.238D-03 0.104D-02 0.744D-03-0.201D-02-0.842D-02
 Coeff:      0.111D-01 0.233D-01-0.508D-02-0.643D-01-0.150D+00 0.160D+00
 Coeff:      0.103D+01
 Gap=     0.214 Goal=   None    Shift=    0.000
 Gap=     0.185 Goal=   None    Shift=    0.000
 RMSDP=5.48D-08 MaxDP=3.96D-06 DE=-5.32D-11 OVMax= 1.28D-06

 Cycle  20  Pass 1  IDiag  1:
 RMSU=  2.79D-08    CP:  1.34D+00  1.19D+00  9.79D-01  8.53D-01  1.14D+00
                    CP:  1.60D+00  1.41D+00  1.12D+00  1.46D+00  1.07D+00
                    CP:  1.32D+00  1.42D+00  1.33D+00  1.48D+00  1.37D+00
                    CP:  9.96D-01  9.28D-01  1.10D+00  1.11D+00
 E= -852.506367067776     Delta-E=       -0.000000000015 Rises=F Damp=F
 DIIS: error= 6.38D-08 at cycle  20 NSaved=  20.
 NSaved=20 IEnMin=20 EnMin= -852.506367067776     IErMin=20 ErrMin= 6.38D-08
 ErrMax= 6.38D-08  0.00D+00 EMaxC= 1.00D-01 BMatC= 7.81D-13 BMatP= 2.38D-12
 IDIUse=1 WtCom= 1.00D+00 WtEn= 0.00D+00
 Coeff-Com:  0.531D-08-0.396D-07 0.133D-04 0.284D-04 0.333D-04-0.512D-04
[...]
    31  C    2.786051   2.787813   1.544205   2.177314   2.177323
    32  H    3.143216   2.596483   2.190080   2.535918   3.094281
    33  H    2.594588   3.146149   2.189970   3.094191   2.535465
    34  C    5.709682   5.716005   5.750213   5.553485   5.543733
    35  H   11.286934  11.324496  12.780990  12.982028  12.947732
    36  H    3.795426   3.796565   2.196246   2.522226   2.522642
    37  C    6.828291   6.832760   6.538910   6.216325   6.207929
    38  C    8.121118   8.127787   7.943073   7.619872   7.609333
    39  C    9.251262   9.256335   8.859171   8.462158   8.453106
    40  C    9.287243   9.288977   8.594397   8.125731   8.120206
    41  C    8.190932   8.190035   7.326010   6.836240   6.833751
    42  C    6.883856   6.883821   6.179241   5.752683   5.749109
    43  H   10.284524  10.285526   9.492132   8.990608   8.985953
    44  H    8.470283   8.466584   7.364869   6.824186   6.825304
    45  H    8.343366   8.352681   8.417066   8.158680   8.145865
    46  H    6.065049   6.061979   5.176841   4.733992   4.734252
    47  H   10.227112  10.233480   9.915322   9.526138   9.515826
                   31         32         33         34         35
    31  C    0.000000
    32  H    1.099613   0.000000
    33  H    1.099610   1.778187   0.000000
    34  C    7.286011   7.700842   7.693713   0.000000
    35  H   13.891941  13.898013  13.866232   9.120513   0.000000
    36  H    1.098369   1.778247   1.778399   7.839751  14.879045
    37  C    8.079231   8.564300   8.557998   1.436816  10.029116
    38  C    9.485444   9.953835   9.945561   2.476232   9.707717
    39  C   10.382196  10.895153  10.887841   3.758500  10.828816
    40  C   10.064255  10.630571  10.625989   4.262032  12.117236
    41  C    8.761502   9.352417   9.350217   3.758848  12.379833
    42  C    7.670011   8.229402   8.226592   2.476660  11.418168
    43  H   10.927793  11.512625  11.508590   5.350027  12.995897
    44  H    8.710005   9.337243   9.337617   4.632183  13.428508
    45  H    9.958328  10.375203  10.364985   2.690038   8.694666
    46  H    6.640409   7.224842   7.224686   2.691004  11.811144
    47  H   11.444152  11.944150  11.935653   4.631744  10.788659
                   36         37         38         39         40
    36  H    0.000000
    37  C    8.477217   0.000000
    38  C    9.893574   1.416417   0.000000
    39  C   10.674641   2.443780   1.401987   0.000000
    40  C   10.216010   2.825216   2.435940   1.406358   0.000000
    41  C    8.860883   2.443921   2.812253   2.433057   1.406410
    42  C    7.893964   1.416407   2.442351   2.811924   2.435737
    43  H   11.006454   3.913212   3.421083   2.167292   1.087995
    44  H    8.673725   3.427273   3.900258   3.420177   2.166941
    45  H   10.462324   2.166003   1.087525   2.167721   3.424342
    46  H    6.823776   2.166139   3.425158   3.899392   3.423949
    47  H   11.754321   3.427130   2.157967   1.087987   2.166783
                   41         42         43         44         45
    41  C    0.000000
    42  C    1.401911   0.000000
    43  H    2.167307   3.420903   0.000000
    44  H    1.088006   2.157980   2.497622   0.000000
    45  H    3.899752   3.425079   4.323492   4.987751   0.000000
    46  H    2.167273   1.087492   4.323060   2.492169   4.319101
    47  H    3.420108   3.899910   2.497463   4.321165   2.492699
                   46         47
    46  H    0.000000
    47  H    4.987373   0.000000
 Stoichiometry    C22H25(2)
 Framework group  C1[X(C22H25)]
 Deg. of freedom   135
 Full point group                 C1      NOp   1
 RotChk:  IX=0 Diff= 2.59D-15
 Largest Abelian subgroup         C1      NOp   1
 Largest concise Abelian subgroup C1      NOp   1
                         Standard orientation:                         
 ---------------------------------------------------------------------
 Center     Atomic      Atomic             Coordinates (Angstroms)
 Number     Number       Type             X           Y           Z
 ---------------------------------------------------------------------
      1          6           0       -0.568470   -0.516310   -0.011771
      2          6           0        2.456165    2.354708   -0.037632
      3          6           0        2.869903    1.022652   -0.038057
      4          6           0        1.815615    0.084617   -0.027965
      5          6           0        0.456403    0.491846   -0.018895
      6          6           0        0.101095    1.871846   -0.017360
      7          6           0        1.151854    2.820190   -0.027510
      8          1           0        2.029775   -0.981458   -0.026661
      9          1           0        0.933449    3.884586   -0.026811
     10          6           0        4.349074    0.643853   -0.050707
     11          1           0        4.841708    1.141922    0.799675
     12          1           0        4.808816    1.064019   -0.959897
     13          6           0        4.650385   -0.868122    0.010460
     14          1           0        4.199857   -1.301864    0.917935
     15          1           0        4.192044   -1.377270   -0.852756
     16          6           0        6.169268   -1.154730    0.014715
     17          1           0        6.622156   -0.722767   -0.892087
     18          1           0        6.631466   -0.643561    0.874377
     19          6           0        6.481854   -2.665556    0.080628
     20          1           0        6.049269   -3.190758   -0.783148
     21          1           0        6.059938   -3.110775    0.993245
     22          6           0       -1.367212    2.281341   -0.003681
     23          1           0       -1.862634    1.833512   -0.881270
     24          1           0       -1.848440    1.822346    0.875954
     25          6           0       -1.640050    3.799253    0.009164
     26          1           0       -1.166408    4.257616    0.892457
     27          1           0       -1.189862    4.269528   -0.880070
     28          6           0       -3.153346    4.113181    0.031270
     29          1           0       -3.630572    3.656827   -0.850724
     30          1           0       -3.607397    3.641598    0.917470
     31          6           0       -3.438803    5.630680    0.048066
     32          1           0       -3.014222    6.116689   -0.842258
     33          1           0       -2.991674    6.101097    0.935717
     34          6           0       -1.435241   -1.374216   -0.007911
     35          1           0        7.564785   -2.849056    0.082289
     36          1           0       -4.518160    5.833574    0.063379
     37          6           0       -2.453355   -2.388056   -0.004408
     38          6           0       -2.099739   -3.759621   -0.004963
     39          6           0       -3.096296   -4.745742   -0.002484
     40          6           0       -4.454810   -4.382047    0.000536
     41          6           0       -4.813572   -3.022165    0.001194
     42          6           0       -3.823627   -2.029512   -0.001229
     43          1           0       -5.225556   -5.149954    0.002305
     44          1           0       -5.863008   -2.735049    0.003482
     45          1           0       -1.047983   -4.036232   -0.007434
     46          1           0       -4.096739   -0.976873   -0.000904
     47          1           0       -2.813170   -5.796244   -0.003016
 ---------------------------------------------------------------------
 Rotational constants (GHZ):      0.2109188      0.1466245      0.0868786
 Leave Link  202 at Fri May 10 17:07:55 2024, MaxMem=    33554432 cpu:         0.1
 (Enter /hits/basement/its/doserbd/software/gaussian/g09d1/g09/l301.exe)
 Standard basis: 6-31+G (6D, 7F)
 Ernie: Thresh=  0.10000D-02 Tol=  0.10000D-05 Strict=F.
 There are   336 symmetry adapted cartesian basis functions of A   symmetry.
 There are   336 symmetry adapted basis functions of A   symmetry.
   336 basis functions,   672 primitive gaussians,   336 cartesian basis functions
    79 alpha electrons       78 beta electrons
       nuclear repulsion energy      1520.2883859983 Hartrees.
 IExCor= 3226 DFT=T Ex+Corr=BMK ExCW=0 ScaHFX=  0.420000
 ScaDFX=  1.000000  1.000000  1.000000  1.000000 ScalE2=  1.000000  1.000000
 IRadAn=      0 IRanWt=     -1 IRanGd=            0 ICorTp=0 IEmpDi=  4
 NAtoms=   47 NActive=   47 NUniq=   47 SFac= 1.00D+00 NAtFMM=   60 NAOKFM=F Big=F
 Integral buffers will be    131072 words long.
 Raffenetti 2 integral format.
 Two-electron integral symmetry is turned on.
 Leave Link  301 at Fri May 10 17:07:55 2024, MaxMem=    33554432 cpu:         0.3
 (Enter /hits/basement/its/doserbd/software/gaussian/g09d1/g09/l302.exe)
 NPDir=0 NMtPBC=     1 NCelOv=     1 NCel=       1 NClECP=     1 NCelD=      1
         NCelK=      1 NCelE2=     1 NClLst=     1 CellRange=     0.0.
 One-electron integrals computed using PRISM.
 NBasis=   336 RedAO= T EigKep=  1.42D-06  NBF=   336
 NBsUse=   328 1.00D-06 EigRej=  9.17D-07 NBFU=   328
 Precomputing XC quadrature grid using
 IXCGrd= 4 IRadAn=           0 IRanWt=          -1 IRanGd=           0 AccXCQ= 0.00D+00.
 Generated NRdTot=       0 NPtTot=           0 NUsed=           0 NTot=          32
 NSgBfM=   327   327   328   328   329 MxSgAt=    47 MxSgA2=    47.
 Leave Link  302 at Fri May 10 17:07:56 2024, MaxMem=    33554432 cpu:         3.0
 (Enter /hits/basement/its/doserbd/software/gaussian/g09d1/g09/l303.exe)
 DipDrv:  MaxL=1.
 Leave Link  303 at Fri May 10 17:07:56 2024, MaxMem=    33554432 cpu:         0.3
 (Enter /hits/basement/its/doserbd/software/gaussian/g09d1/g09/l401.exe)
 Initial guess from the checkpoint file:  "g09BDE.chk"
 B after Tr=     0.000000    0.000000    0.000000
         Rot=    1.000000    0.000000    0.000000    0.000000 Ang=   0.00 deg.
 Guess basis will be translated and rotated to current coordinates.
 JPrj=2 DoOrth=T DoCkMO=T.
 Initial guess <Sx>= 0.0000 <Sy>= 0.0000 <Sz>= 0.5000 <S**2>= 0.7629 S= 0.5064
 Leave Link  401 at Fri May 10 17:07:57 2024, MaxMem=    33554432 cpu:         2.9
 (Enter /hits/basement/its/doserbd/software/gaussian/g09d1/g09/l502.exe)
 UHF open shell SCF:
 Using DIIS extrapolation, IDIIS=  1040.
 Integral symmetry usage will be decided dynamically.
 IVT=      362510 IEndB=      362510 NGot=    33554432 MDV=    33321795
 LenX=    33321795 LenY=    33208458
 Requested convergence on RMS density matrix=1.00D-08 within 128 cycles.
 Requested convergence on MAX density matrix=1.00D-06.
 Requested convergence on             energy=1.00D-06.
 No special actions if energy rises.
 Fock matrices will be formed incrementally for  20 cycles.

 Cycle   1  Pass 1  IDiag  1:
 FoFJK:  IHMeth= 1 ICntrl=       0 DoSepK=F KAlg= 0 I1Cent=   0 FoldK=F
 IRaf= 710000000 NMat=   1 IRICut=       1 DoRegI=T DoRafI=F ISym2E= 0.
 FoFCou: FMM=F IPFlag=           0 FMFlag=      100000 FMFlg1=           0
         NFxFlg=           0 DoJE=F BraDBF=F KetDBF=F FulRan=T
         wScrn=  0.000000 ICntrl=       0 IOpCl=  1 I1Cent=           0 NGrid=           0
         NMat0=    1 NMatS0=      1 NMatT0=    0 NMatD0=    1 NMtDS0=    0 NMtDT0=    0
 Symmetry not used in FoFCou.
 E= -852.507887985675    
 DIIS: error= 1.78D-09 at cycle   1 NSaved=   1.
 NSaved= 1 IEnMin= 1 EnMin= -852.507887985675     IErMin= 1 ErrMin= 1.78D-09
 ErrMax= 1.78D-09  0.00D+00 EMaxC= 1.00D-01 BMatC= 2.79D-15 BMatP= 2.79D-15
 IDIUse=1 WtCom= 1.00D+00 WtEn= 0.00D+00
 Coeff-Com:  0.100D+01
 Coeff:      0.100D+01
 Gap=     0.214 Goal=   None    Shift=    0.000
 Gap=     0.184 Goal=   None    Shift=    0.000
 RMSDP=2.70D-08 MaxDP=2.64D-06              OVMax= 2.54D-08

 Cycle   2  Pass 1  IDiag  1:
 RMSU=  1.77D-08    CP:  1.00D+00
 E= -852.507887985667     Delta-E=        0.000000000009 Rises=F Damp=F
 DIIS: error= 2.56D-09 at cycle   2 NSaved=   2.
 NSaved= 2 IEnMin= 1 EnMin= -852.507887985675     IErMin= 1 ErrMin= 1.78D-09
 ErrMax= 2.56D-09  0.00D+00 EMaxC= 1.00D-01 BMatC= 3.48D-15 BMatP= 2.79D-15
 IDIUse=1 WtCom= 1.00D+00 WtEn= 0.00D+00
 Coeff-Com:  0.531D+00 0.469D+00
 Coeff:      0.531D+00 0.469D+00
 Gap=     0.214 Goal=   None    Shift=    0.000
 Gap=     0.184 Goal=   None    Shift=    0.000
 RMSDP=2.47D-09 MaxDP=1.37D-07 DE= 8.64D-12 OVMax= 1.14D-08

 SCF Done:  E(UBMK) =  -852.507887986     A.U. after    2 cycles
            NFock=  2  Conv=0.25D-08     -V/T= 2.0062
 <Sx>= 0.0000 <Sy>= 0.0000 <Sz>= 0.5000 <S**2>= 0.7629 S= 0.5064
 <L.S>= 0.000000000000E+00
 KE= 8.472634880551D+02 PE=-5.014457253260D+03 EE= 1.794397491221D+03
 Annihilation of the first spin contaminant:
 S**2 before annihilation     0.7629,   after     0.7501
 Leave Link  502 at Fri May 10 17:08:13 2024, MaxMem=    33554432 cpu:       130.4
 (Enter /hits/basement/its/doserbd/software/gaussian/g09d1/g09/l801.exe)
 DoSCS=F DFT=T ScalE2(SS,OS)=  1.000000  1.000000
 Range of M.O.s used for correlation:     1   328
 NBasis=   336 NAE=    79 NBE=    78 NFC=     0 NFV=     0
 NROrb=    328 NOA=    79 NOB=    78 NVA=   249 NVB=   250

 **** Warning!!: The largest alpha MO coefficient is  0.13778400D+03


 **** Warning!!: The largest beta MO coefficient is  0.13104078D+03

 Leave Link  801 at Fri May 10 17:08:13 2024, MaxMem=    33554432 cpu:         0.2
 (Enter /hits/basement/its/doserbd/software/gaussian/g09d1/g09/l1101.exe)
 Using compressed storage, NAtomX=    47.
 Will process     48 centers per pass.
 PrsmSu:  requested number of processors reduced to:   3 ShMem   1 Linda.
 Leave Link 1101 at Fri May 10 17:08:14 2024, MaxMem=    33554432 cpu:         3.2
 (Enter /hits/basement/its/doserbd/software/gaussian/g09d1/g09/l1102.exe)
 Symmetrizing basis deriv contribution to polar:
 IMax=3 JMax=2 DiffMx= 0.00D+00
 Leave Link 1102 at Fri May 10 17:08:14 2024, MaxMem=    33554432 cpu:         0.3
 (Enter /hits/basement/its/doserbd/software/gaussian/g09d1/g09/l1110.exe)
 Forming Gx(P) for the SCF density, NAtomX=    47.
 Integral derivatives from FoFJK, PRISM(SPDF).
 Do as many integral derivatives as possible in FoFJK.
 G2DrvN: MDV=      33553952.
 G2DrvN: will do     5 centers at a time, making   10 passes.
 G2DrvN:  IPasSy=1 do centers    0 through    4.
 Calling FoFCou, ICntrl=  3107 FMM=F I1Cent=   0 AccDes= 0.00D+00.
 FoFJK:  IHMeth= 1 ICntrl=    3107 DoSepK=F KAlg= 0 I1Cent=   0 FoldK=F
 IRaf=         0 NMat=   1 IRICut=       1 DoRegI=T DoRafI=F ISym2E= 0.
 FoFCou: FMM=F IPFlag=           0 FMFlag=      100000 FMFlg1=           0
         NFxFlg=           0 DoJE=F BraDBF=F KetDBF=F FulRan=T
         wScrn=  0.000000 ICntrl=    3107 IOpCl=  1 I1Cent=           0 NGrid=           0
         NMat0=    1 NMatS0=      1 NMatT0=    0 NMatD0=    1 NMtDS0=    0 NMtDT0=    0
 Symmetry not used in FoFCou.
 G2DrvN:  IPasSy=1 do centers    5 through    9.
 Calling FoFCou, ICntrl=  3107 FMM=F I1Cent=   0 AccDes= 0.00D+00.
 G2DrvN:  IPasSy=1 do centers   10 through   14.
 Calling FoFCou, ICntrl=  3107 FMM=F I1Cent=   0 AccDes= 0.00D+00.
 G2DrvN:  IPasSy=1 do centers   15 through   19.
 Calling FoFCou, ICntrl=  3107 FMM=F I1Cent=   0 AccDes= 0.00D+00.
 G2DrvN:  IPasSy=1 do centers   20 through   24.
 Calling FoFCou, ICntrl=  3107 FMM=F I1Cent=   0 AccDes= 0.00D+00.
 G2DrvN:  IPasSy=1 do centers   25 through   29.
 Calling FoFCou, ICntrl=  3107 FMM=F I1Cent=   0 AccDes= 0.00D+00.
 G2DrvN:  IPasSy=1 do centers   30 through   34.
 Calling FoFCou, ICntrl=  3107 FMM=F I1Cent=   0 AccDes= 0.00D+00.
 G2DrvN:  IPasSy=1 do centers   35 through   39.
 Calling FoFCou, ICntrl=  3107 FMM=F I1Cent=   0 AccDes= 0.00D+00.
 G2DrvN:  IPasSy=1 do centers   40 through   44.
 Calling FoFCou, ICntrl=  3107 FMM=F I1Cent=   0 AccDes= 0.00D+00.
 G2DrvN:  IPasSy=1 do centers   45 through   47.
 Calling FoFCou, ICntrl=  3107 FMM=F I1Cent=   0 AccDes= 0.00D+00.
 End of G2Drv F.D. properties file   721 does not exist.
 End of G2Drv F.D. properties file   722 does not exist.
 End of G2Drv F.D. properties file   788 does not exist.
 Leave Link 1110 at Fri May 10 17:16:42 2024, MaxMem=    33554432 cpu:      4045.7
 (Enter /hits/basement/its/doserbd/software/gaussian/g09d1/g09/l1002.exe)
 Minotr:  UHF open shell wavefunction.
          IDoAtm=11111111111111111111111111111111111111111111111
          Direct CPHF calculation.
          Differentiating once with respect to electric field.
                with respect to dipole field.
          Differentiating once with respect to nuclear coordinates.
          Requested convergence is 1.0D-08 RMS, and 1.0D-07 maximum.
          Secondary convergence is 1.0D-12 RMS, and 1.0D-12 maximum.
          NewPWx=T KeepS1=F KeepF1=F KeepIn=T MapXYZ=F SortEE=F KeepMc=T.
          MDV=      33553302 using IRadAn=       2.
 Generate precomputed XC quadrature information.
          Solving linear equations simultaneously, MaxMat=       0.
 FoFJK:  IHMeth= 1 ICntrl=       0 DoSepK=F KAlg= 0 I1Cent=   0 FoldK=F
 IRaf= 710000000 NMat=  24 IRICut=       1 DoRegI=T DoRafI=F ISym2E= 2.
 FoFCou: FMM=F IPFlag=           0 FMFlag=      100000 FMFlg1=           0
         NFxFlg=           0 DoJE=F BraDBF=F KetDBF=F FulRan=T
         wScrn=  0.000000 ICntrl=       0 IOpCl=  1 I1Cent=           0 NGrid=           0
         NMat0=   24 NMatS0=     24 NMatT0=    0 NMatD0=   24 NMtDS0=    0 NMtDT0=    0
 Integrals replicated using symmetry in FoFCou.
 CalDSu:  requested number of processors reduced to:   6 ShMem   1 Linda.
 CalDSu:  requested number of processors reduced to:   6 ShMem   1 Linda.
 CalDSu:  requested number of processors reduced to:   6 ShMem   1 Linda.
 CalDSu:  requested number of processors reduced to:   6 ShMem   1 Linda.
 CalDSu:  requested number of processors reduced to:   6 ShMem   1 Linda.
 CalDSu:  requested number of processors reduced to:   6 ShMem   1 Linda.
          There are   144 degrees of freedom in the 1st order CPHF.  IDoFFX=6 NUNeed=     3.
    144 vectors produced by pass  0 Test12= 3.92D-14 1.00D-09 XBig12= 5.24D+02 9.11D+00.
 AX will form    24 AO Fock derivatives at one time.
 CalDSu:  requested number of processors reduced to:   6 ShMem   1 Linda.
 CalDSu:  requested number of processors reduced to:   6 ShMem   1 Linda.
 CalDSu:  requested number of processors reduced to:   6 ShMem   1 Linda.
 CalDSu:  requested number of processors reduced to:   6 ShMem   1 Linda.
 CalDSu:  requested number of processors reduced to:   6 ShMem   1 Linda.
 CalDSu:  requested number of processors reduced to:   6 ShMem   1 Linda.
    144 vectors produced by pass  1 Test12= 3.92D-14 1.00D-09 XBig12= 7.77D+01 1.02D+00.
 CalDSu:  requested number of processors reduced to:   6 ShMem   1 Linda.
 CalDSu:  requested number of processors reduced to:   6 ShMem   1 Linda.
 CalDSu:  requested number of processors reduced to:   6 ShMem   1 Linda.
 CalDSu:  requested number of processors reduced to:   6 ShMem   1 Linda.
 CalDSu:  requested number of processors reduced to:   6 ShMem   1 Linda.
 CalDSu:  requested number of processors reduced to:   6 ShMem   1 Linda.
    143 vectors produced by pass  2 Test12= 3.92D-14 1.00D-09 XBig12= 1.34D+00 1.86D-01.
 CalDSu:  requested number of processors reduced to:   6 ShMem   1 Linda.
 CalDSu:  requested number of processors reduced to:   6 ShMem   1 Linda.
 CalDSu:  requested number of processors reduced to:   6 ShMem   1 Linda.
 CalDSu:  requested number of processors reduced to:   6 ShMem   1 Linda.
 CalDSu:  requested number of processors reduced to:   6 ShMem   1 Linda.
 CalDSu:  requested number of processors reduced to:   7 ShMem   1 Linda.
    141 vectors produced by pass  3 Test12= 3.92D-14 1.00D-09 XBig12= 8.25D-03 1.78D-02.
 CalDSu:  requested number of processors reduced to:   6 ShMem   1 Linda.
 CalDSu:  requested number of processors reduced to:   6 ShMem   1 Linda.
 CalDSu:  requested number of processors reduced to:   6 ShMem   1 Linda.
 CalDSu:  requested number of processors reduced to:   6 ShMem   1 Linda.
 CalDSu:  requested number of processors reduced to:   6 ShMem   1 Linda.
 CalDSu:  requested number of processors reduced to:   7 ShMem   1 Linda.
