
                                 *****************
                                 * O   R   C   A *
                                 *****************

                                            #,                                       
                                            ###                                      
                                            ####                                     
                                            #####                                    
                                            ######                                   
                                           ########,                                 
                                     ,,################,,,,,                         
                               ,,#################################,,                 
                          ,,##########################################,,             
                       ,#########################################, ''#####,          
                    ,#############################################,,   '####,        
                  ,##################################################,,,,####,       
                ,###########''''           ''''###############################       
              ,#####''   ,,,,##########,,,,          '''####'''          '####       
            ,##' ,,,,###########################,,,                        '##       
           ' ,,###''''                  '''############,,,                           
         ,,##''                                '''############,,,,        ,,,,,,###''
      ,#''                                            '''#######################'''  
     '                                                          ''''####''''         
             ,#######,   #######,   ,#######,      ##                                
            ,#'     '#,  ##    ##  ,#'     '#,    #''#        ######   ,####,        
            ##       ##  ##   ,#'  ##            #'  '#       #        #'  '#        
            ##       ##  #######   ##           ,######,      #####,   #    #        
            '#,     ,#'  ##    ##  '#,     ,#' ,#      #,         ##   #,  ,#        
             '#######'   ##     ##  '#######'  #'      '#     #####' # '####'        



                  #######################################################
                  #                        -***-                        #
                  #          Department of theory and spectroscopy      #
                  #    Directorship and core code : Frank Neese         #
                  #        Max Planck Institute fuer Kohlenforschung    #
                  #                Kaiser Wilhelm Platz 1               #
                  #                 D-45470 Muelheim/Ruhr               #
                  #                      Germany                        #
                  #                                                     #
                  #                  All rights reserved                #
                  #                        -***-                        #
                  #######################################################


                         Program Version 5.0.4 -  RELEASE  -


 With contributions from (in alphabetic order):
   Daniel Aravena         : Magnetic Suceptibility
   Michael Atanasov       : Ab Initio Ligand Field Theory (pilot matlab implementation)
   Alexander A. Auer      : GIAO ZORA, VPT2 properties, NMR spectrum
   Ute Becker             : Parallelization
   Giovanni Bistoni       : ED, misc. LED, open-shell LED, HFLD
   Martin Brehm           : Molecular dynamics
   Dmytro Bykov           : SCF Hessian
   Vijay G. Chilkuri      : MRCI spin determinant printing, contributions to CSF-ICE
   Dipayan Datta          : RHF DLPNO-CCSD density
   Achintya Kumar Dutta   : EOM-CC, STEOM-CC
   Dmitry Ganyushin       : Spin-Orbit,Spin-Spin,Magnetic field MRCI
   Miquel Garcia          : C-PCM and meta-GGA Hessian, CC/C-PCM, Gaussian charge scheme
   Yang Guo               : DLPNO-NEVPT2, F12-NEVPT2, CIM, IAO-localization
   Andreas Hansen         : Spin unrestricted coupled pair/coupled cluster methods
   Benjamin Helmich-Paris : MC-RPA, TRAH-SCF, COSX integrals
   Lee Huntington         : MR-EOM, pCC
   Robert Izsak           : Overlap fitted RIJCOSX, COSX-SCS-MP3, EOM
   Marcus Kettner         : VPT2
   Christian Kollmar      : KDIIS, OOCD, Brueckner-CCSD(T), CCSD density, CASPT2, CASPT2-K
   Simone Kossmann        : Meta GGA functionals, TD-DFT gradient, OOMP2, MP2 Hessian
   Martin Krupicka        : Initial AUTO-CI
   Lucas Lang             : DCDCAS
   Marvin Lechner         : AUTO-CI (C++ implementation), FIC-MRCC
   Dagmar Lenk            : GEPOL surface, SMD
   Dimitrios Liakos       : Extrapolation schemes; Compound Job, initial MDCI parallelization
   Dimitrios Manganas     : Further ROCIS development; embedding schemes
   Dimitrios Pantazis     : SARC Basis sets
   Anastasios Papadopoulos: AUTO-CI, single reference methods and gradients
   Taras Petrenko         : DFT Hessian,TD-DFT gradient, ASA, ECA, R-Raman, ABS, FL, XAS/XES, NRVS
   Peter Pinski           : DLPNO-MP2, DLPNO-MP2 Gradient
   Christoph Reimann      : Effective Core Potentials
   Marius Retegan         : Local ZFS, SOC
   Christoph Riplinger    : Optimizer, TS searches, QM/MM, DLPNO-CCSD(T), (RO)-DLPNO pert. Triples
   Tobias Risthaus        : Range-separated hybrids, TD-DFT gradient, RPA, STAB
   Michael Roemelt        : Original ROCIS implementation
   Masaaki Saitow         : Open-shell DLPNO-CCSD energy and density
   Barbara Sandhoefer     : DKH picture change effects
   Avijit Sen             : IP-ROCIS
   Kantharuban Sivalingam : CASSCF convergence, NEVPT2, FIC-MRCI
   Bernardo de Souza      : ESD, SOC TD-DFT
   Georgi Stoychev        : AutoAux, RI-MP2 NMR, DLPNO-MP2 response
   Willem Van den Heuvel  : Paramagnetic NMR
   Boris Wezisla          : Elementary symmetry handling
   Frank Wennmohs         : Technical directorship


 We gratefully acknowledge several colleagues who have allowed us to
 interface, adapt or use parts of their codes:
   Stefan Grimme, W. Hujo, H. Kruse, P. Pracht,  : VdW corrections, initial TS optimization,
                  C. Bannwarth, S. Ehlert          DFT functionals, gCP, sTDA/sTD-DF
   Ed Valeev, F. Pavosevic, A. Kumar             : LibInt (2-el integral package), F12 methods
   Garnet Chan, S. Sharma, J. Yang, R. Olivares  : DMRG
   Ulf Ekstrom                                   : XCFun DFT Library
   Mihaly Kallay                                 : mrcc  (arbitrary order and MRCC methods)
   Jiri Pittner, Ondrej Demel                    : Mk-CCSD
   Frank Weinhold                                : gennbo (NPA and NBO analysis)
   Christopher J. Cramer and Donald G. Truhlar   : smd solvation model
   Lars Goerigk                                  : TD-DFT with DH, B97 family of functionals
   V. Asgeirsson, H. Jonsson                     : NEB implementation
   FAccTs GmbH                                   : IRC, NEB, NEB-TS, DLPNO-Multilevel, CI-OPT
                                                   MM, QMMM, 2- and 3-layer-ONIOM, Crystal-QMMM,
                                                   LR-CPCM, SF, NACMEs, symmetry and pop. for TD-DFT,
                                                   nearIR, NL-DFT gradient (VV10), updates on ESD,
                                                   ML-optimized integration grids
   S Lehtola, MJT Oliveira, MAL Marques          : LibXC Library
   Liviu Ungur et al                             : ANISO software


 Your calculation uses the libint2 library for the computation of 2-el integrals
 For citations please refer to: http://libint.valeyev.net

 Your ORCA version has been built with support for libXC version: 5.1.0
 For citations please refer to: https://tddft.org/programs/libxc/

 This ORCA versions uses:
   CBLAS   interface :  Fast vector & matrix operations
   LAPACKE interface :  Fast linear algebra routines
   SCALAPACK package :  Parallel linear algebra routines
   Shared memory     :  Shared parallel matrices
   BLAS/LAPACK       :  OpenBLAS 0.3.15  USE64BITINT DYNAMIC_ARCH NO_AFFINITY SkylakeX SINGLE_THREADED
        Core in use  :  SkylakeX
   Copyright (c) 2011-2014, The OpenBLAS Project




***************************************
The coordinates will be read from file: opt_cc-pVDZ.xyz
***************************************


================================================================================

----- Orbital basis set information -----
Your calculation utilizes the basis: cc-pVDZ 
       H, B-Ne : Obtained from the ccRepo (grant-hill.group.shef.ac.uk/ccrepo) Feb. 2017
                 T. H. Dunning, Jr., J. Chem. Phys. 90, 1007 (1989)
            He : Obtained from the ccRepo (grant-hill.group.shef.ac.uk/ccrepo) Feb. 2017
                 D. E. Woon, T. H. Dunning, Jr., J. Chem. Phys. 100, 2975 (1994)
  Li-Be, Na-Mg : Obtained from the ccRepo (grant-hill.group.shef.ac.uk/ccrepo) Feb. 2017
                 B. P. Prascher, D. E. Woon, K. A. Peterson, T. H. Dunning, Jr., A. K. Wilson, Theor. Chem. Acc. 128, 69 (2011)
         Al-Ar : Obtained from the ccRepo (grant-hill.group.shef.ac.uk/ccrepo) Feb. 2017
                 D. E. Woon, T. H. Dunning, Jr., J. Chem. Phys. 98, 1358 (1993)
            Ca : Obtained from the Peterson Research Group Website (tyr0.chem.wsu.edu/~kipeters) Feb. 2017
                 J. Koput, K. A. Peterson, J. Phys. Chem. 106, 9595 (2002)
         Sc-Zn : Obtained from the ccRepo (grant-hill.group.shef.ac.uk/ccrepo) Feb. 2017
                 N. B. Balabanov, K. A. Peterson, J. Chem. Phys. 123, 064107 (2005)
                 N. B. Balabanov, K. A. Peterson, J. Chem. Phys. 125, 074110 (2006)
         Ga-Kr : Obtained from the ccRepo (grant-hill.group.shef.ac.uk/ccrepo) Feb. 2017
                 A. K. Wilson, D. E. Woon, K. A. Peterson, T. H. Dunning, Jr., J. Chem. Phys. 110, 7667 (1999)

----- AuxJ basis set information -----
Your calculation utilizes the AutoAux generation procedure.
  G. L. Stoychev, A. A. Auer, F. Neese, J. Chem. Theory Comput. 13, 554 (2017)

----- AuxC basis set information -----
Your calculation utilizes the AutoAux generation procedure.
  G. L. Stoychev, A. A. Auer, F. Neese, J. Chem. Theory Comput. 13, 554 (2017)

----- AuxJK basis set information -----
Your calculation utilizes the AutoAux generation procedure.
  G. L. Stoychev, A. A. Auer, F. Neese, J. Chem. Theory Comput. 13, 554 (2017)

================================================================================
                                        WARNINGS
                       Please study these warnings very carefully!
================================================================================

WARNING: Old DensityContainer found on disk!
         Will remove this file - 
         If you want to keep old densities, please start your calculation with a different basename. 


WARNING: your system is open-shell and RHF/RKS was chosen
  ===> : WILL SWITCH to UHF/UKS


INFO   : the flag for use of the SHARK integral package has been found!

================================================================================
                                       INPUT FILE
================================================================================
NAME = cc-pVDZ.inp
|  1> ! B3LYP cc-pVDZ AUTOAUX
|  2> %pal nprocs 16 end
|  3> *XYZFile 0 2 opt_cc-pVDZ.xyz
|  4> %EPRNMR
|  5>         GTENSOR   TRUE
|  6>         NUCLEI    = ALL H {SHIFT, AISO, ADIP, AORB}
|  7>         ORI       CenterOfElCharge
|  8> END
|  9> 
| 10>                          ****END OF INPUT****
================================================================================

                       ****************************
                       * Single Point Calculation *
                       ****************************

---------------------------------
CARTESIAN COORDINATES (ANGSTROEM)
---------------------------------
  C     12.367466   -0.027254   -0.004271
  C     11.143539   -0.069299   -0.003040
  C      5.470131   -0.000662   -0.000815
  C      9.724526   -0.089437   -0.002678
  C      8.990499   -1.335723   -0.006213
  C      7.570641   -1.236827   -0.005284
  C      6.897657   -0.012283   -0.001347
  C      7.634582    1.216940    0.002004
  C      9.026256    1.135002    0.001260
  H      6.974283   -2.149427   -0.007828
  H      9.620187    2.048805    0.003763
  C      9.646544   -2.584699   -0.010513
  H     10.739691   -2.574825   -0.011224
  C      8.960010   -3.917865   -0.014285
  H      8.287727   -4.000766    0.864628
  H      8.285669   -3.994755   -0.892161
  C      9.931394   -5.105586   -0.019539
  H     10.590733   -5.027211   -0.903247
  H     10.593189   -5.033054    0.862831
  C      9.222319   -6.461124   -0.023062
  H      8.577847   -6.574132   -0.911994
  H      8.580458   -6.580123    0.866977
  C      6.889022    2.534941    0.006282
  H      6.210012    2.549779   -0.866924
  H      6.212620    2.545607    0.881592
  C      7.734368    3.811262    0.008082
  H      8.398869    3.820544    0.891619
  H      8.396779    3.824334   -0.876981
  C      6.878874    5.084153    0.011857
  H      6.211424    5.076210   -0.869877
  H      6.213550    5.072435    0.895157
  C      7.710870    6.368993    0.013614
  H      8.360868    6.426451   -0.876552
  H      8.363212    6.422506    0.902310
  C      4.247600    0.004800    0.000267
  H      9.944286   -7.293461   -0.026932
  H      7.069825    7.265432    0.016449
  C      2.821974    0.006564    0.000675
  C      2.097717   -1.206649   -0.001354
  C      0.707606   -1.204525   -0.001048
  C     -0.010713    0.010051    0.001310
  C      0.710586    1.222936    0.003369
  C      2.100604    1.221532    0.003068
  H     -3.729564    0.015721    0.002046
  H      0.163795    2.167534    0.005200
  H      2.643471   -2.151786   -0.003192
  H      2.648407    2.165507    0.004660
  H      0.158546   -2.147798   -0.002644
  C     13.789690    0.031504   -0.004822
  C     14.565842   -1.150310   -0.007823
  C     15.954243   -1.089616   -0.008291
  C     16.621265    0.154185   -0.005806
  C     15.849032    1.335648   -0.002864
  C     14.460686    1.276220   -0.002390
  H     20.336370    0.317181   -0.006913
  H     16.355741    2.302369   -0.000948
  H     14.061634   -2.118278   -0.009746
  H     13.873587    2.196248   -0.000104
  H     16.542333   -2.009094   -0.010582
  C     18.050447    0.216424   -0.006272
  C     19.264950    0.269530   -0.006594
  C     -1.441514    0.012000    0.001596
  C     -2.657054    0.014002    0.001839

----------------------------
CARTESIAN COORDINATES (A.U.)
----------------------------
  NO LB      ZA    FRAG     MASS         X           Y           Z
   0 C     6.0000    0    12.011   23.371124   -0.051502   -0.008070
   1 C     6.0000    0    12.011   21.058236   -0.130956   -0.005744
   2 C     6.0000    0    12.011   10.337049   -0.001252   -0.001540
   3 C     6.0000    0    12.011   18.376690   -0.169011   -0.005061
   4 C     6.0000    0    12.011   16.989582   -2.524151   -0.011741
   5 C     6.0000    0    12.011   14.306438   -2.337265   -0.009984
   6 C     6.0000    0    12.011   13.034683   -0.023211   -0.002545
   7 C     6.0000    0    12.011   14.427269    2.299684    0.003788
   8 C     6.0000    0    12.011   17.057152    2.144842    0.002381
   9 H     1.0000    0     1.008   13.179486   -4.061829   -0.014792
  10 H     1.0000    0     1.008   18.179519    3.871680    0.007111
  11 C     6.0000    0    12.011   18.229326   -4.884374   -0.019866
  12 H     1.0000    0     1.008   20.295074   -4.865714   -0.021211
  13 C     6.0000    0    12.011   16.931965   -7.403692   -0.026995
  14 H     1.0000    0     1.008   15.661535   -7.560352    1.633910
  15 H     1.0000    0     1.008   15.657646   -7.548993   -1.685940
  16 C     6.0000    0    12.011   18.767615   -9.648159   -0.036924
  17 H     1.0000    0     1.008   20.013584   -9.500052   -1.706889
  18 H     1.0000    0     1.008   20.018227   -9.511094    1.630514
  19 C     6.0000    0    12.011   17.427657  -12.209754   -0.043581
  20 H     1.0000    0     1.008   16.209782  -12.423309   -1.723418
  21 H     1.0000    0     1.008   16.214716  -12.434630    1.638349
  22 C     6.0000    0    12.011   13.018364    4.790344    0.011872
  23 H     1.0000    0     1.008   11.735222    4.818383   -1.638249
  24 H     1.0000    0     1.008   11.740150    4.810501    1.665967
  25 C     6.0000    0    12.011   14.615838    7.202241    0.015272
  26 H     1.0000    0     1.008   15.871562    7.219783    1.684916
  27 H     1.0000    0     1.008   15.867613    7.226944   -1.657254
  28 C     6.0000    0    12.011   12.999188    9.607657    0.022407
  29 H     1.0000    0     1.008   11.737890    9.592647   -1.643829
  30 H     1.0000    0     1.008   11.741908    9.585512    1.691602
  31 C     6.0000    0    12.011   14.571433   12.035652    0.025728
  32 H     1.0000    0     1.008   15.799752   12.144232   -1.656443
  33 H     1.0000    0     1.008   15.804181   12.136777    1.705118
  34 C     6.0000    0    12.011    8.026802    0.009071    0.000505
  35 H     1.0000    0     1.008   18.791978  -13.782643   -0.050894
  36 H     1.0000    0     1.008   13.360034   13.729677    0.031084
  37 C     6.0000    0    12.011    5.332758    0.012404    0.001276
  38 C     6.0000    0    12.011    3.964110   -2.280236   -0.002559
  39 C     6.0000    0    12.011    1.337181   -2.276222   -0.001981
  40 C     6.0000    0    12.011   -0.020245    0.018993    0.002475
  41 C     6.0000    0    12.011    1.342813    2.311014    0.006367
  42 C     6.0000    0    12.011    3.969566    2.308360    0.005798
  43 H     1.0000    0     1.008   -7.047854    0.029709    0.003867
  44 H     1.0000    0     1.008    0.309528    4.096045    0.009827
  45 H     1.0000    0     1.008    4.995436   -4.066287   -0.006032
  46 H     1.0000    0     1.008    5.004765    4.092215    0.008807
  47 H     1.0000    0     1.008    0.299608   -4.058750   -0.004996
  48 C     6.0000    0    12.011   26.058738    0.059533   -0.009113
  49 C     6.0000    0    12.011   27.525453   -2.173771   -0.014783
  50 C     6.0000    0    12.011   30.149150   -2.059075   -0.015668
  51 C     6.0000    0    12.011   31.409638    0.291368   -0.010971
  52 C     6.0000    0    12.011   29.950331    2.524009   -0.005413
  53 C     6.0000    0    12.011   27.326736    2.411705   -0.004516
  54 H     1.0000    0     1.008   38.430169    0.599386   -0.013063
  55 H     1.0000    0     1.008   30.907872    4.350846   -0.001791
  56 H     1.0000    0     1.008   26.572638   -4.002965   -0.018418
  57 H     1.0000    0     1.008   26.217280    4.150307   -0.000196
  58 H     1.0000    0     1.008   31.260479   -3.796638   -0.019998
  59 C     6.0000    0    12.011   34.110402    0.408982   -0.011852
  60 C     6.0000    0    12.011   36.405479    0.509338   -0.012461
  61 C     6.0000    0    12.011   -2.724067    0.022677    0.003017
  62 C     6.0000    0    12.011   -5.021104    0.026460    0.003475

--------------------------------
INTERNAL COORDINATES (ANGSTROEM)
--------------------------------
 C      0   0   0     0.000000000000     0.00000000     0.00000000
 C      1   0   0     1.224650251843     0.00000000     0.00000000
 C      2   1   0     5.673823521177   177.33913846     0.00000000
 C      2   1   3     1.419156004634   178.84473766     1.37708441
 C      4   2   1     1.446387692769   121.30972829   177.69437291
 C      5   4   2     1.423298812713   116.51231292   179.99058121
 C      6   5   4     1.397294660997   122.77655512     0.00000000
 C      7   6   5     1.433198514702   120.26507192     0.00000000
 C      8   7   6     1.394084276365   117.57316627     0.00000000
 H      6   5   4     1.090177790589   119.17892145   180.00110978
 H      9   8   7     1.089860883827   119.65234315   180.00173884
 C      5   4   2     1.410799073018   121.79197708     0.00000000
 H     12   5   4     1.093191518337   117.19388251     0.00000000
 C     12   5   4     1.499558319339   125.04190759   179.99709394
 H     14  12   5     1.109650896127   109.98656477   302.57485596
 H     14  12   5     1.109645464915   109.98762758    57.35026925
 C     14  12   5     1.534371262553   113.47519267   179.96090127
 H     17  14  12     1.105354568521   108.99482800   302.32620841
 H     17  14  12     1.105355550847   108.99650755    57.64620599
 C     17  14  12     1.529798698637   113.10820320   179.98777341
 H     20  17  14     1.103772728110   111.29742528    59.86814715
 H     20  17  14     1.103772902969   111.29754774   300.11800602
 C      8   7   6     1.514266799865   119.56155850   180.00137127
 H     23   8   7     1.106238137434   108.15891331   303.79353247
 H     23   8   7     1.106254652701   108.15999881    56.34535669
 C     23   8   7     1.530885209245   116.98656940   180.06904527
 H     26  23   8     1.105570146842   109.86682027   301.71519519
 H     26  23   8     1.105574739762   109.86268788    58.23965082
 C     26  23   8     1.533667705284   112.57780759   179.97740386
 H     29  26  23     1.105897241920   109.19201378   302.33359496
 H     29  26  23     1.105898827408   109.19338768    57.67258559
 C     29  26  23     1.530696863177   113.17052250   180.00311453
 H     32  29  26     1.103719049864   111.27664755    59.86687000
 H     32  29  26     1.103717923679   111.27693883   300.14753874
 C      3   2   1     1.222543026681   179.56198074   182.93977298
 H     20  17  14     1.101833363858   111.44812607   179.99262845
 H     32  29  26     1.102066264698   111.50649009   180.00719791
 C     35   3   7     1.425627507397   179.81170935   341.55129872
 C     38  35   3     1.412953881335   120.76517681    10.39628204
 C     39  38  35     1.390112878805   120.74849957   180.00442120
 C     40  39  38     1.411092142677   120.68828432     0.00000000
 C     41  40  39     1.411158135953   118.65951337     0.00000000
 C     42  41  40     1.390018693722   120.68188282     0.00000000
 H     41  40  39     3.718854484214   120.68807762   179.99851590
 H     42  41  40     1.091443023199   119.19538717   179.99997364
 H     39  38  35     1.091391616557   119.16037325     0.00000000
 H     43  42  41     1.091412103615   120.06932088   179.99915698
 H     40  39  38     1.091436840843   120.11516711   179.99910091
 C      1   2   4     1.423437292123   179.60018770     7.20846492
 C     49   1   2     1.413896717608   120.92900446   175.05183986
 C     50  49   1     1.389726764505   120.79165084   180.00301735
 C     51  50  49     1.411369993720   120.70662403     0.00000000
 C     52  51  50     1.411455111344   118.62691032     0.00000000
 C     53  52  51     1.389617954930   120.71849579     0.00000000
 H     52  51  50     3.718679148416   120.71570842   179.99740575
 H     53  52  51     1.091469870728   119.16914990   180.00121179
 H     50  49   1     1.091417216580   119.19063540     0.00000000
 H     54  53  52     1.091395009002   120.09213582   179.99990088
 H     51  50  49     1.091464667903   120.09947686   179.99778994
 C     52  51  50     1.430537292327   120.69708754   179.99922768
 C     55  52  51     1.072479229672     0.03435664   359.93512322
 C     41  40  39     1.430801965691   120.67878622   179.99868774
 C     44  41  40     1.072510927580     0.00449283     3.65120686

---------------------------
INTERNAL COORDINATES (A.U.)
---------------------------
 C      0   0   0     0.000000000000     0.00000000     0.00000000
 C      1   0   0     2.314253585820     0.00000000     0.00000000
 C      2   1   0    10.721972587226   177.33913846     0.00000000
 C      2   1   3     2.681816190067   178.84473766     1.37708441
 C      4   2   1     2.733276622808   121.30972829   177.69437291
 C      5   4   2     2.689644962763   116.51231292   179.99058121
 C      6   5   4     2.640504237674   122.77655512     0.00000000
 C      7   6   5     2.708352688329   120.26507192     0.00000000
 C      8   7   6     2.634437489937   117.57316627     0.00000000
 H      6   5   4     2.060137461497   119.17892145   180.00110978
 H      9   8   7     2.059538594507   119.65234315   180.00173884
 C      5   4   2     2.666023877995   121.79197708     0.00000000
 H     12   5   4     2.065832581583   117.19388251     0.00000000
 C     12   5   4     2.833754545394   125.04190759   179.99709394
 H     14  12   5     2.096936297940   109.98656477   302.57485596
 H     14  12   5     2.096926034438   109.98762758    57.35026925
 C     14  12   5     2.899541473983   113.47519267   179.96090127
 H     17  14  12     2.088817415383   108.99482800   302.32620841
 H     17  14  12     2.088819271711   108.99650755    57.64620599
 C     17  14  12     2.890900580453   113.10820320   179.98777341
 H     20  17  14     2.085828170219   111.29742528    59.86814715
 H     20  17  14     2.085828500655   111.29754774   300.11800602
 C      8   7   6     2.861549545434   119.56155850   180.00137127
 H     23   8   7     2.090487118650   108.15891331   303.79353247
 H     23   8   7     2.090518327981   108.15999881    56.34535669
 C     23   8   7     2.892953787944   116.98656940   180.06904527
 H     26  23   8     2.089224799370   109.86682027   301.71519519
 H     26  23   8     2.089233478731   109.86268788    58.23965082
 C     26  23   8     2.898211943425   112.57780759   179.97740386
 H     29  26  23     2.089842919487   109.19201378   302.33359496
 H     29  26  23     2.089845915625   109.19338768    57.67258559
 C     29  26  23     2.892597865457   113.17052250   180.00311453
 H     32  29  26     2.085726733036   111.27664755    59.86687000
 H     32  29  26     2.085724604854   111.27693883   300.14753874
 C      3   2   1     2.310271507362   179.56198074   182.93977298
 H     20  17  14     2.082163302909   111.44812607   179.99262845
 H     32  29  26     2.082603421713   111.50649009   180.00719791
 C     35   3   7     2.694045557964   179.81170935   341.55129872
 C     38  35   3     2.670095875585   120.76517681    10.39628204
 C     39  38  35     2.626932636178   120.74849957   180.00442120
 C     40  39  38     2.666577699387   120.68828432     0.00000000
 C     41  40  39     2.666702408605   118.65951337     0.00000000
 C     42  41  40     2.626754652166   120.68188282     0.00000000
 H     41  40  39     7.027616507069   120.68807762   179.99851590
 H     42  41  40     2.062528404625   119.19538717   179.99997364
 H     39  38  35     2.062431260150   119.16037325     0.00000000
 H     43  42  41     2.062469975079   120.06932088   179.99915698
 H     40  39  38     2.062516721666   120.11516711   179.99910091
 C      1   2   4     2.689906650922   179.60018770     7.20846492
 C     49   1   2     2.671877577930   120.92900446   175.05183986
 C     50  49   1     2.626202985895   120.79165084   180.00301735
 C     51  50  49     2.667102761765   120.70662403     0.00000000
 C     52  51  50     2.667263610763   118.62691032     0.00000000
 C     53  52  51     2.625997365597   120.71849579     0.00000000
 H     52  51  50     7.027285170430   120.71570842   179.99740575
 H     53  52  51     2.062579139103   119.16914990   180.00121179
 H     50  49   1     2.062479637182   119.19063540     0.00000000
 H     54  53  52     2.062437670943   120.09213582   179.99990088
 H     51  50  49     2.062569307189   120.09947686   179.99778994
 C     52  51  50     2.703323706860   120.69708754   179.99922768
 C     55  52  51     2.026692028400     0.03435664   359.93512322
 C     41  40  39     2.703823867032   120.67878622   179.99868774
 C     44  41  40     2.026751928764     0.00449283     3.65120686

---------------------
BASIS SET INFORMATION
---------------------
There are 2 groups of distinct atoms

 Group   1 Type C   : 17s4p1d contracted to 3s2p1d pattern {881/31/1}
 Group   2 Type H   : 4s1p contracted to 2s1p pattern {31/1}

Atom   0C    basis set group =>   1
Atom   1C    basis set group =>   1
Atom   2C    basis set group =>   1
Atom   3C    basis set group =>   1
Atom   4C    basis set group =>   1
Atom   5C    basis set group =>   1
Atom   6C    basis set group =>   1
Atom   7C    basis set group =>   1
Atom   8C    basis set group =>   1
Atom   9H    basis set group =>   2
Atom  10H    basis set group =>   2
Atom  11C    basis set group =>   1
Atom  12H    basis set group =>   2
Atom  13C    basis set group =>   1
Atom  14H    basis set group =>   2
Atom  15H    basis set group =>   2
Atom  16C    basis set group =>   1
Atom  17H    basis set group =>   2
Atom  18H    basis set group =>   2
Atom  19C    basis set group =>   1
Atom  20H    basis set group =>   2
Atom  21H    basis set group =>   2
Atom  22C    basis set group =>   1
Atom  23H    basis set group =>   2
Atom  24H    basis set group =>   2
Atom  25C    basis set group =>   1
Atom  26H    basis set group =>   2
Atom  27H    basis set group =>   2
Atom  28C    basis set group =>   1
Atom  29H    basis set group =>   2
Atom  30H    basis set group =>   2
Atom  31C    basis set group =>   1
Atom  32H    basis set group =>   2
Atom  33H    basis set group =>   2
Atom  34C    basis set group =>   1
Atom  35H    basis set group =>   2
Atom  36H    basis set group =>   2
Atom  37C    basis set group =>   1
Atom  38C    basis set group =>   1
Atom  39C    basis set group =>   1
Atom  40C    basis set group =>   1
Atom  41C    basis set group =>   1
Atom  42C    basis set group =>   1
Atom  43H    basis set group =>   2
Atom  44H    basis set group =>   2
Atom  45H    basis set group =>   2
Atom  46H    basis set group =>   2
Atom  47H    basis set group =>   2
Atom  48C    basis set group =>   1
Atom  49C    basis set group =>   1
Atom  50C    basis set group =>   1
Atom  51C    basis set group =>   1
Atom  52C    basis set group =>   1
Atom  53C    basis set group =>   1
Atom  54H    basis set group =>   2
Atom  55H    basis set group =>   2
Atom  56H    basis set group =>   2
Atom  57H    basis set group =>   2
Atom  58H    basis set group =>   2
Atom  59C    basis set group =>   1
Atom  60C    basis set group =>   1
Atom  61C    basis set group =>   1
Atom  62C    basis set group =>   1
---------------------------------
AUXILIARY/J BASIS SET INFORMATION
---------------------------------
There are 2 groups of distinct atoms

 Group   1 Type C   : 14s11p10d2f contracted to 14s11p10d2f pattern {11111111111111/11111111111/1111111111/11}
 Group   2 Type H   : 9s2p1d contracted to 9s2p1d pattern {111111111/11/1}

Atom   0C    basis set group =>   1
Atom   1C    basis set group =>   1
Atom   2C    basis set group =>   1
Atom   3C    basis set group =>   1
Atom   4C    basis set group =>   1
Atom   5C    basis set group =>   1
Atom   6C    basis set group =>   1
Atom   7C    basis set group =>   1
Atom   8C    basis set group =>   1
Atom   9H    basis set group =>   2
Atom  10H    basis set group =>   2
Atom  11C    basis set group =>   1
Atom  12H    basis set group =>   2
Atom  13C    basis set group =>   1
Atom  14H    basis set group =>   2
Atom  15H    basis set group =>   2
Atom  16C    basis set group =>   1
Atom  17H    basis set group =>   2
Atom  18H    basis set group =>   2
Atom  19C    basis set group =>   1
Atom  20H    basis set group =>   2
Atom  21H    basis set group =>   2
Atom  22C    basis set group =>   1
Atom  23H    basis set group =>   2
Atom  24H    basis set group =>   2
Atom  25C    basis set group =>   1
Atom  26H    basis set group =>   2
Atom  27H    basis set group =>   2
Atom  28C    basis set group =>   1
Atom  29H    basis set group =>   2
Atom  30H    basis set group =>   2
Atom  31C    basis set group =>   1
Atom  32H    basis set group =>   2
Atom  33H    basis set group =>   2
Atom  34C    basis set group =>   1
Atom  35H    basis set group =>   2
Atom  36H    basis set group =>   2
Atom  37C    basis set group =>   1
Atom  38C    basis set group =>   1
Atom  39C    basis set group =>   1
Atom  40C    basis set group =>   1
Atom  41C    basis set group =>   1
Atom  42C    basis set group =>   1
Atom  43H    basis set group =>   2
Atom  44H    basis set group =>   2
Atom  45H    basis set group =>   2
Atom  46H    basis set group =>   2
Atom  47H    basis set group =>   2
Atom  48C    basis set group =>   1
Atom  49C    basis set group =>   1
Atom  50C    basis set group =>   1
Atom  51C    basis set group =>   1
Atom  52C    basis set group =>   1
Atom  53C    basis set group =>   1
Atom  54H    basis set group =>   2
Atom  55H    basis set group =>   2
Atom  56H    basis set group =>   2
Atom  57H    basis set group =>   2
Atom  58H    basis set group =>   2
Atom  59C    basis set group =>   1
Atom  60C    basis set group =>   1
Atom  61C    basis set group =>   1
Atom  62C    basis set group =>   1
---------------------------------
AUXILIARY/C BASIS SET INFORMATION
---------------------------------
There are 2 groups of distinct atoms

 Group   1 Type C   : 14s11p10d2f contracted to 14s11p10d2f pattern {11111111111111/11111111111/1111111111/11}
 Group   2 Type H   : 9s2p1d contracted to 9s2p1d pattern {111111111/11/1}

Atom   0C    basis set group =>   1
Atom   1C    basis set group =>   1
Atom   2C    basis set group =>   1
Atom   3C    basis set group =>   1
Atom   4C    basis set group =>   1
Atom   5C    basis set group =>   1
Atom   6C    basis set group =>   1
Atom   7C    basis set group =>   1
Atom   8C    basis set group =>   1
Atom   9H    basis set group =>   2
Atom  10H    basis set group =>   2
Atom  11C    basis set group =>   1
Atom  12H    basis set group =>   2
Atom  13C    basis set group =>   1
Atom  14H    basis set group =>   2
Atom  15H    basis set group =>   2
Atom  16C    basis set group =>   1
Atom  17H    basis set group =>   2
Atom  18H    basis set group =>   2
Atom  19C    basis set group =>   1
Atom  20H    basis set group =>   2
Atom  21H    basis set group =>   2
Atom  22C    basis set group =>   1
Atom  23H    basis set group =>   2
Atom  24H    basis set group =>   2
Atom  25C    basis set group =>   1
Atom  26H    basis set group =>   2
Atom  27H    basis set group =>   2
Atom  28C    basis set group =>   1
Atom  29H    basis set group =>   2
Atom  30H    basis set group =>   2
Atom  31C    basis set group =>   1
Atom  32H    basis set group =>   2
Atom  33H    basis set group =>   2
Atom  34C    basis set group =>   1
Atom  35H    basis set group =>   2
Atom  36H    basis set group =>   2
Atom  37C    basis set group =>   1
Atom  38C    basis set group =>   1
Atom  39C    basis set group =>   1
Atom  40C    basis set group =>   1
Atom  41C    basis set group =>   1
Atom  42C    basis set group =>   1
Atom  43H    basis set group =>   2
Atom  44H    basis set group =>   2
Atom  45H    basis set group =>   2
Atom  46H    basis set group =>   2
Atom  47H    basis set group =>   2
Atom  48C    basis set group =>   1
Atom  49C    basis set group =>   1
Atom  50C    basis set group =>   1
Atom  51C    basis set group =>   1
Atom  52C    basis set group =>   1
Atom  53C    basis set group =>   1
Atom  54H    basis set group =>   2
Atom  55H    basis set group =>   2
Atom  56H    basis set group =>   2
Atom  57H    basis set group =>   2
Atom  58H    basis set group =>   2
Atom  59C    basis set group =>   1
Atom  60C    basis set group =>   1
Atom  61C    basis set group =>   1
Atom  62C    basis set group =>   1
----------------------------------
AUXILIARY/JK BASIS SET INFORMATION
----------------------------------
There are 2 groups of distinct atoms

 Group   1 Type C   : 14s11p10d2f contracted to 14s11p10d2f pattern {11111111111111/11111111111/1111111111/11}
 Group   2 Type H   : 9s2p1d contracted to 9s2p1d pattern {111111111/11/1}

Atom   0C    basis set group =>   1
Atom   1C    basis set group =>   1
Atom   2C    basis set group =>   1
Atom   3C    basis set group =>   1
Atom   4C    basis set group =>   1
Atom   5C    basis set group =>   1
Atom   6C    basis set group =>   1
Atom   7C    basis set group =>   1
Atom   8C    basis set group =>   1
Atom   9H    basis set group =>   2
Atom  10H    basis set group =>   2
Atom  11C    basis set group =>   1
Atom  12H    basis set group =>   2
Atom  13C    basis set group =>   1
Atom  14H    basis set group =>   2
Atom  15H    basis set group =>   2
Atom  16C    basis set group =>   1
Atom  17H    basis set group =>   2
Atom  18H    basis set group =>   2
Atom  19C    basis set group =>   1
Atom  20H    basis set group =>   2
Atom  21H    basis set group =>   2
Atom  22C    basis set group =>   1
Atom  23H    basis set group =>   2
Atom  24H    basis set group =>   2
Atom  25C    basis set group =>   1
Atom  26H    basis set group =>   2
Atom  27H    basis set group =>   2
Atom  28C    basis set group =>   1
Atom  29H    basis set group =>   2
Atom  30H    basis set group =>   2
Atom  31C    basis set group =>   1
Atom  32H    basis set group =>   2
Atom  33H    basis set group =>   2
Atom  34C    basis set group =>   1
Atom  35H    basis set group =>   2
Atom  36H    basis set group =>   2
Atom  37C    basis set group =>   1
Atom  38C    basis set group =>   1
Atom  39C    basis set group =>   1
Atom  40C    basis set group =>   1
Atom  41C    basis set group =>   1
Atom  42C    basis set group =>   1
Atom  43H    basis set group =>   2
Atom  44H    basis set group =>   2
Atom  45H    basis set group =>   2
Atom  46H    basis set group =>   2
Atom  47H    basis set group =>   2
Atom  48C    basis set group =>   1
Atom  49C    basis set group =>   1
Atom  50C    basis set group =>   1
Atom  51C    basis set group =>   1
Atom  52C    basis set group =>   1
Atom  53C    basis set group =>   1
Atom  54H    basis set group =>   2
Atom  55H    basis set group =>   2
Atom  56H    basis set group =>   2
Atom  57H    basis set group =>   2
Atom  58H    basis set group =>   2
Atom  59C    basis set group =>   1
Atom  60C    basis set group =>   1
Atom  61C    basis set group =>   1
Atom  62C    basis set group =>   1

Checking for AutoStart:
The File: cc-pVDZ.gbw exists
Trying to determine its content:
     ... Fine, the file contains calculation information
     ... Fine, the calculation information was read
     ... Fine, the file contains a basis set
     ... Fine, the basis set was read
     ... Fine, the file contains a geometry
     ... Fine, the geometry was read
     ... Fine, the file contains a set of orbitals
     ... Fine, the orbitals can be read
     => possible old guess file was deleted
     => GBW file was renamed to GES file
     => GES file is set as startup file
     => Guess is set to MORead
     ... now leaving AutoStart



           ************************************************************
           *        Program running with 16 parallel MPI-processes    *
           *              working on a common directory               *
           ************************************************************
------------------------------------------------------------------------------
                           ORCA GTO INTEGRAL CALCULATION
                           -- RI-GTO INTEGRALS CHOSEN --
------------------------------------------------------------------------------
------------------------------------------------------------------------------
                   ___                                                        
                  /   \      - P O W E R E D   B Y -                         
                 /     \                                                     
                 |  |  |   _    _      __       _____    __    __             
                 |  |  |  | |  | |    /  \     |  _  \  |  |  /  |          
                  \  \/   | |  | |   /    \    | | | |  |  | /  /          
                 / \  \   | |__| |  /  /\  \   | |_| |  |  |/  /          
                |  |  |   |  __  | /  /__\  \  |    /   |      \           
                |  |  |   | |  | | |   __   |  |    \   |  |\   \          
                \     /   | |  | | |  |  |  |  | |\  \  |  | \   \       
                 \___/    |_|  |_| |__|  |__|  |_| \__\ |__|  \__/        
                                                                              
                      - O R C A' S   B I G   F R I E N D -                    
                                      &                                       
                       - I N T E G R A L  F E E D E R -                       
                                                                              
 v1 FN, 2020, v2 2021                                                         
------------------------------------------------------------------------------


Reading SHARK input file cc-pVDZ.SHARKINP.tmp ... ok
----------------------
SHARK INTEGRAL PACKAGE
----------------------

Number of atoms                             ...     63
Number of basis functions                   ...    825
Number of shells                            ...    495
Maximum angular momentum                    ...      2
Integral batch strategy                     ... SHARK/LIBINT Hybrid
RI-J (if used) integral strategy            ... SPLIT-RIJ (Revised 2003 algorithm where possible)
Printlevel                                  ...      1
Contraction scheme used                     ... PARTIAL GENERAL contraction
Coulomb Range Separation                    ... NOT USED
Exchange Range Separation                   ... NOT USED
Finite Nucleus Model                        ... NOT USED
Auxiliary Coulomb fitting basis             ... AVAILABLE
   # of basis functions in Aux-J            ...   4354
   # of shells in Aux-J                     ...   1606
   Maximum angular momentum in Aux-J        ...      3
Auxiliary J/K fitting basis                 ... AVAILABLE
   # of basis functions in Aux-JK           ...   4354
   # of shells in Aux-JK                    ...   1606
   Maximum angular momentum in Aux-JK       ...      3
Auxiliary Correlation fitting basis         ... AVAILABLE
   # of basis functions in Aux-C            ...   4354
   # of shells in Aux-C                     ...   1606
   Maximum angular momentum in Aux-C        ...      3
Auxiliary 'external' fitting basis          ... NOT available
Integral threshold                          ...     1.000000e-10
Primitive cut-off                           ...     1.000000e-11
Primitive pair pre-selection threshold      ...     1.000000e-11

Calculating pre-screening integrals         ... done (  0.0 sec) Dimension = 495
Calculating pre-screening integrals (ORCA)  ... done (  0.1 sec) Dimension = 291
Organizing shell pair data                  ... done (  0.2 sec)
Shell pair information
Total number of shell pairs                 ...    122760
Shell pairs after pre-screening             ...     35059
Total number of primitive shell pairs       ...    193320
Primitive shell pairs kept                  ...     46510
          la=0 lb=0:  14908 shell pairs
          la=1 lb=0:  12456 shell pairs
          la=1 lb=1:   2233 shell pairs
          la=2 lb=0:   3831 shell pairs
          la=2 lb=1:   1394 shell pairs
          la=2 lb=2:    237 shell pairs

Calculating one electron integrals          ... done (  0.1 sec)
Calculating RI/J V-Matrix + Cholesky decomp.... done (  1.1 sec)
Calculating RI/JK V-Matrix + Cholesky decomp... done (  1.1 sec)
Calculating RI/C V-Matrix + Cholesky decomp.... done (  1.1 sec)
Calculating Nuclear repulsion               ... done (  0.0 sec) ENN=   2735.910982189827 Eh

SHARK setup successfully completed in   4.2 seconds

Maximum memory used throughout the entire GTOINT-calculation: 65.4 MB


           ************************************************************
           *        Program running with 16 parallel MPI-processes    *
           *              working on a common directory               *
           ************************************************************
-------------------------------------------------------------------------------
                                 ORCA SCF
-------------------------------------------------------------------------------

------------
SCF SETTINGS
------------
Hamiltonian:
 Density Functional     Method          .... DFT(GTOs)
 Exchange Functional    Exchange        .... B88
   X-Alpha parameter    XAlpha          ....  0.666667
   Becke's b parameter  XBeta           ....  0.004200
 Correlation Functional Correlation     .... LYP
 LDA part of GGA corr.  LDAOpt          .... VWN-5
 Gradients option       PostSCFGGA      .... off
 Hybrid DFT is turned on
   Fraction HF Exchange ScalHFX         ....  0.200000
   Scaling of DF-GGA-X  ScalDFX         ....  0.720000
   Scaling of DF-GGA-C  ScalDFC         ....  0.810000
   Scaling of DF-LDA-C  ScalLDAC        ....  1.000000
   Perturbative correction              ....  0.000000
   Density functional embedding theory  .... OFF
   NL short-range parameter             ....  4.800000
 RI-approximation to the Coulomb term is turned on
   Number of AuxJ basis functions       .... 4354
   RIJ-COSX (HFX calculated with COS-X)).... on


General Settings:
 Integral files         IntName         .... cc-pVDZ
 Hartree-Fock type      HFTyp           .... UHF
 Total Charge           Charge          ....    0
 Multiplicity           Mult            ....    2
 Number of Electrons    NEL             ....  233
 Basis Dimension        Dim             ....  621
 Nuclear Repulsion      ENuc            ....   2735.9109821898 Eh

Convergence Acceleration:
 DIIS                   CNVDIIS         .... on
   Start iteration      DIISMaxIt       ....    12
   Startup error        DIISStart       ....  0.200000
   # of expansion vecs  DIISMaxEq       ....     5
   Bias factor          DIISBfac        ....   1.050
   Max. coefficient     DIISMaxC        ....  10.000
 Trust-Rad. Augm. Hess. CNVTRAH         .... auto
   Auto Start mean grad. ratio tolernc. ....  1.125000
   Auto Start start iteration           ....     1
   Auto Start num. interpolation iter.  ....    10
   Max. Number of Micro iterations      ....    16
   Max. Number of Macro iterations      .... Maxiter - #DIIS iter
   Number of Davidson start vectors     ....     2
   Converg. threshold I  (grad. norm)   ....   5.000e-05
   Converg. threshold II (energy diff.) ....   1.000e-06
   Grad. Scal. Fac. for Micro threshold ....   0.100
   Minimum threshold for Micro iter.    ....   0.010
   NR start threshold (gradient norm)   ....   0.001
   Initial trust radius                 ....   0.400
   Minimum AH scaling param. (alpha)    ....   1.000
   Maximum AH scaling param. (alpha)    .... 1000.000
   Orbital update algorithm             .... Taylor
   White noise on init. David. guess    .... on
   Maximum white noise                  ....   0.010
   Quad. conv. algorithm                .... NR
 SOSCF                  CNVSOSCF        .... off
 Level Shifting         CNVShift        .... on
   Level shift para.    LevelShift      ....    0.2500
   Turn off err/grad.   ShiftErr        ....    0.0010
 Zerner damping         CNVZerner       .... off
 Static damping         CNVDamp         .... on
   Fraction old density DampFac         ....    0.7000
   Max. Damping (<1)    DampMax         ....    0.9800
   Min. Damping (>=0)   DampMin         ....    0.0000
   Turn off err/grad.   DampErr         ....    0.1000
 Fernandez-Rico         CNVRico         .... off

SCF Procedure:
 Maximum # iterations   MaxIter         ....   125
 SCF integral mode      SCFMode         .... Direct
   Integral package                     .... SHARK and LIBINT hybrid scheme
 Reset frequency        DirectResetFreq ....    20
 Integral Threshold     Thresh          ....  1.000e-10 Eh
 Primitive CutOff       TCut            ....  1.000e-11 Eh

Convergence Tolerance:
 Convergence Check Mode ConvCheckMode   .... Total+1el-Energy
 Convergence forced     ConvForced      .... 0
 Energy Change          TolE            ....  1.000e-06 Eh
 1-El. energy change                    ....  1.000e-03 Eh
 DIIS Error             TolErr          ....  1.000e-06


Diagonalization of the overlap matrix:
Smallest eigenvalue                        ... 4.461e-05
Time for diagonalization                   ...    0.076 sec
Threshold for overlap eigenvalues          ... 1.000e-08
Number of eigenvalues below threshold      ... 0
Time for construction of square roots      ...    0.062 sec
Total time needed                          ...    0.139 sec

---------------------
INITIAL GUESS: MOREAD
---------------------
Guess MOs are being read from file: cc-pVDZ.ges
Input geometry compatible with but different from current geometry
Input basis set matches current basis set (good)
MOs were renormalized
MOs were reorthogonalized (Cholesky)
                      ------------------
                      INITIAL GUESS DONE (   0.3 sec)
                      ------------------
-------------------
DFT GRID GENERATION
-------------------

General Integration Accuracy     IntAcc      ... 4.388
Radial Grid Type                 RadialGrid  ... OptM3 with GC (2021)
Angular Grid (max. ang.)         AngularGrid ... 4 (Lebedev-302)
Angular grid pruning method      GridPruning ... 4 (adaptive)
Weight generation scheme         WeightScheme... Becke
Basis function cutoff            BFCut       ... 1.0000e-10
Integration weight cutoff        WCut        ... 1.0000e-14
Angular grids for H and He will be reduced by one unit
Partially contracted basis set               ... off
Rotationally invariant grid construction     ... off

Total number of grid points                  ...   295740
Total number of batches                      ...     4659
Average number of points per batch           ...       63
Average number of grid points per atom       ...     4694
Time for grid setup =    1.927 sec

--------------------
COSX GRID GENERATION
--------------------

GRIDX 1
-------
General Integration Accuracy     IntAcc      ... 3.816
Radial Grid Type                 RadialGrid  ... OptM3 with GC (2021)
Angular Grid (max. ang.)         AngularGrid ... 1 (Lebedev-50)
Angular grid pruning method      GridPruning ... 4 (adaptive)
Weight generation scheme         WeightScheme... Becke
Basis function cutoff            BFCut       ... 1.0000e-10
Integration weight cutoff        WCut        ... 1.0000e-14
Angular grids for H and He will be reduced by one unit
Partially contracted basis set               ... on
Rotationally invariant grid construction     ... off

Total number of grid points                  ...    37651
Total number of batches                      ...      626
Average number of points per batch           ...       60
Average number of grid points per atom       ...      598
UseSFitting                                  ... on

GRIDX 2
-------
General Integration Accuracy     IntAcc      ... 4.020
Radial Grid Type                 RadialGrid  ... OptM3 with GC (2021)
Angular Grid (max. ang.)         AngularGrid ... 2 (Lebedev-110)
Angular grid pruning method      GridPruning ... 4 (adaptive)
Weight generation scheme         WeightScheme... Becke
Basis function cutoff            BFCut       ... 1.0000e-10
Integration weight cutoff        WCut        ... 1.0000e-14
Angular grids for H and He will be reduced by one unit
Partially contracted basis set               ... on
Rotationally invariant grid construction     ... off

Total number of grid points                  ...    81058
Total number of batches                      ...     1298
Average number of points per batch           ...       62
Average number of grid points per atom       ...     1287
UseSFitting                                  ... on

GRIDX 3
-------
General Integration Accuracy     IntAcc      ... 4.338
Radial Grid Type                 RadialGrid  ... OptM3 with GC (2021)
Angular Grid (max. ang.)         AngularGrid ... 3 (Lebedev-194)
Angular grid pruning method      GridPruning ... 4 (adaptive)
Weight generation scheme         WeightScheme... Becke
Basis function cutoff            BFCut       ... 1.0000e-10
Integration weight cutoff        WCut        ... 1.0000e-14
Angular grids for H and He will be reduced by one unit
Partially contracted basis set               ... on
Rotationally invariant grid construction     ... off

Total number of grid points                  ...   177423
Total number of batches                      ...     2806
Average number of points per batch           ...       63
Average number of grid points per atom       ...     2816
UseSFitting                                  ... on

Time for X-Grid setup             =    3.111 sec

 re-compute Schwartz prescreening matrix in partically contracted basis (1) ...done (   0.125 sec)
--------------
SCF ITERATIONS
--------------
ITER       Energy         Delta-E        Max-DP      RMS-DP      [F,P]     Damp
               ***  Starting incremental Fock matrix formation  ***
  0  -1312.0489633534   0.000000000000 0.00006388  0.00000109  0.0002523 0.7000
  1  -1312.0489643651  -0.000001011656 0.00005068  0.00000092  0.0002021 0.7000
                               ***Turning on DIIS***
                 **** Energy Check signals convergence ****

               *****************************************************
               *                     SUCCESS                       *
               *           SCF CONVERGED AFTER   2 CYCLES          *
               *****************************************************

Old exchange energy                            =    -37.268560752 Eh
New exchange energy                            =    -37.268689498 Eh
Exchange energy change after final integration =     -0.000128747 Eh
Total energy after final integration           =  -1312.049093934 Eh
Final COS-X integration done in                =    14.129 sec

----------------
TOTAL SCF ENERGY
----------------

Total Energy       :        -1312.04909393 Eh          -35702.67093 eV

Components:
Nuclear Repulsion  :         2735.91098219 Eh           74447.92268 eV
Electronic Energy  :        -4047.96007612 Eh         -110150.59362 eV
One Electron Energy:        -7208.05479068 Eh         -196141.14248 eV
Two Electron Energy:         3160.09471455 Eh           85990.54886 eV
Max COSX asymmetry :            0.00000078 Eh               0.00002 eV

Virial components:
Potential Energy   :        -2615.24761986 Eh          -71164.50567 eV
Kinetic Energy     :         1303.19852592 Eh           35461.83474 eV
Virial Ratio       :            2.00679142


DFT components:
N(Alpha)           :      117.000158194488 electrons
N(Beta)            :      116.000145247643 electrons
N(Total)           :      233.000303442131 electrons
E(X)               :     -147.897433506164 Eh       
E(C)               :       -9.123526644722 Eh       
E(XC)              :     -157.020960150886 Eh       
DFET-embed. en.    :        0.000000000000 Eh       

---------------
SCF CONVERGENCE
---------------

  Last Energy change         ...   -8.2220e-07  Tolerance :   1.0000e-06
  Last MAX-Density change    ...    0.0000e+00  Tolerance :   1.0000e-05
  Last RMS-Density change    ...    0.0000e+00  Tolerance :   1.0000e-06
  Last DIIS Error            ...    1.5358e-04  Tolerance :   1.0000e-06

             **** THE GBW FILE WAS UPDATED (cc-pVDZ.gbw) ****
             **** DENSITY cc-pVDZ.scfp WAS UPDATED ****
             **** ENERGY FILE WAS UPDATED (cc-pVDZ.en.tmp) ****
----------------------
UHF SPIN CONTAMINATION
----------------------

Warning: in a DFT calculation there is little theoretical justification to 
         calculate <S**2> as in Hartree-Fock theory. We will do it anyways
         but you should keep in mind that the values have only limited relevance

Expectation value of <S**2>     :     0.789314
Ideal value S*(S+1) for S=0.5   :     0.750000
Deviation                       :     0.039314

             **** THE GBW FILE WAS UPDATED (cc-pVDZ.gbw) ****
             **** DENSITY cc-pVDZ.scfp WAS UPDATED ****
----------------
ORBITAL ENERGIES
----------------
                 SPIN UP ORBITALS
  NO   OCC          E(Eh)            E(eV) 
   0   1.0000     -10.223937      -278.2075 
   1   1.0000     -10.222782      -278.1760 
   2   1.0000     -10.222218      -278.1607 
   3   1.0000     -10.221287      -278.1354 
   4   1.0000     -10.217851      -278.0419 
   5   1.0000     -10.215761      -277.9850 
   6   1.0000     -10.205899      -277.7166 
   7   1.0000     -10.204411      -277.6761 
   8   1.0000     -10.204341      -277.6742 
   9   1.0000     -10.203750      -277.6582 
  10   1.0000     -10.203642      -277.6552 
  11   1.0000     -10.202861      -277.6340 
  12   1.0000     -10.202704      -277.6297 
  13   1.0000     -10.202356      -277.6202 
  14   1.0000     -10.202172      -277.6152 
  15   1.0000     -10.201910      -277.6081 
  16   1.0000     -10.198344      -277.5110 
  17   1.0000     -10.196024      -277.4479 
  18   1.0000     -10.195774      -277.4411 
  19   1.0000     -10.195211      -277.4258 
  20   1.0000     -10.194380      -277.4032 
  21   1.0000     -10.193980      -277.3923 
  22   1.0000     -10.193385      -277.3761 
  23   1.0000     -10.193035      -277.3666 
  24   1.0000     -10.191945      -277.3369 
  25   1.0000     -10.191166      -277.3157 
  26   1.0000     -10.190858      -277.3073 
  27   1.0000     -10.190048      -277.2853 
  28   1.0000     -10.189573      -277.2724 
  29   1.0000     -10.186625      -277.1922 
  30   1.0000     -10.184431      -277.1325 
  31   1.0000     -10.184141      -277.1246 
  32   1.0000     -10.179278      -276.9922 
  33   1.0000     -10.177561      -276.9455 
  34   1.0000      -0.877875       -23.8882 
  35   1.0000      -0.875363       -23.8198 
  36   1.0000      -0.873898       -23.7800 
  37   1.0000      -0.824143       -22.4261 
  38   1.0000      -0.809060       -22.0156 
  39   1.0000      -0.806179       -21.9372 
  40   1.0000      -0.798927       -21.7399 
  41   1.0000      -0.793149       -21.5827 
  42   1.0000      -0.770999       -20.9799 
  43   1.0000      -0.759740       -20.6736 
  44   1.0000      -0.758706       -20.6454 
  45   1.0000      -0.758404       -20.6372 
  46   1.0000      -0.746280       -20.3073 
  47   1.0000      -0.736973       -20.0541 
  48   1.0000      -0.725982       -19.7550 
  49   1.0000      -0.712947       -19.4003 
  50   1.0000      -0.700415       -19.0593 
  51   1.0000      -0.660760       -17.9802 
  52   1.0000      -0.658108       -17.9080 
  53   1.0000      -0.642355       -17.4794 
  54   1.0000      -0.623388       -16.9632 
  55   1.0000      -0.619273       -16.8513 
  56   1.0000      -0.618614       -16.8333 
  57   1.0000      -0.617691       -16.8082 
  58   1.0000      -0.594913       -16.1884 
  59   1.0000      -0.582811       -15.8591 
  60   1.0000      -0.564750       -15.3676 
  61   1.0000      -0.553280       -15.0555 
  62   1.0000      -0.551992       -15.0205 
  63   1.0000      -0.542800       -14.7703 
  64   1.0000      -0.534283       -14.5386 
  65   1.0000      -0.510465       -13.8905 
  66   1.0000      -0.507333       -13.8052 
  67   1.0000      -0.496984       -13.5236 
  68   1.0000      -0.492472       -13.4009 
  69   1.0000      -0.482322       -13.1247 
  70   1.0000      -0.473375       -12.8812 
  71   1.0000      -0.473251       -12.8778 
  72   1.0000      -0.471559       -12.8318 
  73   1.0000      -0.464984       -12.6529 
  74   1.0000      -0.445692       -12.1279 
  75   1.0000      -0.444092       -12.0844 
  76   1.0000      -0.436323       -11.8730 
  77   1.0000      -0.432690       -11.7741 
  78   1.0000      -0.431236       -11.7345 
  79   1.0000      -0.429810       -11.6957 
  80   1.0000      -0.428852       -11.6696 
  81   1.0000      -0.424742       -11.5578 
  82   1.0000      -0.414379       -11.2758 
  83   1.0000      -0.401926       -10.9370 
  84   1.0000      -0.401787       -10.9332 
  85   1.0000      -0.394777       -10.7424 
  86   1.0000      -0.393817       -10.7163 
  87   1.0000      -0.386308       -10.5120 
  88   1.0000      -0.385283       -10.4841 
  89   1.0000      -0.382114       -10.3979 
  90   1.0000      -0.381595       -10.3837 
  91   1.0000      -0.368062       -10.0155 
  92   1.0000      -0.361224        -9.8294 
  93   1.0000      -0.360255        -9.8030 
  94   1.0000      -0.359115        -9.7720 
  95   1.0000      -0.358214        -9.7475 
  96   1.0000      -0.345076        -9.3900 
  97   1.0000      -0.343143        -9.3374 
  98   1.0000      -0.336084        -9.1453 
  99   1.0000      -0.335341        -9.1251 
 100   1.0000      -0.331361        -9.0168 
 101   1.0000      -0.330315        -8.9883 
 102   1.0000      -0.326960        -8.8970 
 103   1.0000      -0.325715        -8.8632 
 104   1.0000      -0.312132        -8.4936 
 105   1.0000      -0.285673        -7.7735 
 106   1.0000      -0.280192        -7.6244 
 107   1.0000      -0.278867        -7.5884 
 108   1.0000      -0.275153        -7.4873 
 109   1.0000      -0.273460        -7.4412 
 110   1.0000      -0.271736        -7.3943 
 111   1.0000      -0.266786        -7.2596 
 112   1.0000      -0.265974        -7.2375 
 113   1.0000      -0.260236        -7.0814 
 114   1.0000      -0.230402        -6.2696 
 115   1.0000      -0.209805        -5.7091 
 116   1.0000      -0.173931        -4.7329 
 117   0.0000      -0.076347        -2.0775 
 118   0.0000      -0.049434        -1.3452 
 119   0.0000      -0.016648        -0.4530 
 120   0.0000      -0.015483        -0.4213 
 121   0.0000      -0.014430        -0.3927 
 122   0.0000       0.011530         0.3137 
 123   0.0000       0.034671         0.9435 
 124   0.0000       0.039502         1.0749 
 125   0.0000       0.046123         1.2551 
 126   0.0000       0.049249         1.3401 
 127   0.0000       0.049934         1.3588 
 128   0.0000       0.053625         1.4592 
 129   0.0000       0.055895         1.5210 
 130   0.0000       0.061056         1.6614 
 131   0.0000       0.064089         1.7440 
 132   0.0000       0.071541         1.9467 
 133   0.0000       0.076936         2.0935 
 134   0.0000       0.080113         2.1800 
 135   0.0000       0.086237         2.3466 
 136   0.0000       0.087198         2.3728 
 137   0.0000       0.090347         2.4585 
 138   0.0000       0.090733         2.4690 
 139   0.0000       0.092354         2.5131 
 140   0.0000       0.100613         2.7378 
 141   0.0000       0.100706         2.7403 
 142   0.0000       0.104711         2.8493 
 143   0.0000       0.109779         2.9872 
 144   0.0000       0.117780         3.2049 
 145   0.0000       0.119855         3.2614 
 146   0.0000       0.127173         3.4605 
 147   0.0000       0.133004         3.6192 
 148   0.0000       0.139320         3.7911 
 149   0.0000       0.141969         3.8632 
 150   0.0000       0.142892         3.8883 
 151   0.0000       0.150047         4.0830 
 152   0.0000       0.153889         4.1875 
 153   0.0000       0.157306         4.2805 
 154   0.0000       0.157853         4.2954 
 155   0.0000       0.159752         4.3471 
 156   0.0000       0.164636         4.4800 
 157   0.0000       0.169346         4.6081 
 158   0.0000       0.171216         4.6590 
 159   0.0000       0.171659         4.6711 
 160   0.0000       0.179049         4.8722 
 161   0.0000       0.197312         5.3691 
 162   0.0000       0.197745         5.3809 
 163   0.0000       0.198390         5.3985 
 164   0.0000       0.204323         5.5599 
 165   0.0000       0.214209         5.8289 
 166   0.0000       0.214709         5.8425 
 167   0.0000       0.215048         5.8517 
 168   0.0000       0.221444         6.0258 
 169   0.0000       0.240604         6.5472 
 170   0.0000       0.242087         6.5875 
 171   0.0000       0.253509         6.8983 
 172   0.0000       0.255381         6.9493 
 173   0.0000       0.269910         7.3446 
 174   0.0000       0.272734         7.4215 
 175   0.0000       0.277778         7.5587 
 176   0.0000       0.278129         7.5683 
 177   0.0000       0.280899         7.6436 
 178   0.0000       0.287017         7.8101 
 179   0.0000       0.293075         7.9750 
 180   0.0000       0.305259         8.3065 
 181   0.0000       0.309722         8.4280 
 182   0.0000       0.328935         8.9508 
 183   0.0000       0.329453         8.9649 
 184   0.0000       0.343101         9.3363 
 185   0.0000       0.343988         9.3604 
 186   0.0000       0.350171         9.5286 
 187   0.0000       0.352408         9.5895 
 188   0.0000       0.367654        10.0044 
 189   0.0000       0.372010        10.1229 
 190   0.0000       0.376110        10.2345 
 191   0.0000       0.393221        10.7001 
 192   0.0000       0.402304        10.9473 
 193   0.0000       0.407387        11.0856 
 194   0.0000       0.409493        11.1429 
 195   0.0000       0.411030        11.1847 
 196   0.0000       0.414495        11.2790 
 197   0.0000       0.416965        11.3462 
 198   0.0000       0.428892        11.6708 
 199   0.0000       0.431764        11.7489 
 200   0.0000       0.435637        11.8543 
 201   0.0000       0.436968        11.8905 
 202   0.0000       0.439086        11.9481 
 203   0.0000       0.441207        12.0058 
 204   0.0000       0.444812        12.1040 
 205   0.0000       0.445944        12.1347 
 206   0.0000       0.449958        12.2440 
 207   0.0000       0.454232        12.3603 
 208   0.0000       0.456748        12.4287 
 209   0.0000       0.458322        12.4716 
 210   0.0000       0.460100        12.5200 
 211   0.0000       0.461497        12.5580 
 212   0.0000       0.466832        12.7031 
 213   0.0000       0.475212        12.9312 
 214   0.0000       0.475916        12.9503 
 215   0.0000       0.481618        13.1055 
 216   0.0000       0.488559        13.2944 
 217   0.0000       0.491529        13.3752 
 218   0.0000       0.495716        13.4891 
 219   0.0000       0.496182        13.5018 
 220   0.0000       0.498995        13.5783 
 221   0.0000       0.501403        13.6439 
 222   0.0000       0.503870        13.7110 
 223   0.0000       0.506958        13.7950 
 224   0.0000       0.507920        13.8212 
 225   0.0000       0.509604        13.8670 
 226   0.0000       0.510035        13.8787 
 227   0.0000       0.510962        13.9040 
 228   0.0000       0.512505        13.9460 
 229   0.0000       0.514365        13.9966 
 230   0.0000       0.519023        14.1233 
 231   0.0000       0.523835        14.2543 
 232   0.0000       0.530868        14.4456 
 233   0.0000       0.534900        14.5554 
 234   0.0000       0.541223        14.7274 
 235   0.0000       0.546095        14.8600 
 236   0.0000       0.550613        14.9829 
 237   0.0000       0.553582        15.0637 
 238   0.0000       0.561224        15.2717 
 239   0.0000       0.576304        15.6820 
 240   0.0000       0.578495        15.7417 
 241   0.0000       0.580173        15.7873 
 242   0.0000       0.581605        15.8263 
 243   0.0000       0.593748        16.1567 
 244   0.0000       0.593912        16.1612 
 245   0.0000       0.597665        16.2633 
 246   0.0000       0.604093        16.4382 
 247   0.0000       0.612157        16.6576 
 248   0.0000       0.616469        16.7750 
 249   0.0000       0.617011        16.7897 
 250   0.0000       0.617254        16.7963 
 251   0.0000       0.620118        16.8743 
 252   0.0000       0.623870        16.9764 
 253   0.0000       0.628389        17.0993 
 254   0.0000       0.632979        17.2242 
 255   0.0000       0.635817        17.3015 
 256   0.0000       0.639776        17.4092 
 257   0.0000       0.641011        17.4428 
 258   0.0000       0.645332        17.5604 
 259   0.0000       0.647677        17.6242 
 260   0.0000       0.650636        17.7047 
 261   0.0000       0.653750        17.7894 
 262   0.0000       0.656183        17.8557 
 263   0.0000       0.657965        17.9041 
 264   0.0000       0.658607        17.9216 
 265   0.0000       0.660258        17.9665 
 266   0.0000       0.663965        18.0674 
 267   0.0000       0.665394        18.1063 
 268   0.0000       0.665901        18.1201 
 269   0.0000       0.669922        18.2295 
 270   0.0000       0.670685        18.2503 
 271   0.0000       0.672327        18.2949 
 272   0.0000       0.679704        18.4957 
 273   0.0000       0.685290        18.6477 
 274   0.0000       0.686456        18.6794 
 275   0.0000       0.690040        18.7770 
 276   0.0000       0.690827        18.7984 
 277   0.0000       0.691979        18.8297 
 278   0.0000       0.693390        18.8681 
 279   0.0000       0.698567        19.0090 
 280   0.0000       0.700250        19.0548 
 281   0.0000       0.703850        19.1527 
 282   0.0000       0.704688        19.1755 
 283   0.0000       0.708727        19.2854 
 284   0.0000       0.710567        19.3355 
 285   0.0000       0.715492        19.4695 
 286   0.0000       0.718060        19.5394 
 287   0.0000       0.720064        19.5939 
 288   0.0000       0.725714        19.7477 
 289   0.0000       0.727716        19.8022 
 290   0.0000       0.737865        20.0783 
 291   0.0000       0.738037        20.0830 
 292   0.0000       0.745615        20.2892 
 293   0.0000       0.759770        20.6744 
 294   0.0000       0.761277        20.7154 
 295   0.0000       0.774666        21.0797 
 296   0.0000       0.776445        21.1281 
 297   0.0000       0.784969        21.3601 
 298   0.0000       0.791009        21.5245 
 299   0.0000       0.796480        21.6733 
 300   0.0000       0.807016        21.9600 
 301   0.0000       0.809797        22.0357 
 302   0.0000       0.814563        22.1654 
 303   0.0000       0.818519        22.2730 
 304   0.0000       0.830074        22.5875 
 305   0.0000       0.834728        22.7141 
 306   0.0000       0.840773        22.8786 
 307   0.0000       0.841435        22.8966 
 308   0.0000       0.866366        23.5750 
 309   0.0000       0.868184        23.6245 
 310   0.0000       0.878148        23.8956 
 311   0.0000       0.880910        23.9708 
 312   0.0000       0.883016        24.0281 
 313   0.0000       0.886622        24.1262 
 314   0.0000       0.896060        24.3830 
 315   0.0000       0.900182        24.4952 
 316   0.0000       0.907733        24.7007 
 317   0.0000       0.911847        24.8126 
 318   0.0000       0.912030        24.8176 
 319   0.0000       0.922157        25.0932 
 320   0.0000       0.930464        25.3192 
 321   0.0000       0.934102        25.4182 
 322   0.0000       0.934836        25.4382 
 323   0.0000       0.945447        25.7269 
 324   0.0000       0.957439        26.0532 
 325   0.0000       0.964232        26.2381 
 326   0.0000       0.969458        26.3803 
 327   0.0000       0.970030        26.3958 
 328   0.0000       0.975035        26.5321 
 329   0.0000       0.980639        26.6845 
 330   0.0000       0.984328        26.7849 
 331   0.0000       0.989596        26.9283 
 332   0.0000       0.993815        27.0431 
 333   0.0000       0.995148        27.0794 
 334   0.0000       0.996061        27.1042 
 335   0.0000       1.000530        27.2258 
 336   0.0000       1.006569        27.3901 
 337   0.0000       1.010660        27.5015 
 338   0.0000       1.018329        27.7101 
 339   0.0000       1.021050        27.7842 
 340   0.0000       1.029181        28.0054 
 341   0.0000       1.029850        28.0237 
 342   0.0000       1.038076        28.2475 
 343   0.0000       1.045231        28.4422 
 344   0.0000       1.045988        28.4628 
 345   0.0000       1.046767        28.4840 
 346   0.0000       1.050975        28.5985 
 347   0.0000       1.056850        28.7583 
 348   0.0000       1.060708        28.8633 
 349   0.0000       1.065102        28.9829 
 350   0.0000       1.078931        29.3592 
 351   0.0000       1.081894        29.4398 
 352   0.0000       1.085299        29.5325 
 353   0.0000       1.088289        29.6139 
 354   0.0000       1.095653        29.8142 
 355   0.0000       1.103420        30.0256 
 356   0.0000       1.108616        30.1670 
 357   0.0000       1.116470        30.3807 
 358   0.0000       1.128601        30.7108 
 359   0.0000       1.136048        30.9134 
 360   0.0000       1.138376        30.9768 
 361   0.0000       1.152952        31.3734 
 362   0.0000       1.153164        31.3792 
 363   0.0000       1.163597        31.6631 
 364   0.0000       1.174557        31.9613 
 365   0.0000       1.182163        32.1683 
 366   0.0000       1.195495        32.5311 
 367   0.0000       1.203472        32.7481 
 368   0.0000       1.207091        32.8466 
 369   0.0000       1.210907        32.9504 
 370   0.0000       1.215034        33.0627 
 371   0.0000       1.218001        33.1435 
 372   0.0000       1.222793        33.2739 
 373   0.0000       1.224667        33.3249 
 374   0.0000       1.229303        33.4510 
 375   0.0000       1.250390        34.0249 
 376   0.0000       1.259293        34.2671 
 377   0.0000       1.261789        34.3350 
 378   0.0000       1.276574        34.7373 
 379   0.0000       1.279407        34.8144 
 380   0.0000       1.292968        35.1834 
 381   0.0000       1.294084        35.2138 
 382   0.0000       1.297677        35.3116 
 383   0.0000       1.301179        35.4069 
 384   0.0000       1.310122        35.6502 
 385   0.0000       1.315579        35.7987 
 386   0.0000       1.330172        36.1958 
 387   0.0000       1.333562        36.2881 
 388   0.0000       1.337979        36.4083 
 389   0.0000       1.346990        36.6534 
 390   0.0000       1.349303        36.7164 
 391   0.0000       1.372837        37.3568 
 392   0.0000       1.374084        37.3907 
 393   0.0000       1.379458        37.5370 
 394   0.0000       1.379750        37.5449 
 395   0.0000       1.389687        37.8153 
 396   0.0000       1.397086        38.0167 
 397   0.0000       1.398121        38.0448 
 398   0.0000       1.405163        38.2364 
 399   0.0000       1.411743        38.4155 
 400   0.0000       1.418486        38.5990 
 401   0.0000       1.423296        38.7299 
 402   0.0000       1.423686        38.7405 
 403   0.0000       1.424784        38.7703 
 404   0.0000       1.427096        38.8333 
 405   0.0000       1.429012        38.8854 
 406   0.0000       1.439553        39.1722 
 407   0.0000       1.445534        39.3350 
 408   0.0000       1.457012        39.6473 
 409   0.0000       1.459864        39.7249 
 410   0.0000       1.473767        40.1032 
 411   0.0000       1.474044        40.1108 
 412   0.0000       1.479330        40.2546 
 413   0.0000       1.483365        40.3644 
 414   0.0000       1.485254        40.4158 
 415   0.0000       1.486933        40.4615 
 416   0.0000       1.488366        40.5005 
 417   0.0000       1.491620        40.5890 
 418   0.0000       1.492173        40.6041 
 419   0.0000       1.493859        40.6500 
 420   0.0000       1.505164        40.9576 
 421   0.0000       1.515451        41.2375 
 422   0.0000       1.515768        41.2461 
 423   0.0000       1.522512        41.4297 
 424   0.0000       1.529641        41.6237 
 425   0.0000       1.536339        41.8059 
 426   0.0000       1.547045        42.0972 
 427   0.0000       1.568901        42.6920 
 428   0.0000       1.577021        42.9129 
 429   0.0000       1.577744        42.9326 
 430   0.0000       1.581244        43.0278 
 431   0.0000       1.584009        43.1031 
 432   0.0000       1.588556        43.2268 
 433   0.0000       1.592111        43.3236 
 434   0.0000       1.595468        43.4149 
 435   0.0000       1.595929        43.4274 
 436   0.0000       1.604053        43.6485 
 437   0.0000       1.607475        43.7416 
 438   0.0000       1.612326        43.8736 
 439   0.0000       1.614057        43.9207 
 440   0.0000       1.614151        43.9233 
 441   0.0000       1.622636        44.1542 
 442   0.0000       1.625673        44.2368 
 443   0.0000       1.626821        44.2680 
 444   0.0000       1.628872        44.3239 
 445   0.0000       1.634219        44.4694 
 446   0.0000       1.642458        44.6936 
 447   0.0000       1.645719        44.7823 
 448   0.0000       1.646333        44.7990 
 449   0.0000       1.651667        44.9441 
 450   0.0000       1.651783        44.9473 
 451   0.0000       1.655248        45.0416 
 452   0.0000       1.660705        45.1901 
 453   0.0000       1.669397        45.4266 
 454   0.0000       1.671900        45.4947 
 455   0.0000       1.676454        45.6186 
 456   0.0000       1.680631        45.7323 
 457   0.0000       1.681983        45.7691 
 458   0.0000       1.683523        45.8110 
 459   0.0000       1.684638        45.8413 
 460   0.0000       1.688265        45.9400 
 461   0.0000       1.692307        46.0500 
 462   0.0000       1.697910        46.2025 
 463   0.0000       1.699374        46.2423 
 464   0.0000       1.701487        46.2998 
 465   0.0000       1.703072        46.3429 
 466   0.0000       1.712668        46.6041 
 467   0.0000       1.715673        46.6858 
 468   0.0000       1.727190        46.9992 
 469   0.0000       1.730535        47.0903 
 470   0.0000       1.736349        47.2484 
 471   0.0000       1.739608        47.3371 
 472   0.0000       1.752938        47.6999 
 473   0.0000       1.761174        47.9240 
 474   0.0000       1.762360        47.9563 
 475   0.0000       1.763325        47.9825 
 476   0.0000       1.769327        48.1458 
 477   0.0000       1.769934        48.1623 
 478   0.0000       1.775761        48.3209 
 479   0.0000       1.777371        48.3647 
 480   0.0000       1.777904        48.3792 
 481   0.0000       1.784615        48.5618 
 482   0.0000       1.789737        48.7012 
 483   0.0000       1.793390        48.8006 
 484   0.0000       1.796930        48.8970 
 485   0.0000       1.797446        48.9110 
 486   0.0000       1.807645        49.1885 
 487   0.0000       1.809717        49.2449 
 488   0.0000       1.813921        49.3593 
 489   0.0000       1.821333        49.5610 
 490   0.0000       1.827200        49.7206 
 491   0.0000       1.829999        49.7968 
 492   0.0000       1.830099        49.7995 
 493   0.0000       1.833435        49.8903 
 494   0.0000       1.838905        50.0392 
 495   0.0000       1.846824        50.2546 
 496   0.0000       1.851013        50.3686 
 497   0.0000       1.856609        50.5209 
 498   0.0000       1.866548        50.7913 
 499   0.0000       1.883810        51.2611 
 500   0.0000       1.887353        51.3575 
 501   0.0000       1.899305        51.6827 
 502   0.0000       1.906918        51.8899 
 503   0.0000       1.915505        52.1235 
 504   0.0000       1.917783        52.1855 
 505   0.0000       1.919391        52.2293 
 506   0.0000       1.920763        52.2666 
 507   0.0000       1.927158        52.4406 
 508   0.0000       1.932044        52.5736 
 509   0.0000       1.932952        52.5983 
 510   0.0000       1.946696        52.9723 
 511   0.0000       1.948912        53.0326 
 512   0.0000       1.954822        53.1934 
 513   0.0000       1.961367        53.3715 
 514   0.0000       1.969724        53.5989 
 515   0.0000       1.971047        53.6349 
 516   0.0000       1.973889        53.7122 
 517   0.0000       1.988910        54.1210 
 518   0.0000       1.996854        54.3372 
 519   0.0000       2.001297        54.4580 
 520   0.0000       2.013057        54.7781 
 521   0.0000       2.027783        55.1788 
 522   0.0000       2.032114        55.2966 
 523   0.0000       2.033998        55.3479 
 524   0.0000       2.045025        55.6480 
 525   0.0000       2.045227        55.6535 
 526   0.0000       2.055294        55.9274 
 527   0.0000       2.070574        56.3432 
 528   0.0000       2.078761        56.5660 
[...]

 -----------------------------------------------------------
 Nucleus  56H : A:ISTP=    1 I=  0.5 P=533.5514 MHz/au**3
                Q:ISTP=    2 I=  1.0 Q=  0.0029 barn     
 -----------------------------------------------------------
 Solving for nuclear perturbation:
Forming RHS of the CP-SCF equations         ... 
Calc. nucleus orbit integrals (SHARK)       ... done

------------------------------------------------------------------------------
                           ORCA CP-SCF CALCULATION
------------------------------------------------------------------------------

Input orbitals are from        ... cc-pVDZ.gbw
Input Perturbation             ... cc-pVDZ.pin.tmp
Wavefunction output            ... cc-pVDZ.pout.tmp
Perturbation mode              ... Imaginary perturbation
Solver                         ... POPLE
Max. number of iterations      ... 64
Convergence tolerance          ... 1.000e-03
Integral handling              ... Direct
DFT GridXC                     ... 1
COSX GridX                     ... 1
COSX IntAccX                   ... 3.067
COSX Algorithm                 ... Auto
Number of perturbations        ... 3
Number of operators            ... 2
Orbital ranges used for CP-SCF:
 Operator 0:  Orbitals   0...116  to 117...620
 Operator 1:  Orbitals   0...115  to 116...620
Variables per perturbation     ... 117548
DFT calculation                         ... on
XC functional terms                     ... off
Hybrid DFT                              ... on
   Exchange mixing (SCF)                ...  0.200
   Exchange mixing (CP-SCF)             ...  0.200
   GGA exch. scaling(SCF)               ...  0.720
   GGA exch. scaling (CP-SCF)           ...  0.720
   GGA corr. scaling (SCF)              ...  0.810
   GGA corr. scaling (CP-SCF)           ...  0.810

CP-SCF GRID
-----------

General Integration Accuracy     IntAcc      ... 3.467
Radial Grid Type                 RadialGrid  ... OptM3 with GC (2021)
Angular Grid (max. ang.)         AngularGrid ... 1 (Lebedev-50)
Angular grid pruning method      GridPruning ... 4 (adaptive)
Weight generation scheme         WeightScheme... Becke
Basis function cutoff            BFCut       ... 1.0000e-10
Integration weight cutoff        WCut        ... 1.0000e-14
Angular grids for H and He will be reduced by one unit
Partially contracted basis set               ... off
Rotationally invariant grid construction     ... off

Total number of grid points                  ...    42737
Total number of batches                      ...      693
Average number of points per batch           ...       61
Average number of grid points per atom       ...      678

CP-SCF GRIDX
------------

General Integration Accuracy     IntAcc      ... 3.067
Radial Grid Type                 RadialGrid  ... OptM3 with GC (2021)
Angular Grid (max. ang.)         AngularGrid ... 1 (Lebedev-50)
Angular grid pruning method      GridPruning ... 4 (adaptive)
Weight generation scheme         WeightScheme... Becke
Basis function cutoff            BFCut       ... 1.0000e-10
Integration weight cutoff        WCut        ... 1.0000e-14
Angular grids for H and He will be reduced by one unit
Partially contracted basis set               ... on
Rotationally invariant grid construction     ... off

Total number of grid points                  ...    19910
Total number of batches                      ...      351
Average number of points per batch           ...       56
Average number of grid points per atom       ...      316

Memory available               ... 821.9 MB
Memory needed per perturbation ...  24.3 MB
Perturbations treated per batch... 3
Number of batches              ... 1
     CP-SCF ITERATION   0:   4.7041e-02 (   3.2 sec   0/  3 done)
     CP-SCF ITERATION   1:   2.2184e-03 (   3.3 sec   0/  3 done)
     CP-SCF ITERATION   2:   1.4970e-04 (   3.2 sec   3/  3 done)
                    *** THE CP-SCF HAS CONVERGED ***

Forming final perturbed densities           ... done
Transforming perturbed density to AO basis  ... done

 Raw HFC matrix (all values in MHz): 
 -----------------------------------
                -1.1048               0.5917               0.0010
                 0.5915              -1.5718               0.0022
                 0.0010               0.0022              -2.5956

 A(FC)          -1.7578              -1.7578              -1.7578
 A(SD)           1.0549              -0.2172              -0.8376
 A(ORB+DIA)      0.0007               0.0008              -0.0002    A(PC) =   0.0004
 A(ORB)          0.0006               0.0006               0.0000    A(PC) =   0.0004
 A(DIA)          0.0001               0.0001              -0.0002    A(PC) =   0.0000
             ----------           ----------           ----------
 A(Tot)         -0.7023              -1.9743              -2.5956    A(iso)=   -1.7574
 Orientation: 
  X           0.8267607            0.5625538           -0.0002339
  Y           0.5625527           -0.8267581            0.0023231
  Z           0.0011135           -0.0020523           -0.9999973

Notes:  (1) The A matrix conforms to the "SAI" spin Hamiltonian convention.
        (2) Tensor is right-handed.

 -----------------------------------------------------------
 Nucleus  57H : A:ISTP=    1 I=  0.5 P=533.5514 MHz/au**3
                Q:ISTP=    2 I=  1.0 Q=  0.0029 barn     
 -----------------------------------------------------------
 Solving for nuclear perturbation:
Forming RHS of the CP-SCF equations         ... 
Calc. nucleus orbit integrals (SHARK)       ... done

------------------------------------------------------------------------------
                           ORCA CP-SCF CALCULATION
------------------------------------------------------------------------------

Input orbitals are from        ... cc-pVDZ.gbw
Input Perturbation             ... cc-pVDZ.pin.tmp
Wavefunction output            ... cc-pVDZ.pout.tmp
Perturbation mode              ... Imaginary perturbation
Solver                         ... POPLE
Max. number of iterations      ... 64
Convergence tolerance          ... 1.000e-03
Integral handling              ... Direct
DFT GridXC                     ... 1
COSX GridX                     ... 1
COSX IntAccX                   ... 3.067
COSX Algorithm                 ... Auto
Number of perturbations        ... 3
Number of operators            ... 2
Orbital ranges used for CP-SCF:
 Operator 0:  Orbitals   0...116  to 117...620
 Operator 1:  Orbitals   0...115  to 116...620
Variables per perturbation     ... 117548
DFT calculation                         ... on
XC functional terms                     ... off
Hybrid DFT                              ... on
   Exchange mixing (SCF)                ...  0.200
   Exchange mixing (CP-SCF)             ...  0.200
   GGA exch. scaling(SCF)               ...  0.720
   GGA exch. scaling (CP-SCF)           ...  0.720
   GGA corr. scaling (SCF)              ...  0.810
   GGA corr. scaling (CP-SCF)           ...  0.810

CP-SCF GRID
-----------

General Integration Accuracy     IntAcc      ... 3.467
Radial Grid Type                 RadialGrid  ... OptM3 with GC (2021)
Angular Grid (max. ang.)         AngularGrid ... 1 (Lebedev-50)
Angular grid pruning method      GridPruning ... 4 (adaptive)
Weight generation scheme         WeightScheme... Becke
Basis function cutoff            BFCut       ... 1.0000e-10
Integration weight cutoff        WCut        ... 1.0000e-14
Angular grids for H and He will be reduced by one unit
Partially contracted basis set               ... off
Rotationally invariant grid construction     ... off

Total number of grid points                  ...    42737
Total number of batches                      ...      693
Average number of points per batch           ...       61
Average number of grid points per atom       ...      678

CP-SCF GRIDX
------------

General Integration Accuracy     IntAcc      ... 3.067
Radial Grid Type                 RadialGrid  ... OptM3 with GC (2021)
Angular Grid (max. ang.)         AngularGrid ... 1 (Lebedev-50)
Angular grid pruning method      GridPruning ... 4 (adaptive)
Weight generation scheme         WeightScheme... Becke
Basis function cutoff            BFCut       ... 1.0000e-10
Integration weight cutoff        WCut        ... 1.0000e-14
Angular grids for H and He will be reduced by one unit
Partially contracted basis set               ... on
Rotationally invariant grid construction     ... off

Total number of grid points                  ...    19910
Total number of batches                      ...      351
Average number of points per batch           ...       56
Average number of grid points per atom       ...      316

Memory available               ... 821.1 MB
Memory needed per perturbation ...  24.3 MB
Perturbations treated per batch... 3
Number of batches              ... 1
     CP-SCF ITERATION   0:   4.6844e-02 (   3.1 sec   0/  3 done)
     CP-SCF ITERATION   1:   2.1006e-03 (   3.5 sec   0/  3 done)
     CP-SCF ITERATION   2:   1.3870e-04 (   3.2 sec   3/  3 done)
                    *** THE CP-SCF HAS CONVERGED ***

Forming final perturbed densities           ... done
Transforming perturbed density to AO basis  ... done

 Raw HFC matrix (all values in MHz): 
 -----------------------------------
                -1.9464              -0.2467              -0.0003
                -0.2461              -1.0374               0.0032
                -0.0003               0.0032              -2.2845

 A(FC)          -1.7564              -1.7564              -1.7564
 A(SD)           0.7814              -0.2534              -0.5280
 A(ORB+DIA)      0.0002               0.0009              -0.0001    A(PC) =   0.0003
 A(ORB)          0.0000               0.0008               0.0000    A(PC) =   0.0003
 A(DIA)          0.0002               0.0001              -0.0001    A(PC) =   0.0001
             ----------           ----------           ----------
 A(Tot)         -0.9749              -2.0089              -2.2845    A(iso)=   -1.7561
 Orientation: 
  X          -0.2461308            0.9692360            0.0010608
  Y           0.9692336            0.2461272            0.0027544
  Z           0.0024085            0.0017061           -0.9999956

Notes:  (1) The A matrix conforms to the "SAI" spin Hamiltonian convention.
        (2) Tensor is right-handed.

 -----------------------------------------------------------
 Nucleus  58H : A:ISTP=    1 I=  0.5 P=533.5514 MHz/au**3
                Q:ISTP=    2 I=  1.0 Q=  0.0029 barn     
 -----------------------------------------------------------
 Solving for nuclear perturbation:
Forming RHS of the CP-SCF equations         ... 
Calc. nucleus orbit integrals (SHARK)       ... done

------------------------------------------------------------------------------
                           ORCA CP-SCF CALCULATION
------------------------------------------------------------------------------

Input orbitals are from        ... cc-pVDZ.gbw
Input Perturbation             ... cc-pVDZ.pin.tmp
Wavefunction output            ... cc-pVDZ.pout.tmp
Perturbation mode              ... Imaginary perturbation
Solver                         ... POPLE
Max. number of iterations      ... 64
Convergence tolerance          ... 1.000e-03
Integral handling              ... Direct
DFT GridXC                     ... 1
COSX GridX                     ... 1
COSX IntAccX                   ... 3.067
COSX Algorithm                 ... Auto
Number of perturbations        ... 3
Number of operators            ... 2
Orbital ranges used for CP-SCF:
 Operator 0:  Orbitals   0...116  to 117...620
 Operator 1:  Orbitals   0...115  to 116...620
Variables per perturbation     ... 117548
DFT calculation                         ... on
XC functional terms                     ... off
Hybrid DFT                              ... on
   Exchange mixing (SCF)                ...  0.200
   Exchange mixing (CP-SCF)             ...  0.200
   GGA exch. scaling(SCF)               ...  0.720
   GGA exch. scaling (CP-SCF)           ...  0.720
   GGA corr. scaling (SCF)              ...  0.810
   GGA corr. scaling (CP-SCF)           ...  0.810

CP-SCF GRID
-----------

General Integration Accuracy     IntAcc      ... 3.467
Radial Grid Type                 RadialGrid  ... OptM3 with GC (2021)
Angular Grid (max. ang.)         AngularGrid ... 1 (Lebedev-50)
Angular grid pruning method      GridPruning ... 4 (adaptive)
Weight generation scheme         WeightScheme... Becke
Basis function cutoff            BFCut       ... 1.0000e-10
Integration weight cutoff        WCut        ... 1.0000e-14
Angular grids for H and He will be reduced by one unit
Partially contracted basis set               ... off
Rotationally invariant grid construction     ... off

Total number of grid points                  ...    42737
Total number of batches                      ...      693
Average number of points per batch           ...       61
Average number of grid points per atom       ...      678

CP-SCF GRIDX
------------

General Integration Accuracy     IntAcc      ... 3.067
Radial Grid Type                 RadialGrid  ... OptM3 with GC (2021)
Angular Grid (max. ang.)         AngularGrid ... 1 (Lebedev-50)
Angular grid pruning method      GridPruning ... 4 (adaptive)
Weight generation scheme         WeightScheme... Becke
Basis function cutoff            BFCut       ... 1.0000e-10
Integration weight cutoff        WCut        ... 1.0000e-14
Angular grids for H and He will be reduced by one unit
Partially contracted basis set               ... on
Rotationally invariant grid construction     ... off

Total number of grid points                  ...    19910
Total number of batches                      ...      351
Average number of points per batch           ...       56
Average number of grid points per atom       ...      316

Memory available               ... 820.4 MB
Memory needed per perturbation ...  24.3 MB
Perturbations treated per batch... 3
Number of batches              ... 1
     CP-SCF ITERATION   0:   4.5313e-02 (   3.3 sec   0/  3 done)
     CP-SCF ITERATION   1:   1.9636e-03 (   3.1 sec   0/  3 done)
     CP-SCF ITERATION   2:   1.2596e-04 (   3.3 sec   3/  3 done)
                    *** THE CP-SCF HAS CONVERGED ***

Forming final perturbed densities           ... done
Transforming perturbed density to AO basis  ... done

 Raw HFC matrix (all values in MHz): 
 -----------------------------------
                 1.5420               0.3220               0.0002
                 0.3221               0.5953               0.0003
                 0.0002               0.0003               0.4635

 A(FC)           0.8670               0.8670               0.8670
 A(SD)          -0.4035              -0.3709               0.7744
 A(ORB+DIA)     -0.0000               0.0001              -0.0002    A(PC) =  -0.0001
 A(ORB)         -0.0000               0.0001              -0.0003    A(PC) =  -0.0001
 A(DIA)          0.0000              -0.0000               0.0000    A(PC) =   0.0000
             ----------           ----------           ----------
 A(Tot)          0.4635               0.4961               1.6411    A(iso)=    0.8669
 Orientation: 
  X           0.0015564           -0.2942541           -0.9557260
  Y          -0.0059324            0.9557076           -0.2942581
  Z           0.9999812            0.0061277           -0.0002582

Notes:  (1) The A matrix conforms to the "SAI" spin Hamiltonian convention.
        (2) Tensor is right-handed.


--------------------------------------------------------------------------------
----------------------------------------------------------------------------
                           ORCA EULER ANGLE PROGRAM
----------------------------------------------------------------------------

Only g-tensor available        -->  using g-tensor as reference tensor

Reference tensor               ...  g

g-tensor ordering              ...  |g_min> --> |gx>
                                    |g_mid> --> |gy>
                                    |g_max> --> |gz>

A- and EFG-tensor ordering     ...  the axes |Ax>, |Qx>, |Ay>, etc. are assigned
                                    such that the Euler rotation is minimal. You
                                    can find the respective eigenvalues as Ax,
                                    EFGx, Ay, etc. in the tables below.
                                    The relation of |Ax>, |Ay>,  etc. to Amin, Amid, etc.
                                    (as printed in the ORCA EPR/NMR CALCULATION Output)
                                    is obtained in the detailed printout.

Euler rotation around          ...  z - y - z
   First rotation              -->  by alpha around z
   Second rotation             -->  by beta around y'
   Third rotation              -->  by gamma around z''
   Positive / Negative angle   -->  clockwise / counterclockwise rotation

Plot EFG-tensors                    (-)
Plot HFC-tensors                    (-)
Detailed Printout                   (-)

-------------------------------------------------------------------------
          Euler rotation of hyperfine tensor to g-tensor
-------------------------------------------------------------------------

-------------------------------------------------------------------
 Atom  |   Alpha    Beta    Gamma   |   Ax       Ay       Az 
       |          [degrees]         |           [MHz]         
-------------------------------------------------------------------
  9H       90.0     23.4    -90.0     -16.08    -7.04   -19.62
 10H       90.0     26.6    -90.0       4.02     4.64     9.33
 12H      -90.0     26.6     90.0     -45.55   -17.02   -70.21
 14H       77.5     22.8    -57.5      56.23    65.66    57.53
 15H      102.2     22.8   -122.2      56.16    65.59    57.47
 17H       12.5     15.1     18.8      -3.13    -2.97     3.12
 18H      167.4     15.0    161.2      -3.13    -2.97     3.12
 20H     -117.6     36.4     73.1      -0.10     0.02     2.21
 21H      -62.3     36.4    106.9      -0.10     0.03     2.21
 23H       91.5     24.7   -135.5      19.80    20.36    23.41
 24H       88.5     24.7    -44.4      19.86    20.42    23.47
 26H      -78.5     41.5     71.2      -0.96    -0.84     0.96
 27H     -101.3     41.5    108.9      -0.96    -0.84     0.95
 29H      -98.5     12.5    134.1      -0.10    -0.15     0.79
 30H      -81.8     12.5     46.1      -0.10    -0.15     0.79
 32H     -102.2     27.9    106.0      -0.12    -0.10     0.37
 33H      -77.8     27.9     74.1      -0.12    -0.10     0.37
 35H      -90.1     19.0     89.9      -0.78    -0.80     0.75
 36H      -89.6     17.3     90.1      -0.13    -0.13     0.24
 43H      -90.2     25.7     90.2       0.45     0.25     0.68
 44H       90.2     18.9    -90.2      -0.34    -0.53    -0.15
 45H      -90.2     14.3     90.3       0.54     1.44     0.12
 46H       90.1     41.9    -90.0       0.59     0.14     1.38
 47H       90.7      7.7    -90.6      -0.35    -0.19    -0.48
 54H      -90.2     23.6     90.2      -1.37    -0.43    -1.95
 55H      -90.0     36.4     90.0       0.52     1.41     0.67
 56H       90.3      7.2    -90.3      -2.60    -0.70    -1.97
 57H      -90.2     12.8     90.1      -2.28    -2.01    -0.97
 58H      -88.9      9.9     88.9       0.46     1.64     0.50
-------------------------------------------------------------------


Maximum memory used throughout the entire EPRNMR-calculation: 321.0 MB

Timings for individual modules:

Sum of individual times         ...    13575.358 sec (= 226.256 min)
GTO integral calculation        ...        6.546 sec (=   0.109 min)   0.0 %
Spin-Orbit-Coupling Matrices    ...       15.086 sec (=   0.251 min)   0.1 %
SCF iterations                  ...       54.517 sec (=   0.909 min)   0.4 %
EPR/NMR calculation             ...    13499.208 sec (= 224.987 min)  99.4 %
                             ****ORCA TERMINATED NORMALLY****
TOTAL RUN TIME: 0 days 3 hours 46 minutes 19 seconds 917 msec
