
                                 *****************
                                 * O   R   C   A *
                                 *****************

                                            #,                                       
                                            ###                                      
                                            ####                                     
                                            #####                                    
                                            ######                                   
                                           ########,                                 
                                     ,,################,,,,,                         
                               ,,#################################,,                 
                          ,,##########################################,,             
                       ,#########################################, ''#####,          
                    ,#############################################,,   '####,        
                  ,##################################################,,,,####,       
                ,###########''''           ''''###############################       
              ,#####''   ,,,,##########,,,,          '''####'''          '####       
            ,##' ,,,,###########################,,,                        '##       
           ' ,,###''''                  '''############,,,                           
         ,,##''                                '''############,,,,        ,,,,,,###''
      ,#''                                            '''#######################'''  
     '                                                          ''''####''''         
             ,#######,   #######,   ,#######,      ##                                
            ,#'     '#,  ##    ##  ,#'     '#,    #''#        ######   ,####,        
            ##       ##  ##   ,#'  ##            #'  '#       #        #'  '#        
            ##       ##  #######   ##           ,######,      #####,   #    #        
            '#,     ,#'  ##    ##  '#,     ,#' ,#      #,         ##   #,  ,#        
             '#######'   ##     ##  '#######'  #'      '#     #####' # '####'        



                  #######################################################
                  #                        -***-                        #
                  #          Department of theory and spectroscopy      #
                  #    Directorship and core code : Frank Neese         #
                  #        Max Planck Institute fuer Kohlenforschung    #
                  #                Kaiser Wilhelm Platz 1               #
                  #                 D-45470 Muelheim/Ruhr               #
                  #                      Germany                        #
                  #                                                     #
                  #                  All rights reserved                #
                  #                        -***-                        #
                  #######################################################


                         Program Version 5.0.4 -  RELEASE  -


 With contributions from (in alphabetic order):
   Daniel Aravena         : Magnetic Suceptibility
   Michael Atanasov       : Ab Initio Ligand Field Theory (pilot matlab implementation)
   Alexander A. Auer      : GIAO ZORA, VPT2 properties, NMR spectrum
   Ute Becker             : Parallelization
   Giovanni Bistoni       : ED, misc. LED, open-shell LED, HFLD
   Martin Brehm           : Molecular dynamics
   Dmytro Bykov           : SCF Hessian
   Vijay G. Chilkuri      : MRCI spin determinant printing, contributions to CSF-ICE
   Dipayan Datta          : RHF DLPNO-CCSD density
   Achintya Kumar Dutta   : EOM-CC, STEOM-CC
   Dmitry Ganyushin       : Spin-Orbit,Spin-Spin,Magnetic field MRCI
   Miquel Garcia          : C-PCM and meta-GGA Hessian, CC/C-PCM, Gaussian charge scheme
   Yang Guo               : DLPNO-NEVPT2, F12-NEVPT2, CIM, IAO-localization
   Andreas Hansen         : Spin unrestricted coupled pair/coupled cluster methods
   Benjamin Helmich-Paris : MC-RPA, TRAH-SCF, COSX integrals
   Lee Huntington         : MR-EOM, pCC
   Robert Izsak           : Overlap fitted RIJCOSX, COSX-SCS-MP3, EOM
   Marcus Kettner         : VPT2
   Christian Kollmar      : KDIIS, OOCD, Brueckner-CCSD(T), CCSD density, CASPT2, CASPT2-K
   Simone Kossmann        : Meta GGA functionals, TD-DFT gradient, OOMP2, MP2 Hessian
   Martin Krupicka        : Initial AUTO-CI
   Lucas Lang             : DCDCAS
   Marvin Lechner         : AUTO-CI (C++ implementation), FIC-MRCC
   Dagmar Lenk            : GEPOL surface, SMD
   Dimitrios Liakos       : Extrapolation schemes; Compound Job, initial MDCI parallelization
   Dimitrios Manganas     : Further ROCIS development; embedding schemes
   Dimitrios Pantazis     : SARC Basis sets
   Anastasios Papadopoulos: AUTO-CI, single reference methods and gradients
   Taras Petrenko         : DFT Hessian,TD-DFT gradient, ASA, ECA, R-Raman, ABS, FL, XAS/XES, NRVS
   Peter Pinski           : DLPNO-MP2, DLPNO-MP2 Gradient
   Christoph Reimann      : Effective Core Potentials
   Marius Retegan         : Local ZFS, SOC
   Christoph Riplinger    : Optimizer, TS searches, QM/MM, DLPNO-CCSD(T), (RO)-DLPNO pert. Triples
   Tobias Risthaus        : Range-separated hybrids, TD-DFT gradient, RPA, STAB
   Michael Roemelt        : Original ROCIS implementation
   Masaaki Saitow         : Open-shell DLPNO-CCSD energy and density
   Barbara Sandhoefer     : DKH picture change effects
   Avijit Sen             : IP-ROCIS
   Kantharuban Sivalingam : CASSCF convergence, NEVPT2, FIC-MRCI
   Bernardo de Souza      : ESD, SOC TD-DFT
   Georgi Stoychev        : AutoAux, RI-MP2 NMR, DLPNO-MP2 response
   Willem Van den Heuvel  : Paramagnetic NMR
   Boris Wezisla          : Elementary symmetry handling
   Frank Wennmohs         : Technical directorship


 We gratefully acknowledge several colleagues who have allowed us to
 interface, adapt or use parts of their codes:
   Stefan Grimme, W. Hujo, H. Kruse, P. Pracht,  : VdW corrections, initial TS optimization,
                  C. Bannwarth, S. Ehlert          DFT functionals, gCP, sTDA/sTD-DF
   Ed Valeev, F. Pavosevic, A. Kumar             : LibInt (2-el integral package), F12 methods
   Garnet Chan, S. Sharma, J. Yang, R. Olivares  : DMRG
   Ulf Ekstrom                                   : XCFun DFT Library
   Mihaly Kallay                                 : mrcc  (arbitrary order and MRCC methods)
   Jiri Pittner, Ondrej Demel                    : Mk-CCSD
   Frank Weinhold                                : gennbo (NPA and NBO analysis)
   Christopher J. Cramer and Donald G. Truhlar   : smd solvation model
   Lars Goerigk                                  : TD-DFT with DH, B97 family of functionals
   V. Asgeirsson, H. Jonsson                     : NEB implementation
   FAccTs GmbH                                   : IRC, NEB, NEB-TS, DLPNO-Multilevel, CI-OPT
                                                   MM, QMMM, 2- and 3-layer-ONIOM, Crystal-QMMM,
                                                   LR-CPCM, SF, NACMEs, symmetry and pop. for TD-DFT,
                                                   nearIR, NL-DFT gradient (VV10), updates on ESD,
                                                   ML-optimized integration grids
   S Lehtola, MJT Oliveira, MAL Marques          : LibXC Library
   Liviu Ungur et al                             : ANISO software


 Your calculation uses the libint2 library for the computation of 2-el integrals
 For citations please refer to: http://libint.valeyev.net

 Your ORCA version has been built with support for libXC version: 5.1.0
 For citations please refer to: https://tddft.org/programs/libxc/

 This ORCA versions uses:
   CBLAS   interface :  Fast vector & matrix operations
   LAPACKE interface :  Fast linear algebra routines
   SCALAPACK package :  Parallel linear algebra routines
   Shared memory     :  Shared parallel matrices
   BLAS/LAPACK       :  OpenBLAS 0.3.15  USE64BITINT DYNAMIC_ARCH NO_AFFINITY SkylakeX SINGLE_THREADED
        Core in use  :  SkylakeX
   Copyright (c) 2011-2014, The OpenBLAS Project




***************************************
The coordinates will be read from file: opt_cc-pVDZ.xyz
***************************************


================================================================================

----- Orbital basis set information -----
Your calculation utilizes the basis: cc-pVDZ 
       H, B-Ne : Obtained from the ccRepo (grant-hill.group.shef.ac.uk/ccrepo) Feb. 2017
                 T. H. Dunning, Jr., J. Chem. Phys. 90, 1007 (1989)
            He : Obtained from the ccRepo (grant-hill.group.shef.ac.uk/ccrepo) Feb. 2017
                 D. E. Woon, T. H. Dunning, Jr., J. Chem. Phys. 100, 2975 (1994)
  Li-Be, Na-Mg : Obtained from the ccRepo (grant-hill.group.shef.ac.uk/ccrepo) Feb. 2017
                 B. P. Prascher, D. E. Woon, K. A. Peterson, T. H. Dunning, Jr., A. K. Wilson, Theor. Chem. Acc. 128, 69 (2011)
         Al-Ar : Obtained from the ccRepo (grant-hill.group.shef.ac.uk/ccrepo) Feb. 2017
                 D. E. Woon, T. H. Dunning, Jr., J. Chem. Phys. 98, 1358 (1993)
            Ca : Obtained from the Peterson Research Group Website (tyr0.chem.wsu.edu/~kipeters) Feb. 2017
                 J. Koput, K. A. Peterson, J. Phys. Chem. 106, 9595 (2002)
         Sc-Zn : Obtained from the ccRepo (grant-hill.group.shef.ac.uk/ccrepo) Feb. 2017
                 N. B. Balabanov, K. A. Peterson, J. Chem. Phys. 123, 064107 (2005)
                 N. B. Balabanov, K. A. Peterson, J. Chem. Phys. 125, 074110 (2006)
         Ga-Kr : Obtained from the ccRepo (grant-hill.group.shef.ac.uk/ccrepo) Feb. 2017
                 A. K. Wilson, D. E. Woon, K. A. Peterson, T. H. Dunning, Jr., J. Chem. Phys. 110, 7667 (1999)

----- AuxJ basis set information -----
Your calculation utilizes the AutoAux generation procedure.
  G. L. Stoychev, A. A. Auer, F. Neese, J. Chem. Theory Comput. 13, 554 (2017)

----- AuxC basis set information -----
Your calculation utilizes the AutoAux generation procedure.
  G. L. Stoychev, A. A. Auer, F. Neese, J. Chem. Theory Comput. 13, 554 (2017)

----- AuxJK basis set information -----
Your calculation utilizes the AutoAux generation procedure.
  G. L. Stoychev, A. A. Auer, F. Neese, J. Chem. Theory Comput. 13, 554 (2017)

================================================================================
                                        WARNINGS
                       Please study these warnings very carefully!
================================================================================

WARNING: Old DensityContainer found on disk!
         Will remove this file - 
         If you want to keep old densities, please start your calculation with a different basename. 


WARNING: your system is open-shell and RHF/RKS was chosen
  ===> : WILL SWITCH to UHF/UKS


INFO   : the flag for use of the SHARK integral package has been found!

================================================================================
                                       INPUT FILE
================================================================================
NAME = cc-pVDZ_i.inp
|  1> ! B3LYP cc-pVDZ AUTOAUX
|  2> %pal nprocs 16 end
|  3> *XYZFile 0 2 opt_cc-pVDZ.xyz
|  4> %EPRNMR
|  5>         GTENSOR   TRUE
|  6>         NUCLEI    = ALL H {SHIFT, AISO, ADIP, AORB}
|  7>         ORI       GIAO
|  8> END
|  9> 
| 10>                          ****END OF INPUT****
================================================================================

                       ****************************
                       * Single Point Calculation *
                       ****************************

---------------------------------
CARTESIAN COORDINATES (ANGSTROEM)
---------------------------------
  C     12.367466   -0.027254   -0.004271
  C     11.143539   -0.069299   -0.003040
  C      5.470131   -0.000662   -0.000815
  C      9.724526   -0.089437   -0.002678
  C      8.990499   -1.335723   -0.006213
  C      7.570641   -1.236827   -0.005284
  C      6.897657   -0.012283   -0.001347
  C      7.634582    1.216940    0.002004
  C      9.026256    1.135002    0.001260
  H      6.974283   -2.149427   -0.007828
  H      9.620187    2.048805    0.003763
  C      9.646544   -2.584699   -0.010513
  H     10.739691   -2.574825   -0.011224
  C      8.960010   -3.917865   -0.014285
  H      8.287727   -4.000766    0.864628
  H      8.285669   -3.994755   -0.892161
  C      9.931394   -5.105586   -0.019539
  H     10.590733   -5.027211   -0.903247
  H     10.593189   -5.033054    0.862831
  C      9.222319   -6.461124   -0.023062
  H      8.577847   -6.574132   -0.911994
  H      8.580458   -6.580123    0.866977
  C      6.889022    2.534941    0.006282
  H      6.210012    2.549779   -0.866924
  H      6.212620    2.545607    0.881592
  C      7.734368    3.811262    0.008082
  H      8.398869    3.820544    0.891619
  H      8.396779    3.824334   -0.876981
  C      6.878874    5.084153    0.011857
  H      6.211424    5.076210   -0.869877
  H      6.213550    5.072435    0.895157
  C      7.710870    6.368993    0.013614
  H      8.360868    6.426451   -0.876552
  H      8.363212    6.422506    0.902310
  C      4.247600    0.004800    0.000267
  H      9.944286   -7.293461   -0.026932
  H      7.069825    7.265432    0.016449
  C      2.821974    0.006564    0.000675
  C      2.097717   -1.206649   -0.001354
  C      0.707606   -1.204525   -0.001048
  C     -0.010713    0.010051    0.001310
  C      0.710586    1.222936    0.003369
  C      2.100604    1.221532    0.003068
  H     -3.729564    0.015721    0.002046
  H      0.163795    2.167534    0.005200
  H      2.643471   -2.151786   -0.003192
  H      2.648407    2.165507    0.004660
  H      0.158546   -2.147798   -0.002644
  C     13.789690    0.031504   -0.004822
  C     14.565842   -1.150310   -0.007823
  C     15.954243   -1.089616   -0.008291
  C     16.621265    0.154185   -0.005806
  C     15.849032    1.335648   -0.002864
  C     14.460686    1.276220   -0.002390
  H     20.336370    0.317181   -0.006913
  H     16.355741    2.302369   -0.000948
  H     14.061634   -2.118278   -0.009746
  H     13.873587    2.196248   -0.000104
  H     16.542333   -2.009094   -0.010582
  C     18.050447    0.216424   -0.006272
  C     19.264950    0.269530   -0.006594
  C     -1.441514    0.012000    0.001596
  C     -2.657054    0.014002    0.001839

----------------------------
CARTESIAN COORDINATES (A.U.)
----------------------------
  NO LB      ZA    FRAG     MASS         X           Y           Z
   0 C     6.0000    0    12.011   23.371124   -0.051502   -0.008070
   1 C     6.0000    0    12.011   21.058236   -0.130956   -0.005744
   2 C     6.0000    0    12.011   10.337049   -0.001252   -0.001540
   3 C     6.0000    0    12.011   18.376690   -0.169011   -0.005061
   4 C     6.0000    0    12.011   16.989582   -2.524151   -0.011741
   5 C     6.0000    0    12.011   14.306438   -2.337265   -0.009984
   6 C     6.0000    0    12.011   13.034683   -0.023211   -0.002545
   7 C     6.0000    0    12.011   14.427269    2.299684    0.003788
   8 C     6.0000    0    12.011   17.057152    2.144842    0.002381
   9 H     1.0000    0     1.008   13.179486   -4.061829   -0.014792
  10 H     1.0000    0     1.008   18.179519    3.871680    0.007111
  11 C     6.0000    0    12.011   18.229326   -4.884374   -0.019866
  12 H     1.0000    0     1.008   20.295074   -4.865714   -0.021211
  13 C     6.0000    0    12.011   16.931965   -7.403692   -0.026995
  14 H     1.0000    0     1.008   15.661535   -7.560352    1.633910
  15 H     1.0000    0     1.008   15.657646   -7.548993   -1.685940
  16 C     6.0000    0    12.011   18.767615   -9.648159   -0.036924
  17 H     1.0000    0     1.008   20.013584   -9.500052   -1.706889
  18 H     1.0000    0     1.008   20.018227   -9.511094    1.630514
  19 C     6.0000    0    12.011   17.427657  -12.209754   -0.043581
  20 H     1.0000    0     1.008   16.209782  -12.423309   -1.723418
  21 H     1.0000    0     1.008   16.214716  -12.434630    1.638349
  22 C     6.0000    0    12.011   13.018364    4.790344    0.011872
  23 H     1.0000    0     1.008   11.735222    4.818383   -1.638249
  24 H     1.0000    0     1.008   11.740150    4.810501    1.665967
  25 C     6.0000    0    12.011   14.615838    7.202241    0.015272
  26 H     1.0000    0     1.008   15.871562    7.219783    1.684916
  27 H     1.0000    0     1.008   15.867613    7.226944   -1.657254
  28 C     6.0000    0    12.011   12.999188    9.607657    0.022407
  29 H     1.0000    0     1.008   11.737890    9.592647   -1.643829
  30 H     1.0000    0     1.008   11.741908    9.585512    1.691602
  31 C     6.0000    0    12.011   14.571433   12.035652    0.025728
  32 H     1.0000    0     1.008   15.799752   12.144232   -1.656443
  33 H     1.0000    0     1.008   15.804181   12.136777    1.705118
  34 C     6.0000    0    12.011    8.026802    0.009071    0.000505
  35 H     1.0000    0     1.008   18.791978  -13.782643   -0.050894
  36 H     1.0000    0     1.008   13.360034   13.729677    0.031084
  37 C     6.0000    0    12.011    5.332758    0.012404    0.001276
  38 C     6.0000    0    12.011    3.964110   -2.280236   -0.002559
  39 C     6.0000    0    12.011    1.337181   -2.276222   -0.001981
  40 C     6.0000    0    12.011   -0.020245    0.018993    0.002475
  41 C     6.0000    0    12.011    1.342813    2.311014    0.006367
  42 C     6.0000    0    12.011    3.969566    2.308360    0.005798
  43 H     1.0000    0     1.008   -7.047854    0.029709    0.003867
  44 H     1.0000    0     1.008    0.309528    4.096045    0.009827
  45 H     1.0000    0     1.008    4.995436   -4.066287   -0.006032
  46 H     1.0000    0     1.008    5.004765    4.092215    0.008807
  47 H     1.0000    0     1.008    0.299608   -4.058750   -0.004996
  48 C     6.0000    0    12.011   26.058738    0.059533   -0.009113
  49 C     6.0000    0    12.011   27.525453   -2.173771   -0.014783
  50 C     6.0000    0    12.011   30.149150   -2.059075   -0.015668
  51 C     6.0000    0    12.011   31.409638    0.291368   -0.010971
  52 C     6.0000    0    12.011   29.950331    2.524009   -0.005413
  53 C     6.0000    0    12.011   27.326736    2.411705   -0.004516
  54 H     1.0000    0     1.008   38.430169    0.599386   -0.013063
  55 H     1.0000    0     1.008   30.907872    4.350846   -0.001791
  56 H     1.0000    0     1.008   26.572638   -4.002965   -0.018418
  57 H     1.0000    0     1.008   26.217280    4.150307   -0.000196
  58 H     1.0000    0     1.008   31.260479   -3.796638   -0.019998
  59 C     6.0000    0    12.011   34.110402    0.408982   -0.011852
  60 C     6.0000    0    12.011   36.405479    0.509338   -0.012461
  61 C     6.0000    0    12.011   -2.724067    0.022677    0.003017
  62 C     6.0000    0    12.011   -5.021104    0.026460    0.003475

--------------------------------
INTERNAL COORDINATES (ANGSTROEM)
--------------------------------
 C      0   0   0     0.000000000000     0.00000000     0.00000000
 C      1   0   0     1.224650251843     0.00000000     0.00000000
 C      2   1   0     5.673823521177   177.33913846     0.00000000
 C      2   1   3     1.419156004634   178.84473766     1.37708441
 C      4   2   1     1.446387692769   121.30972829   177.69437291
 C      5   4   2     1.423298812713   116.51231292   179.99058121
 C      6   5   4     1.397294660997   122.77655512     0.00000000
 C      7   6   5     1.433198514702   120.26507192     0.00000000
 C      8   7   6     1.394084276365   117.57316627     0.00000000
 H      6   5   4     1.090177790589   119.17892145   180.00110978
 H      9   8   7     1.089860883827   119.65234315   180.00173884
 C      5   4   2     1.410799073018   121.79197708     0.00000000
 H     12   5   4     1.093191518337   117.19388251     0.00000000
 C     12   5   4     1.499558319339   125.04190759   179.99709394
 H     14  12   5     1.109650896127   109.98656477   302.57485596
 H     14  12   5     1.109645464915   109.98762758    57.35026925
 C     14  12   5     1.534371262553   113.47519267   179.96090127
 H     17  14  12     1.105354568521   108.99482800   302.32620841
 H     17  14  12     1.105355550847   108.99650755    57.64620599
 C     17  14  12     1.529798698637   113.10820320   179.98777341
 H     20  17  14     1.103772728110   111.29742528    59.86814715
 H     20  17  14     1.103772902969   111.29754774   300.11800602
 C      8   7   6     1.514266799865   119.56155850   180.00137127
 H     23   8   7     1.106238137434   108.15891331   303.79353247
 H     23   8   7     1.106254652701   108.15999881    56.34535669
 C     23   8   7     1.530885209245   116.98656940   180.06904527
 H     26  23   8     1.105570146842   109.86682027   301.71519519
 H     26  23   8     1.105574739762   109.86268788    58.23965082
 C     26  23   8     1.533667705284   112.57780759   179.97740386
 H     29  26  23     1.105897241920   109.19201378   302.33359496
 H     29  26  23     1.105898827408   109.19338768    57.67258559
 C     29  26  23     1.530696863177   113.17052250   180.00311453
 H     32  29  26     1.103719049864   111.27664755    59.86687000
 H     32  29  26     1.103717923679   111.27693883   300.14753874
 C      3   2   1     1.222543026681   179.56198074   182.93977298
 H     20  17  14     1.101833363858   111.44812607   179.99262845
 H     32  29  26     1.102066264698   111.50649009   180.00719791
 C     35   3   7     1.425627507397   179.81170935   341.55129872
 C     38  35   3     1.412953881335   120.76517681    10.39628204
 C     39  38  35     1.390112878805   120.74849957   180.00442120
 C     40  39  38     1.411092142677   120.68828432     0.00000000
 C     41  40  39     1.411158135953   118.65951337     0.00000000
 C     42  41  40     1.390018693722   120.68188282     0.00000000
 H     41  40  39     3.718854484214   120.68807762   179.99851590
 H     42  41  40     1.091443023199   119.19538717   179.99997364
 H     39  38  35     1.091391616557   119.16037325     0.00000000
 H     43  42  41     1.091412103615   120.06932088   179.99915698
 H     40  39  38     1.091436840843   120.11516711   179.99910091
 C      1   2   4     1.423437292123   179.60018770     7.20846492
 C     49   1   2     1.413896717608   120.92900446   175.05183986
 C     50  49   1     1.389726764505   120.79165084   180.00301735
 C     51  50  49     1.411369993720   120.70662403     0.00000000
 C     52  51  50     1.411455111344   118.62691032     0.00000000
 C     53  52  51     1.389617954930   120.71849579     0.00000000
 H     52  51  50     3.718679148416   120.71570842   179.99740575
 H     53  52  51     1.091469870728   119.16914990   180.00121179
 H     50  49   1     1.091417216580   119.19063540     0.00000000
 H     54  53  52     1.091395009002   120.09213582   179.99990088
 H     51  50  49     1.091464667903   120.09947686   179.99778994
 C     52  51  50     1.430537292327   120.69708754   179.99922768
 C     55  52  51     1.072479229672     0.03435664   359.93512322
 C     41  40  39     1.430801965691   120.67878622   179.99868774
 C     44  41  40     1.072510927580     0.00449283     3.65120686

---------------------------
INTERNAL COORDINATES (A.U.)
---------------------------
 C      0   0   0     0.000000000000     0.00000000     0.00000000
 C      1   0   0     2.314253585820     0.00000000     0.00000000
 C      2   1   0    10.721972587226   177.33913846     0.00000000
 C      2   1   3     2.681816190067   178.84473766     1.37708441
 C      4   2   1     2.733276622808   121.30972829   177.69437291
 C      5   4   2     2.689644962763   116.51231292   179.99058121
 C      6   5   4     2.640504237674   122.77655512     0.00000000
 C      7   6   5     2.708352688329   120.26507192     0.00000000
 C      8   7   6     2.634437489937   117.57316627     0.00000000
 H      6   5   4     2.060137461497   119.17892145   180.00110978
 H      9   8   7     2.059538594507   119.65234315   180.00173884
 C      5   4   2     2.666023877995   121.79197708     0.00000000
 H     12   5   4     2.065832581583   117.19388251     0.00000000
 C     12   5   4     2.833754545394   125.04190759   179.99709394
 H     14  12   5     2.096936297940   109.98656477   302.57485596
 H     14  12   5     2.096926034438   109.98762758    57.35026925
 C     14  12   5     2.899541473983   113.47519267   179.96090127
 H     17  14  12     2.088817415383   108.99482800   302.32620841
 H     17  14  12     2.088819271711   108.99650755    57.64620599
 C     17  14  12     2.890900580453   113.10820320   179.98777341
 H     20  17  14     2.085828170219   111.29742528    59.86814715
 H     20  17  14     2.085828500655   111.29754774   300.11800602
 C      8   7   6     2.861549545434   119.56155850   180.00137127
 H     23   8   7     2.090487118650   108.15891331   303.79353247
 H     23   8   7     2.090518327981   108.15999881    56.34535669
 C     23   8   7     2.892953787944   116.98656940   180.06904527
 H     26  23   8     2.089224799370   109.86682027   301.71519519
 H     26  23   8     2.089233478731   109.86268788    58.23965082
 C     26  23   8     2.898211943425   112.57780759   179.97740386
 H     29  26  23     2.089842919487   109.19201378   302.33359496
 H     29  26  23     2.089845915625   109.19338768    57.67258559
 C     29  26  23     2.892597865457   113.17052250   180.00311453
 H     32  29  26     2.085726733036   111.27664755    59.86687000
 H     32  29  26     2.085724604854   111.27693883   300.14753874
 C      3   2   1     2.310271507362   179.56198074   182.93977298
 H     20  17  14     2.082163302909   111.44812607   179.99262845
 H     32  29  26     2.082603421713   111.50649009   180.00719791
 C     35   3   7     2.694045557964   179.81170935   341.55129872
 C     38  35   3     2.670095875585   120.76517681    10.39628204
 C     39  38  35     2.626932636178   120.74849957   180.00442120
 C     40  39  38     2.666577699387   120.68828432     0.00000000
 C     41  40  39     2.666702408605   118.65951337     0.00000000
 C     42  41  40     2.626754652166   120.68188282     0.00000000
 H     41  40  39     7.027616507069   120.68807762   179.99851590
 H     42  41  40     2.062528404625   119.19538717   179.99997364
 H     39  38  35     2.062431260150   119.16037325     0.00000000
 H     43  42  41     2.062469975079   120.06932088   179.99915698
 H     40  39  38     2.062516721666   120.11516711   179.99910091
 C      1   2   4     2.689906650922   179.60018770     7.20846492
 C     49   1   2     2.671877577930   120.92900446   175.05183986
 C     50  49   1     2.626202985895   120.79165084   180.00301735
 C     51  50  49     2.667102761765   120.70662403     0.00000000
 C     52  51  50     2.667263610763   118.62691032     0.00000000
 C     53  52  51     2.625997365597   120.71849579     0.00000000
 H     52  51  50     7.027285170430   120.71570842   179.99740575
 H     53  52  51     2.062579139103   119.16914990   180.00121179
 H     50  49   1     2.062479637182   119.19063540     0.00000000
 H     54  53  52     2.062437670943   120.09213582   179.99990088
 H     51  50  49     2.062569307189   120.09947686   179.99778994
 C     52  51  50     2.703323706860   120.69708754   179.99922768
 C     55  52  51     2.026692028400     0.03435664   359.93512322
 C     41  40  39     2.703823867032   120.67878622   179.99868774
 C     44  41  40     2.026751928764     0.00449283     3.65120686

---------------------
BASIS SET INFORMATION
---------------------
There are 2 groups of distinct atoms

 Group   1 Type C   : 17s4p1d contracted to 3s2p1d pattern {881/31/1}
 Group   2 Type H   : 4s1p contracted to 2s1p pattern {31/1}

Atom   0C    basis set group =>   1
Atom   1C    basis set group =>   1
Atom   2C    basis set group =>   1
Atom   3C    basis set group =>   1
Atom   4C    basis set group =>   1
Atom   5C    basis set group =>   1
Atom   6C    basis set group =>   1
Atom   7C    basis set group =>   1
Atom   8C    basis set group =>   1
Atom   9H    basis set group =>   2
Atom  10H    basis set group =>   2
Atom  11C    basis set group =>   1
Atom  12H    basis set group =>   2
Atom  13C    basis set group =>   1
Atom  14H    basis set group =>   2
Atom  15H    basis set group =>   2
Atom  16C    basis set group =>   1
Atom  17H    basis set group =>   2
Atom  18H    basis set group =>   2
Atom  19C    basis set group =>   1
Atom  20H    basis set group =>   2
Atom  21H    basis set group =>   2
Atom  22C    basis set group =>   1
Atom  23H    basis set group =>   2
Atom  24H    basis set group =>   2
Atom  25C    basis set group =>   1
Atom  26H    basis set group =>   2
Atom  27H    basis set group =>   2
Atom  28C    basis set group =>   1
Atom  29H    basis set group =>   2
Atom  30H    basis set group =>   2
Atom  31C    basis set group =>   1
Atom  32H    basis set group =>   2
Atom  33H    basis set group =>   2
Atom  34C    basis set group =>   1
Atom  35H    basis set group =>   2
Atom  36H    basis set group =>   2
Atom  37C    basis set group =>   1
Atom  38C    basis set group =>   1
Atom  39C    basis set group =>   1
Atom  40C    basis set group =>   1
Atom  41C    basis set group =>   1
Atom  42C    basis set group =>   1
Atom  43H    basis set group =>   2
Atom  44H    basis set group =>   2
Atom  45H    basis set group =>   2
Atom  46H    basis set group =>   2
Atom  47H    basis set group =>   2
Atom  48C    basis set group =>   1
Atom  49C    basis set group =>   1
Atom  50C    basis set group =>   1
Atom  51C    basis set group =>   1
Atom  52C    basis set group =>   1
Atom  53C    basis set group =>   1
Atom  54H    basis set group =>   2
Atom  55H    basis set group =>   2
Atom  56H    basis set group =>   2
Atom  57H    basis set group =>   2
Atom  58H    basis set group =>   2
Atom  59C    basis set group =>   1
Atom  60C    basis set group =>   1
Atom  61C    basis set group =>   1
Atom  62C    basis set group =>   1
---------------------------------
AUXILIARY/J BASIS SET INFORMATION
---------------------------------
There are 2 groups of distinct atoms

 Group   1 Type C   : 14s11p10d2f contracted to 14s11p10d2f pattern {11111111111111/11111111111/1111111111/11}
 Group   2 Type H   : 9s2p1d contracted to 9s2p1d pattern {111111111/11/1}

Atom   0C    basis set group =>   1
Atom   1C    basis set group =>   1
Atom   2C    basis set group =>   1
Atom   3C    basis set group =>   1
Atom   4C    basis set group =>   1
Atom   5C    basis set group =>   1
Atom   6C    basis set group =>   1
Atom   7C    basis set group =>   1
Atom   8C    basis set group =>   1
Atom   9H    basis set group =>   2
Atom  10H    basis set group =>   2
Atom  11C    basis set group =>   1
Atom  12H    basis set group =>   2
Atom  13C    basis set group =>   1
Atom  14H    basis set group =>   2
Atom  15H    basis set group =>   2
Atom  16C    basis set group =>   1
Atom  17H    basis set group =>   2
Atom  18H    basis set group =>   2
Atom  19C    basis set group =>   1
Atom  20H    basis set group =>   2
Atom  21H    basis set group =>   2
Atom  22C    basis set group =>   1
Atom  23H    basis set group =>   2
Atom  24H    basis set group =>   2
Atom  25C    basis set group =>   1
Atom  26H    basis set group =>   2
Atom  27H    basis set group =>   2
Atom  28C    basis set group =>   1
Atom  29H    basis set group =>   2
Atom  30H    basis set group =>   2
Atom  31C    basis set group =>   1
Atom  32H    basis set group =>   2
Atom  33H    basis set group =>   2
Atom  34C    basis set group =>   1
Atom  35H    basis set group =>   2
Atom  36H    basis set group =>   2
Atom  37C    basis set group =>   1
Atom  38C    basis set group =>   1
Atom  39C    basis set group =>   1
Atom  40C    basis set group =>   1
Atom  41C    basis set group =>   1
Atom  42C    basis set group =>   1
Atom  43H    basis set group =>   2
Atom  44H    basis set group =>   2
Atom  45H    basis set group =>   2
Atom  46H    basis set group =>   2
Atom  47H    basis set group =>   2
Atom  48C    basis set group =>   1
Atom  49C    basis set group =>   1
Atom  50C    basis set group =>   1
Atom  51C    basis set group =>   1
Atom  52C    basis set group =>   1
Atom  53C    basis set group =>   1
Atom  54H    basis set group =>   2
Atom  55H    basis set group =>   2
Atom  56H    basis set group =>   2
Atom  57H    basis set group =>   2
Atom  58H    basis set group =>   2
Atom  59C    basis set group =>   1
Atom  60C    basis set group =>   1
Atom  61C    basis set group =>   1
Atom  62C    basis set group =>   1
---------------------------------
AUXILIARY/C BASIS SET INFORMATION
---------------------------------
There are 2 groups of distinct atoms

 Group   1 Type C   : 14s11p10d2f contracted to 14s11p10d2f pattern {11111111111111/11111111111/1111111111/11}
 Group   2 Type H   : 9s2p1d contracted to 9s2p1d pattern {111111111/11/1}

Atom   0C    basis set group =>   1
Atom   1C    basis set group =>   1
Atom   2C    basis set group =>   1
Atom   3C    basis set group =>   1
Atom   4C    basis set group =>   1
Atom   5C    basis set group =>   1
Atom   6C    basis set group =>   1
Atom   7C    basis set group =>   1
Atom   8C    basis set group =>   1
Atom   9H    basis set group =>   2
Atom  10H    basis set group =>   2
Atom  11C    basis set group =>   1
Atom  12H    basis set group =>   2
Atom  13C    basis set group =>   1
Atom  14H    basis set group =>   2
Atom  15H    basis set group =>   2
Atom  16C    basis set group =>   1
Atom  17H    basis set group =>   2
Atom  18H    basis set group =>   2
Atom  19C    basis set group =>   1
Atom  20H    basis set group =>   2
Atom  21H    basis set group =>   2
Atom  22C    basis set group =>   1
Atom  23H    basis set group =>   2
Atom  24H    basis set group =>   2
Atom  25C    basis set group =>   1
Atom  26H    basis set group =>   2
Atom  27H    basis set group =>   2
Atom  28C    basis set group =>   1
Atom  29H    basis set group =>   2
Atom  30H    basis set group =>   2
Atom  31C    basis set group =>   1
Atom  32H    basis set group =>   2
Atom  33H    basis set group =>   2
Atom  34C    basis set group =>   1
Atom  35H    basis set group =>   2
Atom  36H    basis set group =>   2
Atom  37C    basis set group =>   1
Atom  38C    basis set group =>   1
Atom  39C    basis set group =>   1
Atom  40C    basis set group =>   1
Atom  41C    basis set group =>   1
Atom  42C    basis set group =>   1
Atom  43H    basis set group =>   2
Atom  44H    basis set group =>   2
Atom  45H    basis set group =>   2
Atom  46H    basis set group =>   2
Atom  47H    basis set group =>   2
Atom  48C    basis set group =>   1
Atom  49C    basis set group =>   1
Atom  50C    basis set group =>   1
Atom  51C    basis set group =>   1
Atom  52C    basis set group =>   1
Atom  53C    basis set group =>   1
Atom  54H    basis set group =>   2
Atom  55H    basis set group =>   2
Atom  56H    basis set group =>   2
Atom  57H    basis set group =>   2
Atom  58H    basis set group =>   2
Atom  59C    basis set group =>   1
Atom  60C    basis set group =>   1
Atom  61C    basis set group =>   1
Atom  62C    basis set group =>   1
----------------------------------
AUXILIARY/JK BASIS SET INFORMATION
----------------------------------
There are 2 groups of distinct atoms

 Group   1 Type C   : 14s11p10d2f contracted to 14s11p10d2f pattern {11111111111111/11111111111/1111111111/11}
 Group   2 Type H   : 9s2p1d contracted to 9s2p1d pattern {111111111/11/1}

Atom   0C    basis set group =>   1
Atom   1C    basis set group =>   1
Atom   2C    basis set group =>   1
Atom   3C    basis set group =>   1
Atom   4C    basis set group =>   1
Atom   5C    basis set group =>   1
Atom   6C    basis set group =>   1
Atom   7C    basis set group =>   1
Atom   8C    basis set group =>   1
Atom   9H    basis set group =>   2
Atom  10H    basis set group =>   2
Atom  11C    basis set group =>   1
Atom  12H    basis set group =>   2
Atom  13C    basis set group =>   1
Atom  14H    basis set group =>   2
Atom  15H    basis set group =>   2
Atom  16C    basis set group =>   1
Atom  17H    basis set group =>   2
Atom  18H    basis set group =>   2
Atom  19C    basis set group =>   1
Atom  20H    basis set group =>   2
Atom  21H    basis set group =>   2
Atom  22C    basis set group =>   1
Atom  23H    basis set group =>   2
Atom  24H    basis set group =>   2
Atom  25C    basis set group =>   1
Atom  26H    basis set group =>   2
Atom  27H    basis set group =>   2
Atom  28C    basis set group =>   1
Atom  29H    basis set group =>   2
Atom  30H    basis set group =>   2
Atom  31C    basis set group =>   1
Atom  32H    basis set group =>   2
Atom  33H    basis set group =>   2
Atom  34C    basis set group =>   1
Atom  35H    basis set group =>   2
Atom  36H    basis set group =>   2
Atom  37C    basis set group =>   1
Atom  38C    basis set group =>   1
Atom  39C    basis set group =>   1
Atom  40C    basis set group =>   1
Atom  41C    basis set group =>   1
Atom  42C    basis set group =>   1
Atom  43H    basis set group =>   2
Atom  44H    basis set group =>   2
Atom  45H    basis set group =>   2
Atom  46H    basis set group =>   2
Atom  47H    basis set group =>   2
Atom  48C    basis set group =>   1
Atom  49C    basis set group =>   1
Atom  50C    basis set group =>   1
Atom  51C    basis set group =>   1
Atom  52C    basis set group =>   1
Atom  53C    basis set group =>   1
Atom  54H    basis set group =>   2
Atom  55H    basis set group =>   2
Atom  56H    basis set group =>   2
Atom  57H    basis set group =>   2
Atom  58H    basis set group =>   2
Atom  59C    basis set group =>   1
Atom  60C    basis set group =>   1
Atom  61C    basis set group =>   1
Atom  62C    basis set group =>   1

Checking for AutoStart:
The File: cc-pVDZ_i.gbw exists
Trying to determine its content:
     ... Fine, the file contains calculation information
     ... Fine, the calculation information was read
     ... Fine, the file contains a basis set
     ... Fine, the basis set was read
     ... Fine, the file contains a geometry
     ... Fine, the geometry was read
     ... Fine, the file contains a set of orbitals
     ... Fine, the orbitals can be read
     => possible old guess file was deleted
     => GBW file was renamed to GES file
     => GES file is set as startup file
     => Guess is set to MORead
     ... now leaving AutoStart



           ************************************************************
           *        Program running with 16 parallel MPI-processes    *
           *              working on a common directory               *
           ************************************************************
------------------------------------------------------------------------------
                           ORCA GTO INTEGRAL CALCULATION
                           -- RI-GTO INTEGRALS CHOSEN --
------------------------------------------------------------------------------
------------------------------------------------------------------------------
                   ___                                                        
                  /   \      - P O W E R E D   B Y -                         
                 /     \                                                     
                 |  |  |   _    _      __       _____    __    __             
                 |  |  |  | |  | |    /  \     |  _  \  |  |  /  |          
                  \  \/   | |  | |   /    \    | | | |  |  | /  /          
                 / \  \   | |__| |  /  /\  \   | |_| |  |  |/  /          
                |  |  |   |  __  | /  /__\  \  |    /   |      \           
                |  |  |   | |  | | |   __   |  |    \   |  |\   \          
                \     /   | |  | | |  |  |  |  | |\  \  |  | \   \       
                 \___/    |_|  |_| |__|  |__|  |_| \__\ |__|  \__/        
                                                                              
                      - O R C A' S   B I G   F R I E N D -                    
                                      &                                       
                       - I N T E G R A L  F E E D E R -                       
                                                                              
 v1 FN, 2020, v2 2021                                                         
------------------------------------------------------------------------------


Reading SHARK input file cc-pVDZ_i.SHARKINP.tmp ... ok
----------------------
SHARK INTEGRAL PACKAGE
----------------------

Number of atoms                             ...     63
Number of basis functions                   ...    825
Number of shells                            ...    495
Maximum angular momentum                    ...      2
Integral batch strategy                     ... SHARK/LIBINT Hybrid
RI-J (if used) integral strategy            ... SPLIT-RIJ (Revised 2003 algorithm where possible)
Printlevel                                  ...      1
Contraction scheme used                     ... PARTIAL GENERAL contraction
Coulomb Range Separation                    ... NOT USED
Exchange Range Separation                   ... NOT USED
Finite Nucleus Model                        ... NOT USED
Auxiliary Coulomb fitting basis             ... AVAILABLE
   # of basis functions in Aux-J            ...   4354
   # of shells in Aux-J                     ...   1606
   Maximum angular momentum in Aux-J        ...      3
Auxiliary J/K fitting basis                 ... AVAILABLE
   # of basis functions in Aux-JK           ...   4354
   # of shells in Aux-JK                    ...   1606
   Maximum angular momentum in Aux-JK       ...      3
Auxiliary Correlation fitting basis         ... AVAILABLE
   # of basis functions in Aux-C            ...   4354
   # of shells in Aux-C                     ...   1606
   Maximum angular momentum in Aux-C        ...      3
Auxiliary 'external' fitting basis          ... NOT available
Integral threshold                          ...     1.000000e-10
Primitive cut-off                           ...     1.000000e-11
Primitive pair pre-selection threshold      ...     1.000000e-11

Calculating pre-screening integrals         ... done (  0.0 sec) Dimension = 495
Calculating pre-screening integrals (ORCA)  ... done (  0.1 sec) Dimension = 291
Organizing shell pair data                  ... done (  0.2 sec)
Shell pair information
Total number of shell pairs                 ...    122760
Shell pairs after pre-screening             ...     35059
Total number of primitive shell pairs       ...    193320
Primitive shell pairs kept                  ...     46510
          la=0 lb=0:  14908 shell pairs
          la=1 lb=0:  12456 shell pairs
          la=1 lb=1:   2233 shell pairs
          la=2 lb=0:   3831 shell pairs
          la=2 lb=1:   1394 shell pairs
          la=2 lb=2:    237 shell pairs

Calculating one electron integrals          ... done (  0.1 sec)
Calculating RI/J V-Matrix + Cholesky decomp.... done (  1.1 sec)
Calculating RI/JK V-Matrix + Cholesky decomp... done (  1.1 sec)
Calculating RI/C V-Matrix + Cholesky decomp.... done (  1.1 sec)
Calculating Nuclear repulsion               ... done (  0.0 sec) ENN=   2735.910982189827 Eh

SHARK setup successfully completed in   4.1 seconds

Maximum memory used throughout the entire GTOINT-calculation: 65.4 MB


           ************************************************************
           *        Program running with 16 parallel MPI-processes    *
           *              working on a common directory               *
           ************************************************************
-------------------------------------------------------------------------------
                                 ORCA SCF
-------------------------------------------------------------------------------

------------
SCF SETTINGS
------------
Hamiltonian:
 Density Functional     Method          .... DFT(GTOs)
 Exchange Functional    Exchange        .... B88
   X-Alpha parameter    XAlpha          ....  0.666667
   Becke's b parameter  XBeta           ....  0.004200
 Correlation Functional Correlation     .... LYP
 LDA part of GGA corr.  LDAOpt          .... VWN-5
 Gradients option       PostSCFGGA      .... off
 Hybrid DFT is turned on
   Fraction HF Exchange ScalHFX         ....  0.200000
   Scaling of DF-GGA-X  ScalDFX         ....  0.720000
   Scaling of DF-GGA-C  ScalDFC         ....  0.810000
   Scaling of DF-LDA-C  ScalLDAC        ....  1.000000
   Perturbative correction              ....  0.000000
   Density functional embedding theory  .... OFF
   NL short-range parameter             ....  4.800000
 RI-approximation to the Coulomb term is turned on
   Number of AuxJ basis functions       .... 4354
   RIJ-COSX (HFX calculated with COS-X)).... on


General Settings:
 Integral files         IntName         .... cc-pVDZ_i
 Hartree-Fock type      HFTyp           .... UHF
 Total Charge           Charge          ....    0
 Multiplicity           Mult            ....    2
 Number of Electrons    NEL             ....  233
 Basis Dimension        Dim             ....  621
 Nuclear Repulsion      ENuc            ....   2735.9109821898 Eh

Convergence Acceleration:
 DIIS                   CNVDIIS         .... on
   Start iteration      DIISMaxIt       ....    12
   Startup error        DIISStart       ....  0.200000
   # of expansion vecs  DIISMaxEq       ....     5
   Bias factor          DIISBfac        ....   1.050
   Max. coefficient     DIISMaxC        ....  10.000
 Trust-Rad. Augm. Hess. CNVTRAH         .... auto
   Auto Start mean grad. ratio tolernc. ....  1.125000
   Auto Start start iteration           ....     1
   Auto Start num. interpolation iter.  ....    10
   Max. Number of Micro iterations      ....    16
   Max. Number of Macro iterations      .... Maxiter - #DIIS iter
   Number of Davidson start vectors     ....     2
   Converg. threshold I  (grad. norm)   ....   5.000e-05
   Converg. threshold II (energy diff.) ....   1.000e-06
   Grad. Scal. Fac. for Micro threshold ....   0.100
   Minimum threshold for Micro iter.    ....   0.010
   NR start threshold (gradient norm)   ....   0.001
   Initial trust radius                 ....   0.400
   Minimum AH scaling param. (alpha)    ....   1.000
   Maximum AH scaling param. (alpha)    .... 1000.000
   Orbital update algorithm             .... Taylor
   White noise on init. David. guess    .... on
   Maximum white noise                  ....   0.010
   Quad. conv. algorithm                .... NR
 SOSCF                  CNVSOSCF        .... off
 Level Shifting         CNVShift        .... on
   Level shift para.    LevelShift      ....    0.2500
   Turn off err/grad.   ShiftErr        ....    0.0010
 Zerner damping         CNVZerner       .... off
 Static damping         CNVDamp         .... on
   Fraction old density DampFac         ....    0.7000
   Max. Damping (<1)    DampMax         ....    0.9800
   Min. Damping (>=0)   DampMin         ....    0.0000
   Turn off err/grad.   DampErr         ....    0.1000
 Fernandez-Rico         CNVRico         .... off

SCF Procedure:
 Maximum # iterations   MaxIter         ....   125
 SCF integral mode      SCFMode         .... Direct
   Integral package                     .... SHARK and LIBINT hybrid scheme
 Reset frequency        DirectResetFreq ....    20
 Integral Threshold     Thresh          ....  1.000e-10 Eh
 Primitive CutOff       TCut            ....  1.000e-11 Eh

Convergence Tolerance:
 Convergence Check Mode ConvCheckMode   .... Total+1el-Energy
 Convergence forced     ConvForced      .... 0
 Energy Change          TolE            ....  1.000e-06 Eh
 1-El. energy change                    ....  1.000e-03 Eh
 DIIS Error             TolErr          ....  1.000e-06


Diagonalization of the overlap matrix:
Smallest eigenvalue                        ... 4.461e-05
Time for diagonalization                   ...    0.076 sec
Threshold for overlap eigenvalues          ... 1.000e-08
Number of eigenvalues below threshold      ... 0
Time for construction of square roots      ...    0.072 sec
Total time needed                          ...    0.149 sec

---------------------
INITIAL GUESS: MOREAD
---------------------
Guess MOs are being read from file: cc-pVDZ_i.ges
Input geometry compatible with but different from current geometry
Input basis set matches current basis set (good)
MOs were renormalized
MOs were reorthogonalized (Cholesky)
                      ------------------
                      INITIAL GUESS DONE (   0.3 sec)
                      ------------------
-------------------
DFT GRID GENERATION
-------------------

General Integration Accuracy     IntAcc      ... 4.388
Radial Grid Type                 RadialGrid  ... OptM3 with GC (2021)
Angular Grid (max. ang.)         AngularGrid ... 4 (Lebedev-302)
Angular grid pruning method      GridPruning ... 4 (adaptive)
Weight generation scheme         WeightScheme... Becke
Basis function cutoff            BFCut       ... 1.0000e-10
Integration weight cutoff        WCut        ... 1.0000e-14
Angular grids for H and He will be reduced by one unit
Partially contracted basis set               ... off
Rotationally invariant grid construction     ... off

Total number of grid points                  ...   295740
Total number of batches                      ...     4659
Average number of points per batch           ...       63
Average number of grid points per atom       ...     4694
Time for grid setup =    1.871 sec

--------------------
COSX GRID GENERATION
--------------------

GRIDX 1
-------
General Integration Accuracy     IntAcc      ... 3.816
Radial Grid Type                 RadialGrid  ... OptM3 with GC (2021)
Angular Grid (max. ang.)         AngularGrid ... 1 (Lebedev-50)
Angular grid pruning method      GridPruning ... 4 (adaptive)
Weight generation scheme         WeightScheme... Becke
Basis function cutoff            BFCut       ... 1.0000e-10
Integration weight cutoff        WCut        ... 1.0000e-14
Angular grids for H and He will be reduced by one unit
Partially contracted basis set               ... on
Rotationally invariant grid construction     ... off

Total number of grid points                  ...    37651
Total number of batches                      ...      626
Average number of points per batch           ...       60
Average number of grid points per atom       ...      598
UseSFitting                                  ... on

GRIDX 2
-------
General Integration Accuracy     IntAcc      ... 4.020
Radial Grid Type                 RadialGrid  ... OptM3 with GC (2021)
Angular Grid (max. ang.)         AngularGrid ... 2 (Lebedev-110)
Angular grid pruning method      GridPruning ... 4 (adaptive)
Weight generation scheme         WeightScheme... Becke
Basis function cutoff            BFCut       ... 1.0000e-10
Integration weight cutoff        WCut        ... 1.0000e-14
Angular grids for H and He will be reduced by one unit
Partially contracted basis set               ... on
Rotationally invariant grid construction     ... off

Total number of grid points                  ...    81058
Total number of batches                      ...     1298
Average number of points per batch           ...       62
Average number of grid points per atom       ...     1287
UseSFitting                                  ... on

GRIDX 3
-------
General Integration Accuracy     IntAcc      ... 4.338
Radial Grid Type                 RadialGrid  ... OptM3 with GC (2021)
Angular Grid (max. ang.)         AngularGrid ... 3 (Lebedev-194)
Angular grid pruning method      GridPruning ... 4 (adaptive)
Weight generation scheme         WeightScheme... Becke
Basis function cutoff            BFCut       ... 1.0000e-10
Integration weight cutoff        WCut        ... 1.0000e-14
Angular grids for H and He will be reduced by one unit
Partially contracted basis set               ... on
Rotationally invariant grid construction     ... off

Total number of grid points                  ...   177423
Total number of batches                      ...     2806
Average number of points per batch           ...       63
Average number of grid points per atom       ...     2816
UseSFitting                                  ... on

Time for X-Grid setup             =    3.352 sec

 re-compute Schwartz prescreening matrix in partically contracted basis (1) ...done (   0.123 sec)
--------------
SCF ITERATIONS
--------------
ITER       Energy         Delta-E        Max-DP      RMS-DP      [F,P]     Damp
               ***  Starting incremental Fock matrix formation  ***
  0  -1312.0489633307   0.000000000000 0.00006166  0.00000107  0.0002523 0.7000
  1  -1312.0489645060  -0.000001175283 0.00005155  0.00000091  0.0002021 0.7000
                               ***Turning on DIIS***
                 **** Energy Check signals convergence ****

               *****************************************************
               *                     SUCCESS                       *
               *           SCF CONVERGED AFTER   2 CYCLES          *
               *****************************************************

Old exchange energy                            =    -37.268559308 Eh
New exchange energy                            =    -37.268689044 Eh
Exchange energy change after final integration =     -0.000129736 Eh
Total energy after final integration           =  -1312.049095199 Eh
Final COS-X integration done in                =    13.409 sec

----------------
TOTAL SCF ENERGY
----------------

Total Energy       :        -1312.04909520 Eh          -35702.67097 eV

Components:
Nuclear Repulsion  :         2735.91098219 Eh           74447.92268 eV
Electronic Energy  :        -4047.96007739 Eh         -110150.59365 eV
One Electron Energy:        -7208.05578159 Eh         -196141.16944 eV
Two Electron Energy:         3160.09570421 Eh           85990.57579 eV
Max COSX asymmetry :            0.00000078 Eh               0.00002 eV

Virial components:
Potential Energy   :        -2615.24766052 Eh          -71164.50678 eV
Kinetic Energy     :         1303.19856532 Eh           35461.83581 eV
Virial Ratio       :            2.00679139


DFT components:
N(Alpha)           :      117.000158194573 electrons
N(Beta)            :      116.000145247666 electrons
N(Total)           :      233.000303442239 electrons
E(X)               :     -147.897426777353 Eh       
E(C)               :       -9.123527171795 Eh       
E(XC)              :     -157.020953949148 Eh       
DFET-embed. en.    :        0.000000000000 Eh       

---------------
SCF CONVERGENCE
---------------

  Last Energy change         ...   -9.5744e-07  Tolerance :   1.0000e-06
  Last MAX-Density change    ...    0.0000e+00  Tolerance :   1.0000e-05
  Last RMS-Density change    ...    0.0000e+00  Tolerance :   1.0000e-06
  Last DIIS Error            ...    1.5358e-04  Tolerance :   1.0000e-06

             **** THE GBW FILE WAS UPDATED (cc-pVDZ_i.gbw) ****
             **** DENSITY cc-pVDZ_i.scfp WAS UPDATED ****
             **** ENERGY FILE WAS UPDATED (cc-pVDZ_i.en.tmp) ****
----------------------
UHF SPIN CONTAMINATION
----------------------

Warning: in a DFT calculation there is little theoretical justification to 
         calculate <S**2> as in Hartree-Fock theory. We will do it anyways
         but you should keep in mind that the values have only limited relevance

Expectation value of <S**2>     :     0.789271
Ideal value S*(S+1) for S=0.5   :     0.750000
Deviation                       :     0.039271

             **** THE GBW FILE WAS UPDATED (cc-pVDZ_i.gbw) ****
             **** DENSITY cc-pVDZ_i.scfp WAS UPDATED ****
----------------
ORBITAL ENERGIES
----------------
                 SPIN UP ORBITALS
  NO   OCC          E(Eh)            E(eV) 
   0   1.0000     -10.224020      -278.2097 
   1   1.0000     -10.222769      -278.1757 
   2   1.0000     -10.222240      -278.1613 
   3   1.0000     -10.221302      -278.1358 
   4   1.0000     -10.217775      -278.0398 
   5   1.0000     -10.215775      -277.9854 
   6   1.0000     -10.205877      -277.7160 
   7   1.0000     -10.204409      -277.6761 
   8   1.0000     -10.204333      -277.6740 
   9   1.0000     -10.203783      -277.6591 
  10   1.0000     -10.203672      -277.6560 
  11   1.0000     -10.202889      -277.6347 
  12   1.0000     -10.202703      -277.6297 
  13   1.0000     -10.202384      -277.6210 
  14   1.0000     -10.202175      -277.6153 
  15   1.0000     -10.201924      -277.6085 
  16   1.0000     -10.198389      -277.5123 
  17   1.0000     -10.196049      -277.4486 
  18   1.0000     -10.195805      -277.4420 
  19   1.0000     -10.195231      -277.4263 
  20   1.0000     -10.194405      -277.4039 
  21   1.0000     -10.193984      -277.3924 
  22   1.0000     -10.193300      -277.3738 
  23   1.0000     -10.193086      -277.3680 
  24   1.0000     -10.191928      -277.3365 
  25   1.0000     -10.191177      -277.3160 
  26   1.0000     -10.190801      -277.3058 
  27   1.0000     -10.190036      -277.2850 
  28   1.0000     -10.189553      -277.2718 
  29   1.0000     -10.186617      -277.1919 
  30   1.0000     -10.184414      -277.1320 
  31   1.0000     -10.184132      -277.1243 
  32   1.0000     -10.179263      -276.9918 
  33   1.0000     -10.177543      -276.9450 
  34   1.0000      -0.877869       -23.8880 
  35   1.0000      -0.875378       -23.8202 
  36   1.0000      -0.873908       -23.7803 
  37   1.0000      -0.824140       -22.4260 
  38   1.0000      -0.809068       -22.0159 
  39   1.0000      -0.806195       -21.9377 
  40   1.0000      -0.798924       -21.7398 
  41   1.0000      -0.793147       -21.5826 
  42   1.0000      -0.770992       -20.9798 
  43   1.0000      -0.759752       -20.6739 
  44   1.0000      -0.758711       -20.6456 
  45   1.0000      -0.758414       -20.6375 
  46   1.0000      -0.746282       -20.3074 
  47   1.0000      -0.736970       -20.0540 
  48   1.0000      -0.725982       -19.7550 
  49   1.0000      -0.712950       -19.4004 
  50   1.0000      -0.700411       -19.0592 
  51   1.0000      -0.660758       -17.9802 
  52   1.0000      -0.658108       -17.9080 
  53   1.0000      -0.642365       -17.4797 
  54   1.0000      -0.623384       -16.9631 
  55   1.0000      -0.619289       -16.8517 
  56   1.0000      -0.618616       -16.8334 
  57   1.0000      -0.617701       -16.8085 
  58   1.0000      -0.594908       -16.1883 
  59   1.0000      -0.582808       -15.8590 
  60   1.0000      -0.564743       -15.3674 
  61   1.0000      -0.553282       -15.0556 
  62   1.0000      -0.551998       -15.0206 
  63   1.0000      -0.542807       -14.7705 
  64   1.0000      -0.534292       -14.5388 
  65   1.0000      -0.510462       -13.8904 
  66   1.0000      -0.507321       -13.8049 
  67   1.0000      -0.496986       -13.5237 
  68   1.0000      -0.492471       -13.4008 
  69   1.0000      -0.482313       -13.1244 
  70   1.0000      -0.473368       -12.8810 
  71   1.0000      -0.473268       -12.8783 
  72   1.0000      -0.471570       -12.8321 
  73   1.0000      -0.464986       -12.6529 
  74   1.0000      -0.445704       -12.1282 
  75   1.0000      -0.444100       -12.0846 
  76   1.0000      -0.436321       -11.8729 
  77   1.0000      -0.432681       -11.7739 
  78   1.0000      -0.431247       -11.7348 
  79   1.0000      -0.429819       -11.6960 
  80   1.0000      -0.428850       -11.6696 
  81   1.0000      -0.424735       -11.5576 
  82   1.0000      -0.414372       -11.2756 
  83   1.0000      -0.401918       -10.9368 
  84   1.0000      -0.401786       -10.9331 
  85   1.0000      -0.394794       -10.7429 
  86   1.0000      -0.393826       -10.7165 
  87   1.0000      -0.386324       -10.5124 
  88   1.0000      -0.385293       -10.4844 
  89   1.0000      -0.382108       -10.3977 
  90   1.0000      -0.381591       -10.3836 
  91   1.0000      -0.368055       -10.0153 
  92   1.0000      -0.361232        -9.8296 
  93   1.0000      -0.360258        -9.8031 
  94   1.0000      -0.359119        -9.7721 
  95   1.0000      -0.358206        -9.7473 
  96   1.0000      -0.345083        -9.3902 
  97   1.0000      -0.343140        -9.3373 
  98   1.0000      -0.336090        -9.1455 
  99   1.0000      -0.335342        -9.1251 
 100   1.0000      -0.331364        -9.0169 
 101   1.0000      -0.330306        -8.9881 
 102   1.0000      -0.326953        -8.8968 
 103   1.0000      -0.325710        -8.8630 
 104   1.0000      -0.312134        -8.4936 
 105   1.0000      -0.285677        -7.7737 
 106   1.0000      -0.280184        -7.6242 
 107   1.0000      -0.278868        -7.5884 
 108   1.0000      -0.275144        -7.4871 
 109   1.0000      -0.273481        -7.4418 
 110   1.0000      -0.271731        -7.3942 
 111   1.0000      -0.266798        -7.2599 
 112   1.0000      -0.265984        -7.2378 
 113   1.0000      -0.260236        -7.0814 
 114   1.0000      -0.230404        -6.2696 
 115   1.0000      -0.209813        -5.7093 
 116   1.0000      -0.173928        -4.7328 
 117   0.0000      -0.076354        -2.0777 
 118   0.0000      -0.049439        -1.3453 
 119   0.0000      -0.016661        -0.4534 
 120   0.0000      -0.015492        -0.4216 
 121   0.0000      -0.014430        -0.3927 
 122   0.0000       0.011540         0.3140 
 123   0.0000       0.034666         0.9433 
 124   0.0000       0.039503         1.0749 
 125   0.0000       0.046122         1.2551 
 126   0.0000       0.049245         1.3400 
 127   0.0000       0.049930         1.3587 
 128   0.0000       0.053622         1.4591 
 129   0.0000       0.055889         1.5208 
 130   0.0000       0.061055         1.6614 
 131   0.0000       0.064089         1.7440 
 132   0.0000       0.071536         1.9466 
 133   0.0000       0.076936         2.0935 
 134   0.0000       0.080114         2.1800 
 135   0.0000       0.086235         2.3466 
 136   0.0000       0.087204         2.3729 
 137   0.0000       0.090354         2.4587 
 138   0.0000       0.090736         2.4690 
 139   0.0000       0.092359         2.5132 
 140   0.0000       0.100610         2.7377 
 141   0.0000       0.100704         2.7403 
 142   0.0000       0.104710         2.8493 
 143   0.0000       0.109775         2.9871 
 144   0.0000       0.117778         3.2049 
 145   0.0000       0.119856         3.2614 
 146   0.0000       0.127173         3.4605 
 147   0.0000       0.133005         3.6192 
 148   0.0000       0.139318         3.7910 
 149   0.0000       0.141968         3.8631 
 150   0.0000       0.142893         3.8883 
 151   0.0000       0.150049         4.0831 
 152   0.0000       0.153885         4.1874 
 153   0.0000       0.157310         4.2806 
 154   0.0000       0.157854         4.2954 
 155   0.0000       0.159755         4.3471 
 156   0.0000       0.164634         4.4799 
 157   0.0000       0.169343         4.6080 
 158   0.0000       0.171212         4.6589 
 159   0.0000       0.171658         4.6711 
 160   0.0000       0.179048         4.8721 
 161   0.0000       0.197303         5.3689 
 162   0.0000       0.197733         5.3806 
 163   0.0000       0.198388         5.3984 
 164   0.0000       0.204323         5.5599 
 165   0.0000       0.214213         5.8290 
 166   0.0000       0.214709         5.8425 
 167   0.0000       0.215049         5.8518 
 168   0.0000       0.221449         6.0259 
 169   0.0000       0.240609         6.5473 
 170   0.0000       0.242086         6.5875 
 171   0.0000       0.253502         6.8981 
 172   0.0000       0.255382         6.9493 
 173   0.0000       0.269907         7.3445 
 174   0.0000       0.272729         7.4213 
 175   0.0000       0.277776         7.5587 
 176   0.0000       0.278119         7.5680 
 177   0.0000       0.280893         7.6435 
 178   0.0000       0.287009         7.8099 
 179   0.0000       0.293071         7.9749 
 180   0.0000       0.305262         8.3066 
 181   0.0000       0.309719         8.4279 
 182   0.0000       0.328935         8.9508 
 183   0.0000       0.329446         8.9647 
 184   0.0000       0.343100         9.3362 
 185   0.0000       0.343982         9.3602 
 186   0.0000       0.350173         9.5287 
 187   0.0000       0.352406         9.5895 
 188   0.0000       0.367652        10.0043 
 189   0.0000       0.372009        10.1229 
 190   0.0000       0.376113        10.2346 
 191   0.0000       0.393214        10.6999 
 192   0.0000       0.402303        10.9472 
 193   0.0000       0.407390        11.0857 
 194   0.0000       0.409499        11.1430 
 195   0.0000       0.411031        11.1847 
 196   0.0000       0.414492        11.2789 
 197   0.0000       0.416972        11.3464 
 198   0.0000       0.428893        11.6708 
 199   0.0000       0.431758        11.7487 
 200   0.0000       0.435635        11.8542 
 201   0.0000       0.436967        11.8905 
 202   0.0000       0.439085        11.9481 
 203   0.0000       0.441197        12.0056 
 204   0.0000       0.444806        12.1038 
 205   0.0000       0.445941        12.1347 
 206   0.0000       0.449957        12.2439 
 207   0.0000       0.454228        12.3602 
 208   0.0000       0.456745        12.4287 
 209   0.0000       0.458319        12.4715 
 210   0.0000       0.460092        12.5197 
 211   0.0000       0.461493        12.5579 
 212   0.0000       0.466827        12.7030 
 213   0.0000       0.475215        12.9313 
 214   0.0000       0.475915        12.9503 
 215   0.0000       0.481613        13.1054 
 216   0.0000       0.488560        13.2944 
 217   0.0000       0.491522        13.3750 
 218   0.0000       0.495711        13.4890 
 219   0.0000       0.496176        13.5016 
 220   0.0000       0.498983        13.5780 
 221   0.0000       0.501399        13.6438 
 222   0.0000       0.503870        13.7110 
 223   0.0000       0.506959        13.7951 
 224   0.0000       0.507911        13.8210 
 225   0.0000       0.509596        13.8668 
 226   0.0000       0.510035        13.8788 
 227   0.0000       0.510961        13.9040 
 228   0.0000       0.512501        13.9459 
 229   0.0000       0.514369        13.9967 
 230   0.0000       0.519022        14.1233 
 231   0.0000       0.523835        14.2543 
 232   0.0000       0.530866        14.4456 
 233   0.0000       0.534902        14.5554 
 234   0.0000       0.541226        14.7275 
 235   0.0000       0.546096        14.8600 
 236   0.0000       0.550618        14.9831 
 237   0.0000       0.553581        15.0637 
 238   0.0000       0.561224        15.2717 
 239   0.0000       0.576309        15.6822 
 240   0.0000       0.578487        15.7414 
 241   0.0000       0.580168        15.7872 
 242   0.0000       0.581601        15.8262 
 243   0.0000       0.593749        16.1567 
 244   0.0000       0.593914        16.1612 
 245   0.0000       0.597670        16.2634 
 246   0.0000       0.604091        16.4382 
 247   0.0000       0.612153        16.6575 
 248   0.0000       0.616468        16.7749 
 249   0.0000       0.617011        16.7897 
 250   0.0000       0.617253        16.7963 
 251   0.0000       0.620116        16.8742 
 252   0.0000       0.623866        16.9763 
 253   0.0000       0.628394        17.0995 
 254   0.0000       0.632969        17.2240 
 255   0.0000       0.635815        17.3014 
 256   0.0000       0.639777        17.4092 
 257   0.0000       0.641013        17.4428 
 258   0.0000       0.645330        17.5603 
 259   0.0000       0.647676        17.6242 
 260   0.0000       0.650635        17.7047 
 261   0.0000       0.653747        17.7893 
 262   0.0000       0.656182        17.8556 
 263   0.0000       0.657968        17.9042 
 264   0.0000       0.658608        17.9216 
 265   0.0000       0.660259        17.9665 
 266   0.0000       0.663962        18.0673 
 267   0.0000       0.665395        18.1063 
 268   0.0000       0.665899        18.1200 
 269   0.0000       0.669923        18.2295 
 270   0.0000       0.670684        18.2502 
 271   0.0000       0.672329        18.2950 
 272   0.0000       0.679711        18.4959 
 273   0.0000       0.685288        18.6476 
 274   0.0000       0.686457        18.6795 
 275   0.0000       0.690035        18.7768 
 276   0.0000       0.690821        18.7982 
 277   0.0000       0.691975        18.8296 
 278   0.0000       0.693386        18.8680 
 279   0.0000       0.698568        19.0090 
 280   0.0000       0.700250        19.0548 
 281   0.0000       0.703851        19.1527 
 282   0.0000       0.704687        19.1755 
 283   0.0000       0.708722        19.2853 
 284   0.0000       0.710562        19.3354 
 285   0.0000       0.715493        19.4696 
 286   0.0000       0.718051        19.5392 
 287   0.0000       0.720063        19.5939 
 288   0.0000       0.725709        19.7475 
 289   0.0000       0.727714        19.8021 
 290   0.0000       0.737865        20.0783 
 291   0.0000       0.738035        20.0830 
 292   0.0000       0.745616        20.2892 
 293   0.0000       0.759769        20.6744 
 294   0.0000       0.761278        20.7154 
 295   0.0000       0.774667        21.0798 
 296   0.0000       0.776446        21.1282 
 297   0.0000       0.784968        21.3601 
 298   0.0000       0.790998        21.5242 
 299   0.0000       0.796482        21.6734 
 300   0.0000       0.807014        21.9600 
 301   0.0000       0.809797        22.0357 
 302   0.0000       0.814563        22.1654 
 303   0.0000       0.818517        22.2730 
 304   0.0000       0.830074        22.5875 
 305   0.0000       0.834726        22.7141 
 306   0.0000       0.840774        22.8786 
 307   0.0000       0.841439        22.8967 
 308   0.0000       0.866364        23.5750 
 309   0.0000       0.868189        23.6246 
 310   0.0000       0.878148        23.8956 
 311   0.0000       0.880893        23.9703 
 312   0.0000       0.883009        24.0279 
 313   0.0000       0.886616        24.1260 
 314   0.0000       0.896056        24.3829 
 315   0.0000       0.900176        24.4950 
 316   0.0000       0.907736        24.7007 
 317   0.0000       0.911841        24.8125 
 318   0.0000       0.912035        24.8177 
 319   0.0000       0.922153        25.0931 
 320   0.0000       0.930452        25.3189 
 321   0.0000       0.934094        25.4180 
 322   0.0000       0.934837        25.4382 
 323   0.0000       0.945449        25.7270 
 324   0.0000       0.957436        26.0532 
 325   0.0000       0.964230        26.2380 
 326   0.0000       0.969456        26.3802 
 327   0.0000       0.970022        26.3956 
 328   0.0000       0.975028        26.5319 
 329   0.0000       0.980636        26.6845 
 330   0.0000       0.984327        26.7849 
 331   0.0000       0.989588        26.9281 
 332   0.0000       0.993805        27.0428 
 333   0.0000       0.995140        27.0791 
 334   0.0000       0.996054        27.1040 
 335   0.0000       1.000532        27.2258 
 336   0.0000       1.006566        27.3900 
 337   0.0000       1.010654        27.5013 
 338   0.0000       1.018323        27.7100 
 339   0.0000       1.021043        27.7840 
 340   0.0000       1.029178        28.0054 
 341   0.0000       1.029852        28.0237 
 342   0.0000       1.038073        28.2474 
 343   0.0000       1.045222        28.4419 
 344   0.0000       1.045988        28.4628 
 345   0.0000       1.046761        28.4838 
 346   0.0000       1.050973        28.5984 
 347   0.0000       1.056848        28.7583 
 348   0.0000       1.060713        28.8635 
 349   0.0000       1.065104        28.9830 
 350   0.0000       1.078929        29.3592 
 351   0.0000       1.081888        29.4397 
 352   0.0000       1.085297        29.5324 
 353   0.0000       1.088285        29.6137 
 354   0.0000       1.095649        29.8141 
 355   0.0000       1.103425        30.0257 
 356   0.0000       1.108610        30.1668 
 357   0.0000       1.116461        30.3804 
 358   0.0000       1.128601        30.7108 
 359   0.0000       1.136052        30.9135 
 360   0.0000       1.138377        30.9768 
 361   0.0000       1.152952        31.3734 
 362   0.0000       1.153162        31.3791 
 363   0.0000       1.163598        31.6631 
 364   0.0000       1.174556        31.9613 
 365   0.0000       1.182155        32.1681 
 366   0.0000       1.195492        32.5310 
 367   0.0000       1.203475        32.7482 
 368   0.0000       1.207094        32.8467 
 369   0.0000       1.210905        32.9504 
 370   0.0000       1.215036        33.0628 
 371   0.0000       1.218000        33.1435 
 372   0.0000       1.222792        33.2739 
 373   0.0000       1.224666        33.3248 
 374   0.0000       1.229307        33.4511 
 375   0.0000       1.250391        34.0249 
 376   0.0000       1.259297        34.2672 
 377   0.0000       1.261788        34.3350 
 378   0.0000       1.276569        34.7372 
 379   0.0000       1.279405        34.8144 
 380   0.0000       1.292978        35.1837 
 381   0.0000       1.294084        35.2138 
 382   0.0000       1.297672        35.3114 
 383   0.0000       1.301175        35.4068 
 384   0.0000       1.310132        35.6505 
 385   0.0000       1.315584        35.7988 
 386   0.0000       1.330173        36.1959 
 387   0.0000       1.333561        36.2880 
 388   0.0000       1.337982        36.4084 
 389   0.0000       1.346993        36.6535 
 390   0.0000       1.349303        36.7164 
 391   0.0000       1.372839        37.3568 
 392   0.0000       1.374071        37.3904 
 393   0.0000       1.379457        37.5369 
 394   0.0000       1.379749        37.5449 
 395   0.0000       1.389686        37.8153 
 396   0.0000       1.397090        38.0168 
 397   0.0000       1.398118        38.0447 
 398   0.0000       1.405168        38.2366 
 399   0.0000       1.411739        38.4154 
 400   0.0000       1.418481        38.5988 
 401   0.0000       1.423297        38.7299 
 402   0.0000       1.423687        38.7405 
 403   0.0000       1.424787        38.7704 
 404   0.0000       1.427094        38.8332 
 405   0.0000       1.429011        38.8854 
 406   0.0000       1.439550        39.1721 
 407   0.0000       1.445537        39.3351 
 408   0.0000       1.457007        39.6472 
 409   0.0000       1.459858        39.7248 
 410   0.0000       1.473763        40.1031 
 411   0.0000       1.474036        40.1106 
 412   0.0000       1.479331        40.2546 
 413   0.0000       1.483363        40.3644 
 414   0.0000       1.485247        40.4156 
 415   0.0000       1.486933        40.4615 
 416   0.0000       1.488364        40.5005 
 417   0.0000       1.491615        40.5889 
 418   0.0000       1.492174        40.6041 
 419   0.0000       1.493853        40.6498 
 420   0.0000       1.505162        40.9575 
 421   0.0000       1.515441        41.2372 
 422   0.0000       1.515764        41.2460 
 423   0.0000       1.522508        41.4296 
 424   0.0000       1.529637        41.6235 
 425   0.0000       1.536339        41.8059 
 426   0.0000       1.547048        42.0973 
 427   0.0000       1.568901        42.6920 
 428   0.0000       1.577012        42.9127 
 429   0.0000       1.577745        42.9326 
 430   0.0000       1.581241        43.0277 
 431   0.0000       1.584006        43.1030 
 432   0.0000       1.588551        43.2267 
 433   0.0000       1.592112        43.3236 
 434   0.0000       1.595467        43.4149 
 435   0.0000       1.595931        43.4275 
 436   0.0000       1.604047        43.6483 
 437   0.0000       1.607468        43.7414 
 438   0.0000       1.612321        43.8735 
 439   0.0000       1.614060        43.9208 
 440   0.0000       1.614152        43.9233 
 441   0.0000       1.622639        44.1543 
 442   0.0000       1.625677        44.2369 
 443   0.0000       1.626824        44.2681 
 444   0.0000       1.628877        44.3240 
 445   0.0000       1.634215        44.4692 
 446   0.0000       1.642460        44.6936 
 447   0.0000       1.645721        44.7824 
 448   0.0000       1.646327        44.7988 
 449   0.0000       1.651666        44.9441 
 450   0.0000       1.651784        44.9473 
 451   0.0000       1.655242        45.0414 
 452   0.0000       1.660706        45.1901 
 453   0.0000       1.669396        45.4266 
 454   0.0000       1.671901        45.4947 
 455   0.0000       1.676447        45.6184 
 456   0.0000       1.680628        45.7322 
 457   0.0000       1.681975        45.7689 
 458   0.0000       1.683517        45.8108 
 459   0.0000       1.684639        45.8414 
 460   0.0000       1.688264        45.9400 
 461   0.0000       1.692308        46.0500 
 462   0.0000       1.697909        46.2025 
 463   0.0000       1.699377        46.2424 
 464   0.0000       1.701491        46.2999 
 465   0.0000       1.703072        46.3429 
 466   0.0000       1.712674        46.6042 
 467   0.0000       1.715676        46.6859 
 468   0.0000       1.727190        46.9992 
 469   0.0000       1.730525        47.0900 
 470   0.0000       1.736349        47.2485 
 471   0.0000       1.739606        47.3371 
 472   0.0000       1.752943        47.7000 
 473   0.0000       1.761172        47.9239 
 474   0.0000       1.762350        47.9560 
 475   0.0000       1.763317        47.9823 
 476   0.0000       1.769324        48.1458 
 477   0.0000       1.769937        48.1624 
 478   0.0000       1.775756        48.3208 
 479   0.0000       1.777376        48.3649 
 480   0.0000       1.777899        48.3791 
 481   0.0000       1.784609        48.5617 
 482   0.0000       1.789738        48.7013 
 483   0.0000       1.793382        48.8004 
 484   0.0000       1.796930        48.8970 
 485   0.0000       1.797445        48.9110 
 486   0.0000       1.807644        49.1885 
 487   0.0000       1.809720        49.2450 
 488   0.0000       1.813908        49.3590 
 489   0.0000       1.821327        49.5608 
 490   0.0000       1.827199        49.7206 
 491   0.0000       1.830003        49.7969 
 492   0.0000       1.830097        49.7995 
 493   0.0000       1.833435        49.8903 
 494   0.0000       1.838901        50.0390 
 495   0.0000       1.846814        50.2544 
 496   0.0000       1.851009        50.3685 
 497   0.0000       1.856602        50.5207 
 498   0.0000       1.866546        50.7913 
 499   0.0000       1.883809        51.2610 
 500   0.0000       1.887352        51.3575 
 501   0.0000       1.899300        51.6826 
 502   0.0000       1.906916        51.8898 
 503   0.0000       1.915503        52.1235 
 504   0.0000       1.917783        52.1855 
 505   0.0000       1.919397        52.2294 
 506   0.0000       1.920757        52.2665 
 507   0.0000       1.927156        52.4406 
 508   0.0000       1.932042        52.5735 
 509   0.0000       1.932957        52.5984 
 510   0.0000       1.946695        52.9723 
 511   0.0000       1.948908        53.0325 
 512   0.0000       1.954809        53.1931 
 513   0.0000       1.961370        53.3716 
 514   0.0000       1.969714        53.5987 
 515   0.0000       1.971040        53.6347 
 516   0.0000       1.973889        53.7123 
 517   0.0000       1.988914        54.1211 
 518   0.0000       1.996852        54.3371 
 519   0.0000       2.001294        54.4580 
 520   0.0000       2.013060        54.7782 
 521   0.0000       2.027790        55.1790 
 522   0.0000       2.032119        55.2968 
 523   0.0000       2.034001        55.3480 
 524   0.0000       2.045022        55.6479 
 525   0.0000       2.045223        55.6533 
 526   0.0000       2.055289        55.9273 
 527   0.0000       2.070570        56.3431 
 528   0.0000       2.078761        56.5660 
[...]
 Nucleus  56H : A:ISTP=    1 I=  0.5 P=533.5514 MHz/au**3
                Q:ISTP=    2 I=  1.0 Q=  0.0029 barn     
 -----------------------------------------------------------
 Solving for nuclear perturbation:
Forming RHS of the CP-SCF equations         ... 
Calc. nucleus orbit integrals (SHARK)       ... done

------------------------------------------------------------------------------
                           ORCA CP-SCF CALCULATION
------------------------------------------------------------------------------

Input orbitals are from        ... cc-pVDZ_i.gbw
Input Perturbation             ... cc-pVDZ_i.pin.tmp
Wavefunction output            ... cc-pVDZ_i.pout.tmp
Perturbation mode              ... Imaginary perturbation
Solver                         ... POPLE
Max. number of iterations      ... 64
Convergence tolerance          ... 1.000e-03
Integral handling              ... Direct
DFT GridXC                     ... 1
COSX GridX                     ... 1
COSX IntAccX                   ... 3.067
COSX Algorithm                 ... Auto
Number of perturbations        ... 3
Number of operators            ... 2
Orbital ranges used for CP-SCF:
 Operator 0:  Orbitals   0...116  to 117...620
 Operator 1:  Orbitals   0...115  to 116...620
Variables per perturbation     ... 117548
DFT calculation                         ... on
XC functional terms                     ... off
Hybrid DFT                              ... on
   Exchange mixing (SCF)                ...  0.200
   Exchange mixing (CP-SCF)             ...  0.200
   GGA exch. scaling(SCF)               ...  0.720
   GGA exch. scaling (CP-SCF)           ...  0.720
   GGA corr. scaling (SCF)              ...  0.810
   GGA corr. scaling (CP-SCF)           ...  0.810

CP-SCF GRID
-----------

General Integration Accuracy     IntAcc      ... 3.467
Radial Grid Type                 RadialGrid  ... OptM3 with GC (2021)
Angular Grid (max. ang.)         AngularGrid ... 1 (Lebedev-50)
Angular grid pruning method      GridPruning ... 4 (adaptive)
Weight generation scheme         WeightScheme... Becke
Basis function cutoff            BFCut       ... 1.0000e-10
Integration weight cutoff        WCut        ... 1.0000e-14
Angular grids for H and He will be reduced by one unit
Partially contracted basis set               ... off
Rotationally invariant grid construction     ... off

Total number of grid points                  ...    42737
Total number of batches                      ...      693
Average number of points per batch           ...       61
Average number of grid points per atom       ...      678

CP-SCF GRIDX
------------

General Integration Accuracy     IntAcc      ... 3.067
Radial Grid Type                 RadialGrid  ... OptM3 with GC (2021)
Angular Grid (max. ang.)         AngularGrid ... 1 (Lebedev-50)
Angular grid pruning method      GridPruning ... 4 (adaptive)
Weight generation scheme         WeightScheme... Becke
Basis function cutoff            BFCut       ... 1.0000e-10
Integration weight cutoff        WCut        ... 1.0000e-14
Angular grids for H and He will be reduced by one unit
Partially contracted basis set               ... on
Rotationally invariant grid construction     ... off

Total number of grid points                  ...    19910
Total number of batches                      ...      351
Average number of points per batch           ...       56
Average number of grid points per atom       ...      316

Memory available               ... 821.7 MB
Memory needed per perturbation ...  24.3 MB
Perturbations treated per batch... 3
Number of batches              ... 1
     CP-SCF ITERATION   0:   4.7042e-02 (   3.2 sec   0/  3 done)
     CP-SCF ITERATION   1:   2.2185e-03 (   3.4 sec   0/  3 done)
     CP-SCF ITERATION   2:   1.4971e-04 (   3.3 sec   3/  3 done)
                    *** THE CP-SCF HAS CONVERGED ***

Forming final perturbed densities           ... done
Transforming perturbed density to AO basis  ... done

 Raw HFC matrix (all values in MHz): 
 -----------------------------------
                -1.0995               0.5908               0.0010
                 0.5905              -1.5684               0.0022
                 0.0010               0.0022              -2.5910

 A(FC)          -1.7534              -1.7534              -1.7534
 A(SD)           1.0542              -0.2168              -0.8374
 A(ORB+DIA)      0.0007               0.0008              -0.0002    A(PC) =   0.0004
 A(ORB)          0.0006               0.0006               0.0000    A(PC) =   0.0004
 A(DIA)          0.0001               0.0001              -0.0002    A(PC) =   0.0000
             ----------           ----------           ----------
 A(Tot)         -0.6985              -1.9694              -2.5910    A(iso)=   -1.7530
 Orientation: 
  X           0.8273025            0.5617566           -0.0002341
  Y           0.5617555           -0.8273000            0.0023238
  Z           0.0011117           -0.0020540           -0.9999973

Notes:  (1) The A matrix conforms to the "SAI" spin Hamiltonian convention.
        (2) Tensor is right-handed.

 -----------------------------------------------------------
 Nucleus  57H : A:ISTP=    1 I=  0.5 P=533.5514 MHz/au**3
                Q:ISTP=    2 I=  1.0 Q=  0.0029 barn     
 -----------------------------------------------------------
 Solving for nuclear perturbation:
Forming RHS of the CP-SCF equations         ... 
Calc. nucleus orbit integrals (SHARK)       ... done

------------------------------------------------------------------------------
                           ORCA CP-SCF CALCULATION
------------------------------------------------------------------------------

Input orbitals are from        ... cc-pVDZ_i.gbw
Input Perturbation             ... cc-pVDZ_i.pin.tmp
Wavefunction output            ... cc-pVDZ_i.pout.tmp
Perturbation mode              ... Imaginary perturbation
Solver                         ... POPLE
Max. number of iterations      ... 64
Convergence tolerance          ... 1.000e-03
Integral handling              ... Direct
DFT GridXC                     ... 1
COSX GridX                     ... 1
COSX IntAccX                   ... 3.067
COSX Algorithm                 ... Auto
Number of perturbations        ... 3
Number of operators            ... 2
Orbital ranges used for CP-SCF:
 Operator 0:  Orbitals   0...116  to 117...620
 Operator 1:  Orbitals   0...115  to 116...620
Variables per perturbation     ... 117548
DFT calculation                         ... on
XC functional terms                     ... off
Hybrid DFT                              ... on
   Exchange mixing (SCF)                ...  0.200
   Exchange mixing (CP-SCF)             ...  0.200
   GGA exch. scaling(SCF)               ...  0.720
   GGA exch. scaling (CP-SCF)           ...  0.720
   GGA corr. scaling (SCF)              ...  0.810
   GGA corr. scaling (CP-SCF)           ...  0.810

CP-SCF GRID
-----------

General Integration Accuracy     IntAcc      ... 3.467
Radial Grid Type                 RadialGrid  ... OptM3 with GC (2021)
Angular Grid (max. ang.)         AngularGrid ... 1 (Lebedev-50)
Angular grid pruning method      GridPruning ... 4 (adaptive)
Weight generation scheme         WeightScheme... Becke
Basis function cutoff            BFCut       ... 1.0000e-10
Integration weight cutoff        WCut        ... 1.0000e-14
Angular grids for H and He will be reduced by one unit
Partially contracted basis set               ... off
Rotationally invariant grid construction     ... off

Total number of grid points                  ...    42737
Total number of batches                      ...      693
Average number of points per batch           ...       61
Average number of grid points per atom       ...      678

CP-SCF GRIDX
------------

General Integration Accuracy     IntAcc      ... 3.067
Radial Grid Type                 RadialGrid  ... OptM3 with GC (2021)
Angular Grid (max. ang.)         AngularGrid ... 1 (Lebedev-50)
Angular grid pruning method      GridPruning ... 4 (adaptive)
Weight generation scheme         WeightScheme... Becke
Basis function cutoff            BFCut       ... 1.0000e-10
Integration weight cutoff        WCut        ... 1.0000e-14
Angular grids for H and He will be reduced by one unit
Partially contracted basis set               ... on
Rotationally invariant grid construction     ... off

Total number of grid points                  ...    19910
Total number of batches                      ...      351
Average number of points per batch           ...       56
Average number of grid points per atom       ...      316

Memory available               ... 820.9 MB
Memory needed per perturbation ...  24.3 MB
Perturbations treated per batch... 3
Number of batches              ... 1
     CP-SCF ITERATION   0:   4.6845e-02 (   3.2 sec   0/  3 done)
     CP-SCF ITERATION   1:   2.1006e-03 (   3.2 sec   0/  3 done)
     CP-SCF ITERATION   2:   1.3870e-04 (   3.2 sec   3/  3 done)
                    *** THE CP-SCF HAS CONVERGED ***

Forming final perturbed densities           ... done
Transforming perturbed density to AO basis  ... done

 Raw HFC matrix (all values in MHz): 
 -----------------------------------
                -1.9413              -0.2456              -0.0003
                -0.2450              -1.0338               0.0032
                -0.0003               0.0032              -2.2799

 A(FC)          -1.7520              -1.7520              -1.7520
 A(SD)           0.7801              -0.2523              -0.5278
 A(ORB+DIA)      0.0002               0.0009              -0.0001    A(PC) =   0.0003
 A(ORB)          0.0000               0.0008               0.0000    A(PC) =   0.0003
 A(DIA)          0.0002               0.0001              -0.0001    A(PC) =   0.0001
             ----------           ----------           ----------
 A(Tot)         -0.9717              -2.0034              -2.2799    A(iso)=   -1.7517
 Orientation: 
  X          -0.2455311            0.9693881            0.0010545
  Y           0.9693857            0.2455275            0.0027523
  Z           0.0024091            0.0016980           -0.9999957

Notes:  (1) The A matrix conforms to the "SAI" spin Hamiltonian convention.
        (2) Tensor is right-handed.

 -----------------------------------------------------------
 Nucleus  58H : A:ISTP=    1 I=  0.5 P=533.5514 MHz/au**3
                Q:ISTP=    2 I=  1.0 Q=  0.0029 barn     
 -----------------------------------------------------------
 Solving for nuclear perturbation:
Forming RHS of the CP-SCF equations         ... 
Calc. nucleus orbit integrals (SHARK)       ... done

------------------------------------------------------------------------------
                           ORCA CP-SCF CALCULATION
------------------------------------------------------------------------------

Input orbitals are from        ... cc-pVDZ_i.gbw
Input Perturbation             ... cc-pVDZ_i.pin.tmp
Wavefunction output            ... cc-pVDZ_i.pout.tmp
Perturbation mode              ... Imaginary perturbation
Solver                         ... POPLE
Max. number of iterations      ... 64
Convergence tolerance          ... 1.000e-03
Integral handling              ... Direct
DFT GridXC                     ... 1
COSX GridX                     ... 1
COSX IntAccX                   ... 3.067
COSX Algorithm                 ... Auto
Number of perturbations        ... 3
Number of operators            ... 2
Orbital ranges used for CP-SCF:
 Operator 0:  Orbitals   0...116  to 117...620
 Operator 1:  Orbitals   0...115  to 116...620
Variables per perturbation     ... 117548
DFT calculation                         ... on
XC functional terms                     ... off
Hybrid DFT                              ... on
   Exchange mixing (SCF)                ...  0.200
   Exchange mixing (CP-SCF)             ...  0.200
   GGA exch. scaling(SCF)               ...  0.720
   GGA exch. scaling (CP-SCF)           ...  0.720
   GGA corr. scaling (SCF)              ...  0.810
   GGA corr. scaling (CP-SCF)           ...  0.810

CP-SCF GRID
-----------

General Integration Accuracy     IntAcc      ... 3.467
Radial Grid Type                 RadialGrid  ... OptM3 with GC (2021)
Angular Grid (max. ang.)         AngularGrid ... 1 (Lebedev-50)
Angular grid pruning method      GridPruning ... 4 (adaptive)
Weight generation scheme         WeightScheme... Becke
Basis function cutoff            BFCut       ... 1.0000e-10
Integration weight cutoff        WCut        ... 1.0000e-14
Angular grids for H and He will be reduced by one unit
Partially contracted basis set               ... off
Rotationally invariant grid construction     ... off

Total number of grid points                  ...    42737
Total number of batches                      ...      693
Average number of points per batch           ...       61
Average number of grid points per atom       ...      678

CP-SCF GRIDX
------------

General Integration Accuracy     IntAcc      ... 3.067
Radial Grid Type                 RadialGrid  ... OptM3 with GC (2021)
Angular Grid (max. ang.)         AngularGrid ... 1 (Lebedev-50)
Angular grid pruning method      GridPruning ... 4 (adaptive)
Weight generation scheme         WeightScheme... Becke
Basis function cutoff            BFCut       ... 1.0000e-10
Integration weight cutoff        WCut        ... 1.0000e-14
Angular grids for H and He will be reduced by one unit
Partially contracted basis set               ... on
Rotationally invariant grid construction     ... off

Total number of grid points                  ...    19910
Total number of batches                      ...      351
Average number of points per batch           ...       56
Average number of grid points per atom       ...      316

Memory available               ... 820.1 MB
Memory needed per perturbation ...  24.3 MB
Perturbations treated per batch... 3
Number of batches              ... 1
     CP-SCF ITERATION   0:   4.5313e-02 (   3.1 sec   0/  3 done)
     CP-SCF ITERATION   1:   1.9636e-03 (   3.1 sec   0/  3 done)
     CP-SCF ITERATION   2:   1.2596e-04 (   3.3 sec   3/  3 done)
                    *** THE CP-SCF HAS CONVERGED ***

Forming final perturbed densities           ... done
Transforming perturbed density to AO basis  ... done

 Raw HFC matrix (all values in MHz): 
 -----------------------------------
                 1.5374               0.3209               0.0002
                 0.3210               0.5920               0.0003
                 0.0002               0.0003               0.4595

 A(FC)           0.8630               0.8630               0.8630
 A(SD)          -0.4035              -0.3698               0.7733
 A(ORB+DIA)     -0.0000               0.0001              -0.0002    A(PC) =  -0.0001
 A(ORB)         -0.0000               0.0001              -0.0003    A(PC) =  -0.0001
 A(DIA)          0.0000              -0.0000               0.0000    A(PC) =   0.0000
             ----------           ----------           ----------
 A(Tot)          0.4595               0.4933               1.6361    A(iso)=    0.8630
 Orientation: 
  X           0.0015131           -0.2938113           -0.9558622
  Y          -0.0057978            0.9558447           -0.2938151
  Z           0.9999820            0.0059864           -0.0002572

Notes:  (1) The A matrix conforms to the "SAI" spin Hamiltonian convention.
        (2) Tensor is right-handed.


--------------------------------------------------------------------------------
----------------------------------------------------------------------------
                           ORCA EULER ANGLE PROGRAM
----------------------------------------------------------------------------

Only g-tensor available        -->  using g-tensor as reference tensor

Reference tensor               ...  g

g-tensor ordering              ...  |g_min> --> |gx>
                                    |g_mid> --> |gy>
                                    |g_max> --> |gz>

A- and EFG-tensor ordering     ...  the axes |Ax>, |Qx>, |Ay>, etc. are assigned
                                    such that the Euler rotation is minimal. You
                                    can find the respective eigenvalues as Ax,
                                    EFGx, Ay, etc. in the tables below.
                                    The relation of |Ax>, |Ay>,  etc. to Amin, Amid, etc.
                                    (as printed in the ORCA EPR/NMR CALCULATION Output)
                                    is obtained in the detailed printout.

Euler rotation around          ...  z - y - z
   First rotation              -->  by alpha around z
   Second rotation             -->  by beta around y'
   Third rotation              -->  by gamma around z''
   Positive / Negative angle   -->  clockwise / counterclockwise rotation

Plot EFG-tensors                    (-)
Plot HFC-tensors                    (-)
Detailed Printout                   (-)

-------------------------------------------------------------------------
          Euler rotation of hyperfine tensor to g-tensor
-------------------------------------------------------------------------

-------------------------------------------------------------------
 Atom  |   Alpha    Beta    Gamma   |   Ax       Ay       Az 
       |          [degrees]         |           [MHz]         
-------------------------------------------------------------------
  9H      -89.6      3.9     89.6     -16.07    -7.04   -19.60
 10H      -89.8      0.7     89.8       4.01     4.64     9.32
 12H       90.0     36.1    -90.0     -45.55   -70.21   -17.02
 14H     -164.9     14.3    147.7      56.23    65.67    57.53
 15H      -15.4     14.2     32.5      56.17    65.60    57.47
 17H     -143.3     35.0    115.5      -3.13    -2.97     3.12
 18H      -36.7     34.9     64.6      -3.13    -2.97     3.12
 20H       40.8     44.0    -20.7      -0.10     2.21     0.02
 21H      139.2     44.2   -159.4      -0.10     2.21     0.03
 23H       12.1     19.7     27.6      19.80    20.36    23.40
 24H      167.8     19.7    152.3      19.86    20.42    23.46
 26H       95.7     22.3    -82.8      -0.96     0.96    -0.84
 27H       84.8     22.3    -97.8      -0.96     0.95    -0.84
 29H     -113.5     37.2     75.6      -0.10    -0.15     0.79
 30H      -66.5     37.2    104.3      -0.10    -0.15     0.79
 32H       85.4     35.6    -93.5      -0.12     0.37    -0.10
 33H       94.7     35.6    -86.8      -0.12     0.37    -0.10
 35H       89.8     43.8    -89.7      -0.78     0.75    -0.80
 36H      -90.5     44.6     90.0      -0.13    -0.13     0.24
 43H       89.9     37.1    -90.0       0.44     0.67     0.25
 44H      -89.6      8.1     89.6      -0.33    -0.52    -0.14
 45H      -90.0     41.6     89.9       0.53     1.43     0.12
 46H       89.8     14.7    -89.9       0.58     0.13     1.37
 47H      -89.8     20.0     89.7      -0.35    -0.18    -0.47
 54H       89.9     39.1    -90.0      -1.37    -1.94    -0.42
 55H       90.0     26.3    -90.0       0.52     0.67     1.40
 56H      -89.9     20.1     89.9      -2.59    -0.70    -1.97
 57H      -89.9     40.1     90.0      -2.28    -2.00    -0.97
 58H      -90.2     37.2     90.3       0.46     1.64     0.49
-------------------------------------------------------------------


Maximum memory used throughout the entire EPRNMR-calculation: 333.7 MB

Timings for individual modules:

Sum of individual times         ...    13641.213 sec (= 227.354 min)
GTO integral calculation        ...        6.465 sec (=   0.108 min)   0.0 %
Spin-Orbit-Coupling Matrices    ...       14.972 sec (=   0.250 min)   0.1 %
SCF iterations                  ...       54.016 sec (=   0.900 min)   0.4 %
EPR/NMR calculation             ...    13565.760 sec (= 226.096 min)  99.4 %
                             ****ORCA TERMINATED NORMALLY****
TOTAL RUN TIME: 0 days 3 hours 47 minutes 25 seconds 646 msec
