
                                 *****************
                                 * O   R   C   A *
                                 *****************

           --- An Ab Initio, DFT and Semiempirical electronic structure package ---

                  #######################################################
                  #                        -***-                        #
                  #          Department of theory and spectroscopy      #
                  #               Directorship: Frank Neese             #
                  #        Max Planck Institute fuer Kohlenforschung    #
                  #                Kaiser Wilhelm Platz 1               #
                  #                 D-45470 Muelheim/Ruhr               #
                  #                      Germany                        #
                  #                                                     #
                  #                  All rights reserved                #
                  #                        -***-                        #
                  #######################################################


                         Program Version 4.2.1 -  RELEASE  -


 With contributions from (in alphabetic order):
   Daniel Aravena         : Magnetic Suceptibility
   Michael Atanasov       : Ab Initio Ligand Field Theory (pilot matlab implementation)
   Alexander A. Auer      : GIAO ZORA, VPT2
   Ute Becker             : Parallelization
   Giovanni Bistoni       : ED, misc. LED, open-shell LED, HFLD
   Martin Brehm           : Molecular dynamics
   Dmytro Bykov           : SCF Hessian
   Vijay G. Chilkuri      : MRCI spin determinant printing, contributions to CSF-ICE
   Dipayan Datta          : RHF DLPNO-CCSD density
   Achintya Kumar Dutta   : EOM-CC, STEOM-CC
   Dmitry Ganyushin       : Spin-Orbit,Spin-Spin,Magnetic field MRCI
   Miquel Garcia          : C-PCM Hessian, Gaussian charge scheme
   Yang Guo               : DLPNO-NEVPT2, CIM, IAO-localization
   Andreas Hansen         : Spin unrestricted coupled pair/coupled cluster methods
   Benjamin Helmich-Paris : CASSCF linear response (MC-RPA)
   Lee Huntington         : MR-EOM, pCC
   Robert Izsak           : Overlap fitted RIJCOSX, COSX-SCS-MP3, EOM
   Christian Kollmar      : KDIIS, OOCD, Brueckner-CCSD(T), CCSD density
   Simone Kossmann        : Meta GGA functionals, TD-DFT gradient, OOMP2, MP2 Hessian
   Martin Krupicka        : AUTO-CI
   Lucas Lang             : DCDCAS
   Dagmar Lenk            : GEPOL surface, SMD
   Dimitrios Liakos       : Extrapolation schemes; Compound Job, initial MDCI parallelization
   Dimitrios Manganas     : Further ROCIS development; embedding schemes
   Dimitrios Pantazis     : SARC Basis sets
   Taras Petrenko         : DFT Hessian,TD-DFT gradient, ASA, ECA, R-Raman, ABS, FL, XAS/XES, NRVS
   Peter Pinski           : DLPNO-MP2, DLPNO-MP2 Gradient
   Christoph Reimann      : Effective Core Potentials
   Marius Retegan         : Local ZFS, SOC
   Christoph Riplinger    : Optimizer, TS searches, QM/MM, DLPNO-CCSD(T), (RO)-DLPNO pert. Triples
   Tobias Risthaus        : Range-separated hybrids, TD-DFT gradient, RPA, STAB
   Michael Roemelt        : Original ROCIS implementation
   Masaaki Saitow         : Open-shell DLPNO-CCSD energy and density
   Barbara Sandhoefer     : DKH picture change effects
   Avijit Sen             : IP-ROCIS
   Kantharuban Sivalingam : CASSCF convergence, NEVPT2, FIC-MRCI
   Bernardo de Souza      : ESD, SOC TD-DFT
   Georgi Stoychev        : AutoAux, RI-MP2 NMR
   Willem Van den Heuvel  : Paramagnetic NMR
   Boris Wezisla          : Elementary symmetry handling
   Frank Wennmohs         : Technical directorship


 We gratefully acknowledge several colleagues who have allowed us to
 interface, adapt or use parts of their codes:
   Stefan Grimme, W. Hujo, H. Kruse,             : VdW corrections, initial TS optimization,
                  C. Bannwarth                     DFT functionals, gCP, sTDA/sTD-DF
   Ed Valeev, F. Pavosevic, A. Kumar             : LibInt (2-el integral package), F12 methods
   Garnet Chan, S. Sharma, J. Yang, R. Olivares  : DMRG
   Ulf Ekstrom                                   : XCFun DFT Library
   Mihaly Kallay                                 : mrcc  (arbitrary order and MRCC methods)
   Andreas Klamt, Michael Diedenhofen            : otool_cosmo (COSMO solvation model)
   Jiri Pittner, Ondrej Demel                    : Mk-CCSD
   Frank Weinhold                                : gennbo (NPA and NBO analysis)
   Christopher J. Cramer and Donald G. Truhlar   : smd solvation model
   Lars Goerigk                                  : TD-DFT with DH, B97 family of functionals
   V. Asgeirsson, H. Jonsson                     : NEB implementation
   FAccTs GmbH                                   : IRC, NEB, NEB-TS, Multilevel, MM, QM/MM, CI optimization
   S Lehtola, MJT Oliveira, MAL Marques          : LibXC Library


 Your calculation uses the libint2 library for the computation of 2-el integrals
 For citations please refer to: http://libint.valeyev.net

 Your ORCA version has been built with support for libXC version: 4.2.3
 For citations please refer to: https://tddft.org/programs/libxc/

 This ORCA versions uses:
   CBLAS   interface :  Fast vector & matrix operations
   LAPACKE interface :  Fast linear algebra routines
   SCALAPACK package :  Parallel linear algebra routines




***************************************
The coordinates will be read from file: opt.xyz
***************************************


----- Orbital basis set information -----
Your calculation utilizes the basis: cc-pVDZ 
       H, B-Ne : Obtained from the ccRepo (grant-hill.group.shef.ac.uk/ccrepo) Feb. 2017
                 T. H. Dunning, Jr., J. Chem. Phys. 90, 1007 (1989)
            He : Obtained from the ccRepo (grant-hill.group.shef.ac.uk/ccrepo) Feb. 2017
                 D. E. Woon, T. H. Dunning, Jr., J. Chem. Phys. 100, 2975 (1994)
  Li-Be, Na-Mg : Obtained from the ccRepo (grant-hill.group.shef.ac.uk/ccrepo) Feb. 2017
                 B. P. Prascher, D. E. Woon, K. A. Peterson, T. H. Dunning, Jr., A. K. Wilson, Theor. Chem. Acc. 128, 69 (2011)
         Al-Ar : Obtained from the ccRepo (grant-hill.group.shef.ac.uk/ccrepo) Feb. 2017
                 D. E. Woon, T. H. Dunning, Jr., J. Chem. Phys. 98, 1358 (1993)
            Ca : Obtained from the Peterson Research Group Website (tyr0.chem.wsu.edu/~kipeters) Feb. 2017
                 J. Koput, K. A. Peterson, J. Phys. Chem. 106, 9595 (2002)
         Sc-Zn : Obtained from the ccRepo (grant-hill.group.shef.ac.uk/ccrepo) Feb. 2017
                 N. B. Balabanov, K. A. Peterson, J. Chem. Phys. 123, 064107 (2005)
                 N. B. Balabanov, K. A. Peterson, J. Chem. Phys. 125, 074110 (2006)
         Ga-Kr : Obtained from the ccRepo (grant-hill.group.shef.ac.uk/ccrepo) Feb. 2017
                 A. K. Wilson, D. E. Woon, K. A. Peterson, T. H. Dunning, Jr., J. Chem. Phys. 110, 7667 (1999)

----- AuxJ basis set information -----
Your calculation utilizes the AutoAux generation procedure.
  G. L. Stoychev, A. A. Auer, F. Neese, J. Chem. Theory Comput. 13, 554 (2017)

----- AuxC basis set information -----
Your calculation utilizes the AutoAux generation procedure.
  G. L. Stoychev, A. A. Auer, F. Neese, J. Chem. Theory Comput. 13, 554 (2017)

----- AuxJK basis set information -----
Your calculation utilizes the AutoAux generation procedure.
  G. L. Stoychev, A. A. Auer, F. Neese, J. Chem. Theory Comput. 13, 554 (2017)

================================================================================
                                        WARNINGS
                       Please study these warnings very carefully!
================================================================================


WARNING: your system is open-shell and RHF/RKS was chosen
  ===> : WILL SWITCH to UHF/UKS


INFO   : the flag for use of LIBINT has been found!

================================================================================
                                       INPUT FILE
================================================================================
NAME = cc-pVDZ.inp
|  1> ! B3LYP cc-pVDZ AUTOAUX
|  2> %pal nprocs 16 end
|  3> *XYZFile 0 2 opt.xyz
|  4> %EPRNMR
|  5>         GTENSOR   TRUE
|  6>         NUCLEI    = ALL H {AISO, ADIP, AORB}
|  7> END
|  8> 
|  9>                          ****END OF INPUT****
================================================================================

                       ****************************
                       * Single Point Calculation *
                       ****************************

---------------------------------
CARTESIAN COORDINATES (ANGSTROEM)
---------------------------------
  C     12.367592   -0.025121   -0.005055
  C     11.143516   -0.065571   -0.003091
  C      5.469965    0.000164   -0.000860
  C      9.724428   -0.085636   -0.001988
  C      8.990947   -1.332264   -0.004597
  C      7.571180   -1.234603   -0.004335
  C      6.897570   -0.010526   -0.001156
  C      7.633835    1.219230    0.001830
  C      9.025636    1.138500    0.001412
  H      6.976365   -2.148083   -0.006442
  H      9.618395    2.053009    0.003336
  C      9.648268   -2.580728   -0.006648
  H     10.741775   -2.570134   -0.006087
  C      8.962822   -3.914226   -0.008547
  H      8.289115   -3.996019    0.869672
  H      8.289579   -3.993943   -0.887314
  C      9.934837   -5.100882   -0.009597
  H     10.595360   -5.023915   -0.892993
  H     10.595356   -5.025429    0.873929
  C      9.227340   -6.456809   -0.010736
  H      8.583968   -6.572870   -0.900262
  H      8.584084   -6.574381    0.878675
  C      6.886556    2.536546    0.004661
  H      6.207286    2.549836   -0.868804
  H      6.210054    2.547844    0.880332
  C      7.730810    3.813338    0.004708
  H      8.395334    3.824131    0.888791
  H      8.393542    3.825194   -0.880701
  C      6.875218    5.085593    0.006284
  H      6.207746    5.076437   -0.875929
  H      6.209688    5.075624    0.889957
  C      7.706740    6.370139    0.005945
  H      8.357126    6.426652   -0.884294
  H      8.359148    6.425867    0.894756
  C      4.247408    0.005293    0.000069
  H      9.950429   -7.288043   -0.011486
  H      7.065522    7.266267    0.007061
  C      2.821725    0.006250    0.000155
  C      2.098345   -1.207100   -0.026231
  C      0.708294   -1.205940   -0.026298
  C     -0.010828    0.007844    0.000149
  C      0.709640    1.220907    0.026632
  C      2.099585    1.220396    0.026604
  H     -3.729805    0.011363    0.000138
  H      0.162122    2.164869    0.047653
  H      2.644831   -2.151614   -0.047263
  H      2.646650    2.164662    0.047708
  H      0.159786   -2.149317   -0.047298
  C     13.789982    0.030865   -0.006241
  C     14.563398   -1.152339   -0.033105
  C     15.951874   -1.094939   -0.034266
  C     16.621636    0.147027   -0.008504
  C     15.852075    1.329913    0.018385
  C     14.463678    1.273734    0.019439
  H     20.337203    0.302453   -0.011733
  H     16.361455    2.295067    0.038832
  H     14.057010   -2.119043   -0.053804
  H     13.878704    2.194834    0.040783
  H     16.537579   -2.015637   -0.055623
  C     18.051053    0.206171   -0.009795
  C     19.265622    0.256760   -0.010806
  C     -1.441726    0.008893    0.000141
  C     -2.657216    0.010219    0.000143

----------------------------
CARTESIAN COORDINATES (A.U.)
----------------------------
  NO LB      ZA    FRAG     MASS         X           Y           Z
   0 C     6.0000    0    12.011   23.371362   -0.047471   -0.009552
   1 C     6.0000    0    12.011   21.058193   -0.123911   -0.005841
   2 C     6.0000    0    12.011   10.336736    0.000310   -0.001625
   3 C     6.0000    0    12.011   18.376506   -0.161828   -0.003756
   4 C     6.0000    0    12.011   16.990427   -2.517614   -0.008686
   5 C     6.0000    0    12.011   14.307457   -2.333061   -0.008192
   6 C     6.0000    0    12.011   13.034519   -0.019890   -0.002184
   7 C     6.0000    0    12.011   14.425857    2.304010    0.003458
   8 C     6.0000    0    12.011   17.055979    2.151452    0.002669
   9 H     1.0000    0     1.008   13.183418   -4.059289   -0.012173
  10 H     1.0000    0     1.008   18.176132    3.879625    0.006305
  11 C     6.0000    0    12.011   18.232585   -4.876869   -0.012562
  12 H     1.0000    0     1.008   20.299013   -4.856849   -0.011503
  13 C     6.0000    0    12.011   16.937280   -7.396815   -0.016151
  14 H     1.0000    0     1.008   15.664156   -7.551381    1.643442
  15 H     1.0000    0     1.008   15.665035   -7.547458   -1.676780
  16 C     6.0000    0    12.011   18.774121   -9.639270   -0.018135
  17 H     1.0000    0     1.008   20.022328   -9.493823   -1.687513
  18 H     1.0000    0     1.008   20.022321   -9.496684    1.651487
  19 C     6.0000    0    12.011   17.437146  -12.201600   -0.020287
  20 H     1.0000    0     1.008   16.221348  -12.420925   -1.701249
  21 H     1.0000    0     1.008   16.221567  -12.423779    1.660455
  22 C     6.0000    0    12.011   13.013705    4.793377    0.008809
  23 H     1.0000    0     1.008   11.730071    4.818492   -1.641801
  24 H     1.0000    0     1.008   11.735301    4.814728    1.663587
  25 C     6.0000    0    12.011   14.609114    7.206164    0.008897
  26 H     1.0000    0     1.008   15.864881    7.226561    1.679572
  27 H     1.0000    0     1.008   15.861495    7.228569   -1.664283
  28 C     6.0000    0    12.011   12.992279    9.610378    0.011874
  29 H     1.0000    0     1.008   11.730940    9.593075   -1.655266
  30 H     1.0000    0     1.008   11.734610    9.591539    1.681775
  31 C     6.0000    0    12.011   14.563628   12.037819    0.011234
  32 H     1.0000    0     1.008   15.792680   12.144612   -1.671073
  33 H     1.0000    0     1.008   15.796500   12.143128    1.690845
  34 C     6.0000    0    12.011    8.026438    0.010002    0.000130
  35 H     1.0000    0     1.008   18.803586  -13.772405   -0.021705
  36 H     1.0000    0     1.008   13.351902   13.731255    0.013343
  37 C     6.0000    0    12.011    5.332288    0.011811    0.000294
  38 C     6.0000    0    12.011    3.965297   -2.281088   -0.049569
  39 C     6.0000    0    12.011    1.338481   -2.278895   -0.049696
  40 C     6.0000    0    12.011   -0.020462    0.014823    0.000282
  41 C     6.0000    0    12.011    1.341026    2.307180    0.050328
  42 C     6.0000    0    12.011    3.967640    2.306215    0.050274
  43 H     1.0000    0     1.008   -7.048309    0.021473    0.000260
  44 H     1.0000    0     1.008    0.306367    4.091009    0.090051
  45 H     1.0000    0     1.008    4.998006   -4.065962   -0.089314
  46 H     1.0000    0     1.008    5.001444    4.090618    0.090156
  47 H     1.0000    0     1.008    0.301951   -4.061620   -0.089381
  48 C     6.0000    0    12.011   26.059289    0.058327   -0.011794
  49 C     6.0000    0    12.011   27.520834   -2.177605   -0.062559
  50 C     6.0000    0    12.011   30.144673   -2.069134   -0.064754
  51 C     6.0000    0    12.011   31.410341    0.277840   -0.016070
  52 C     6.0000    0    12.011   29.956080    2.513171    0.034742
  53 C     6.0000    0    12.011   27.332390    2.407009    0.036735
  54 H     1.0000    0     1.008   38.431745    0.571552   -0.022172
  55 H     1.0000    0     1.008   30.918669    4.337047    0.073382
  56 H     1.0000    0     1.008   26.563899   -4.004411   -0.101676
  57 H     1.0000    0     1.008   26.226949    4.147636    0.077069
  58 H     1.0000    0     1.008   31.251496   -3.809002   -0.105113
  59 C     6.0000    0    12.011   34.111547    0.389607   -0.018509
  60 C     6.0000    0    12.011   36.406749    0.485206   -0.020420
  61 C     6.0000    0    12.011   -2.724467    0.016804    0.000267
  62 C     6.0000    0    12.011   -5.021410    0.019311    0.000270

--------------------------------
INTERNAL COORDINATES (ANGSTROEM)
--------------------------------
 C      0   0   0     0.000000000000     0.00000000     0.00000000
 C      1   0   0     1.224745957891     0.00000000     0.00000000
 C      2   1   0     5.673932187474   177.44255756     0.00000000
 C      2   1   3     1.419230016468   178.91633525     0.95116734
 C      4   2   1     1.446403787017   121.28127283   177.34690187
 C      5   4   2     1.423121441889   116.53630059   180.05151761
 C      6   5   4     1.397184887241   122.75893800   359.97254005
 C      7   6   5     1.433315338501   120.26683998     0.00000000
 C      8   7   6     1.394140055711   117.58953501     0.00000000
 H      6   5   4     1.090071931741   119.13520003   179.98814308
 H      9   8   7     1.089813987112   119.63041169   179.98251657
 C      5   4   2     1.410935125707   121.76171455     0.08094689
 H     12   5   4     1.093558284207   117.21182552     0.00000000
 C     12   5   4     1.499351840827   125.02894282   179.96026277
 H     14  12   5     1.109883348515   110.00128825   302.64339252
 H     14  12   5     1.109883631949   110.01046723    57.42119819
 C     14  12   5     1.533938138315   113.47430760   180.03959354
 H     17  14  12     1.105714340950   108.97987194   302.30500191
 H     17  14  12     1.105710975256   108.97770519    57.63356097
 C     17  14  12     1.529408279507   113.12372701   179.96754281
 H     20  17  14     1.103927564631   111.30984695    59.86476478
 H     20  17  14     1.103926400054   111.30768517   300.13198240
 C      8   7   6     1.514515135056   119.52571167   179.97422192
 H     23   8   7     1.106582672339   108.17063914   303.83578800
 H     23   8   7     1.106608447990   108.17960601    56.40940097
 C     23   8   7     1.530673801407   116.96093755   180.12900104
 H     26  23   8     1.106033786353   109.84941389   301.69019857
 H     26  23   8     1.106030068437   109.84087964    58.20775548
 C     26  23   8     1.533190689614   112.60523723   179.94374157
 H     29  26  23     1.106301027429   109.20825605   302.32540317
 H     29  26  23     1.106303705046   109.21129326    57.70392984
 C     29  26  23     1.530192107677   113.16304059   180.01638374
 H     32  29  26     1.103956721307   111.30281520    59.86589868
 H     32  29  26     1.103960020777   111.30527074   300.13244450
 C      3   2   1     1.222568191076   179.57604189   181.28432800
 H     20  17  14     1.101729533983   111.42539137   179.99925957
 H     32  29  26     1.101910663345   111.49855809   179.99791384
 C     35   3   7     1.425682997822   179.79417030   339.25188791
 C     38  35   3     1.412867227940   120.75822702     9.97605705
 C     39  38  35     1.390051523434   120.74901628   180.00750554
 C     40  39  38     1.411065301303   120.68696321     0.00000000
 C     41  40  39     1.411133785139   118.65966676     0.00000000
 C     42  41  40     1.389944205980   120.68005546     0.00000000
 H     41  40  39     3.718978633115   120.69340533   180.00286211
 H     42  41  40     1.091458530797   119.19037617   180.02716486
 H     39  38  35     1.091419727472   119.15615109   359.97345899
 H     43  42  41     1.091495862177   120.05882902   180.02969477
 H     40  39  38     1.091449981074   120.12110349   179.97050332
 C      1   2   4     1.423491488431   179.63598276     9.47069556
 C     49   1   2     1.413812736343   120.91197202   174.27309968
 C     50  49   1     1.389662654543   120.79874529   179.99696230
 C     51  50  49     1.411284200668   120.69750779     0.00000000
 C     52  51  50     1.411441999179   118.62769180     0.00000000
 C     53  52  51     1.389533331421   120.72487005     0.00000000
 H     52  51  50     3.718817658966   120.72552706   180.00287027
 H     53  52  51     1.091516165510   119.14101731   179.97545654
 H     50  49   1     1.091500871228   119.19411146     0.04019211
 H     54  53  52     1.091364264197   120.09641370   179.97392966
 H     51  50  49     1.091417413007   120.09004746   180.02918214
 C     52  51  50     1.430640334209   120.69951375   180.00447019
 C     55  52  51     1.072555675039     0.04629964   359.02884181
 C     41  40  39     1.430898283939   120.68118385   180.00300651
 C     44  41  40     1.072589613088     0.00687605     2.12526547

---------------------------
INTERNAL COORDINATES (A.U.)
---------------------------
 C      0   0   0     0.000000000000     0.00000000     0.00000000
 C      1   0   0     2.314434444042     0.00000000     0.00000000
 C      2   1   0    10.722177936767   177.44255756     0.00000000
 C      2   1   3     2.681956052166   178.91633525     0.95116734
 C      4   2   1     2.733307036528   121.28127283   177.34690187
 C      5   4   2     2.689309780481   116.53630059   180.05151761
 C      6   5   4     2.640296795340   122.75893800   359.97254005
 C      7   6   5     2.708573453316   120.26683998     0.00000000
 C      8   7   6     2.634542897624   117.58953501     0.00000000
 H      6   5   4     2.059937417265   119.13520003   179.98814308
 H      9   8   7     2.059449972559   119.63041169   179.98251657
 C      5   4   2     2.666280980315   121.76171455     0.08094689
 H     12   5   4     2.066525668632   117.21182552     0.00000000
 C     12   5   4     2.833364357554   125.02894282   179.96026277
 H     14  12   5     2.097375569294   110.00128825   302.64339252
 H     14  12   5     2.097376104906   110.01046723    57.42119819
 C     14  12   5     2.898722987793   113.47430760   180.03959354
 H     17  14  12     2.089497286746   108.97987194   302.30500191
 H     17  14  12     2.089490926505   108.97770519    57.63356097
 C     17  14  12     2.890162795220   113.12372701   179.96754281
 H     20  17  14     2.086120768840   111.30984695    59.86476478
 H     20  17  14     2.086118568108   111.30768517   300.13198240
 C      8   7   6     2.862018830934   119.52571167   179.97422192
 H     23   8   7     2.091138195264   108.17063914   303.83578800
 H     23   8   7     2.091186904185   108.17960601    56.40940097
 C     23   8   7     2.892554285028   116.96093755   180.12900104
 H     26  23   8     2.090100951071   109.84941389   301.69019857
 H     26  23   8     2.090093925229   109.84087964    58.20775548
 C     26  23   8     2.897310514448   112.60523723   179.94374157
 H     29  26  23     2.090605963517   109.20825605   302.32540317
 H     29  26  23     2.090611023478   109.21129326    57.70392984
 C     29  26  23     2.891644015798   113.16304059   180.01638374
 H     32  29  26     2.086175866971   111.30281520    59.86589868
 H     32  29  26     2.086182102067   111.30527074   300.13244450
 C      3   2   1     2.310319061177   179.57604189   181.28432800
 H     20  17  14     2.081967092881   111.42539137   179.99925957
 H     32  29  26     2.082309377770   111.49855809   179.99791384
 C     35   3   7     2.694150419671   179.79417030   339.25188791
 C     38  35   3     2.669932124399   120.75822702     9.97605705
 C     39  38  35     2.626816691331   120.74901628   180.00750554
 C     40  39  38     2.666526976541   120.68696321     0.00000000
 C     41  40  39     2.666656392237   118.65966676     0.00000000
 C     42  41  40     2.626613890732   120.68005546     0.00000000
 H     41  40  39     7.027851114492   120.69340533   180.00286211
 H     42  41  40     2.062557709739   119.19037617   180.02716486
 H     39  38  35     2.062484382081   119.15615109   359.97345899
 H     43  42  41     2.062628255823   120.05882902   180.02969477
 H     40  39  38     2.062541553103   120.12110349   179.97050332
 C      1   2   4     2.690009067103   179.63598276     9.47069556
 C     49   1   2     2.671718876338   120.91197202   174.27309968
 C     50  49   1     2.626081835625   120.79874529   179.99696230
 C     51  50  49     2.666940636393   120.69750779     0.00000000
 C     52  51  50     2.667238832362   118.62769180     0.00000000
 C     53  52  51     2.625837450342   120.72487005     0.00000000
 H     52  51  50     7.027546917437   120.72552706   180.00287027
 H     53  52  51     2.062666623561   119.14101731   179.97545654
 H     50  49   1     2.062637721557   119.19411146     0.04019211
 H     54  53  52     2.062379571681   120.09641370   179.97392966
 H     51  50  49     2.062480008376   120.09004746   180.02918214
 C     52  51  50     2.703518427797   120.69951375   180.00447019
 C     55  52  51     2.026836489206     0.04629964   359.02884181
 C     41  40  39     2.704005882143   120.68118385   180.00300651
 C     44  41  40     2.026900622824     0.00687605     2.12526547

---------------------
BASIS SET INFORMATION
---------------------
There are 2 groups of distinct atoms

 Group   1 Type C   : 17s4p1d contracted to 3s2p1d pattern {881/31/1}
 Group   2 Type H   : 4s1p contracted to 2s1p pattern {31/1}

Atom   0C    basis set group =>   1
Atom   1C    basis set group =>   1
Atom   2C    basis set group =>   1
Atom   3C    basis set group =>   1
Atom   4C    basis set group =>   1
Atom   5C    basis set group =>   1
Atom   6C    basis set group =>   1
Atom   7C    basis set group =>   1
Atom   8C    basis set group =>   1
Atom   9H    basis set group =>   2
Atom  10H    basis set group =>   2
Atom  11C    basis set group =>   1
Atom  12H    basis set group =>   2
Atom  13C    basis set group =>   1
Atom  14H    basis set group =>   2
Atom  15H    basis set group =>   2
Atom  16C    basis set group =>   1
Atom  17H    basis set group =>   2
Atom  18H    basis set group =>   2
Atom  19C    basis set group =>   1
Atom  20H    basis set group =>   2
Atom  21H    basis set group =>   2
Atom  22C    basis set group =>   1
Atom  23H    basis set group =>   2
Atom  24H    basis set group =>   2
Atom  25C    basis set group =>   1
Atom  26H    basis set group =>   2
Atom  27H    basis set group =>   2
Atom  28C    basis set group =>   1
Atom  29H    basis set group =>   2
Atom  30H    basis set group =>   2
Atom  31C    basis set group =>   1
Atom  32H    basis set group =>   2
Atom  33H    basis set group =>   2
Atom  34C    basis set group =>   1
Atom  35H    basis set group =>   2
Atom  36H    basis set group =>   2
Atom  37C    basis set group =>   1
Atom  38C    basis set group =>   1
Atom  39C    basis set group =>   1
Atom  40C    basis set group =>   1
Atom  41C    basis set group =>   1
Atom  42C    basis set group =>   1
Atom  43H    basis set group =>   2
Atom  44H    basis set group =>   2
Atom  45H    basis set group =>   2
Atom  46H    basis set group =>   2
Atom  47H    basis set group =>   2
Atom  48C    basis set group =>   1
Atom  49C    basis set group =>   1
Atom  50C    basis set group =>   1
Atom  51C    basis set group =>   1
Atom  52C    basis set group =>   1
Atom  53C    basis set group =>   1
Atom  54H    basis set group =>   2
Atom  55H    basis set group =>   2
Atom  56H    basis set group =>   2
Atom  57H    basis set group =>   2
Atom  58H    basis set group =>   2
Atom  59C    basis set group =>   1
Atom  60C    basis set group =>   1
Atom  61C    basis set group =>   1
Atom  62C    basis set group =>   1
---------------------------------
AUXILIARY/J BASIS SET INFORMATION
---------------------------------
There are 2 groups of distinct atoms

 Group   1 Type C   : 14s11p10d2f contracted to 14s11p10d2f pattern {11111111111111/11111111111/1111111111/11}
 Group   2 Type H   : 9s2p1d contracted to 9s2p1d pattern {111111111/11/1}

Atom   0C    basis set group =>   1
Atom   1C    basis set group =>   1
Atom   2C    basis set group =>   1
Atom   3C    basis set group =>   1
Atom   4C    basis set group =>   1
Atom   5C    basis set group =>   1
Atom   6C    basis set group =>   1
Atom   7C    basis set group =>   1
Atom   8C    basis set group =>   1
Atom   9H    basis set group =>   2
Atom  10H    basis set group =>   2
Atom  11C    basis set group =>   1
Atom  12H    basis set group =>   2
Atom  13C    basis set group =>   1
Atom  14H    basis set group =>   2
Atom  15H    basis set group =>   2
Atom  16C    basis set group =>   1
Atom  17H    basis set group =>   2
Atom  18H    basis set group =>   2
Atom  19C    basis set group =>   1
Atom  20H    basis set group =>   2
Atom  21H    basis set group =>   2
Atom  22C    basis set group =>   1
Atom  23H    basis set group =>   2
Atom  24H    basis set group =>   2
Atom  25C    basis set group =>   1
Atom  26H    basis set group =>   2
Atom  27H    basis set group =>   2
Atom  28C    basis set group =>   1
Atom  29H    basis set group =>   2
Atom  30H    basis set group =>   2
Atom  31C    basis set group =>   1
Atom  32H    basis set group =>   2
Atom  33H    basis set group =>   2
Atom  34C    basis set group =>   1
Atom  35H    basis set group =>   2
Atom  36H    basis set group =>   2
Atom  37C    basis set group =>   1
Atom  38C    basis set group =>   1
Atom  39C    basis set group =>   1
Atom  40C    basis set group =>   1
Atom  41C    basis set group =>   1
Atom  42C    basis set group =>   1
Atom  43H    basis set group =>   2
Atom  44H    basis set group =>   2
Atom  45H    basis set group =>   2
Atom  46H    basis set group =>   2
Atom  47H    basis set group =>   2
Atom  48C    basis set group =>   1
Atom  49C    basis set group =>   1
Atom  50C    basis set group =>   1
Atom  51C    basis set group =>   1
Atom  52C    basis set group =>   1
Atom  53C    basis set group =>   1
Atom  54H    basis set group =>   2
Atom  55H    basis set group =>   2
Atom  56H    basis set group =>   2
Atom  57H    basis set group =>   2
Atom  58H    basis set group =>   2
Atom  59C    basis set group =>   1
Atom  60C    basis set group =>   1
Atom  61C    basis set group =>   1
Atom  62C    basis set group =>   1
---------------------------------
AUXILIARY/C BASIS SET INFORMATION
---------------------------------
There are 2 groups of distinct atoms

 Group   1 Type C   : 14s11p10d2f contracted to 14s11p10d2f pattern {11111111111111/11111111111/1111111111/11}
 Group   2 Type H   : 9s2p1d contracted to 9s2p1d pattern {111111111/11/1}

Atom   0C    basis set group =>   1
Atom   1C    basis set group =>   1
Atom   2C    basis set group =>   1
Atom   3C    basis set group =>   1
Atom   4C    basis set group =>   1
Atom   5C    basis set group =>   1
Atom   6C    basis set group =>   1
Atom   7C    basis set group =>   1
Atom   8C    basis set group =>   1
Atom   9H    basis set group =>   2
Atom  10H    basis set group =>   2
Atom  11C    basis set group =>   1
Atom  12H    basis set group =>   2
Atom  13C    basis set group =>   1
Atom  14H    basis set group =>   2
Atom  15H    basis set group =>   2
Atom  16C    basis set group =>   1
Atom  17H    basis set group =>   2
Atom  18H    basis set group =>   2
Atom  19C    basis set group =>   1
Atom  20H    basis set group =>   2
Atom  21H    basis set group =>   2
Atom  22C    basis set group =>   1
Atom  23H    basis set group =>   2
Atom  24H    basis set group =>   2
Atom  25C    basis set group =>   1
Atom  26H    basis set group =>   2
Atom  27H    basis set group =>   2
Atom  28C    basis set group =>   1
Atom  29H    basis set group =>   2
Atom  30H    basis set group =>   2
Atom  31C    basis set group =>   1
Atom  32H    basis set group =>   2
Atom  33H    basis set group =>   2
Atom  34C    basis set group =>   1
Atom  35H    basis set group =>   2
Atom  36H    basis set group =>   2
Atom  37C    basis set group =>   1
Atom  38C    basis set group =>   1
Atom  39C    basis set group =>   1
Atom  40C    basis set group =>   1
Atom  41C    basis set group =>   1
Atom  42C    basis set group =>   1
Atom  43H    basis set group =>   2
Atom  44H    basis set group =>   2
Atom  45H    basis set group =>   2
Atom  46H    basis set group =>   2
Atom  47H    basis set group =>   2
Atom  48C    basis set group =>   1
Atom  49C    basis set group =>   1
Atom  50C    basis set group =>   1
Atom  51C    basis set group =>   1
Atom  52C    basis set group =>   1
Atom  53C    basis set group =>   1
Atom  54H    basis set group =>   2
Atom  55H    basis set group =>   2
Atom  56H    basis set group =>   2
Atom  57H    basis set group =>   2
Atom  58H    basis set group =>   2
Atom  59C    basis set group =>   1
Atom  60C    basis set group =>   1
Atom  61C    basis set group =>   1
Atom  62C    basis set group =>   1
----------------------------------
AUXILIARY/JK BASIS SET INFORMATION
----------------------------------
There are 2 groups of distinct atoms

 Group   1 Type C   : 14s11p10d2f contracted to 14s11p10d2f pattern {11111111111111/11111111111/1111111111/11}
 Group   2 Type H   : 9s2p1d contracted to 9s2p1d pattern {111111111/11/1}

Atom   0C    basis set group =>   1
Atom   1C    basis set group =>   1
Atom   2C    basis set group =>   1
Atom   3C    basis set group =>   1
Atom   4C    basis set group =>   1
Atom   5C    basis set group =>   1
Atom   6C    basis set group =>   1
Atom   7C    basis set group =>   1
Atom   8C    basis set group =>   1
Atom   9H    basis set group =>   2
Atom  10H    basis set group =>   2
Atom  11C    basis set group =>   1
Atom  12H    basis set group =>   2
Atom  13C    basis set group =>   1
Atom  14H    basis set group =>   2
Atom  15H    basis set group =>   2
Atom  16C    basis set group =>   1
Atom  17H    basis set group =>   2
Atom  18H    basis set group =>   2
Atom  19C    basis set group =>   1
Atom  20H    basis set group =>   2
Atom  21H    basis set group =>   2
Atom  22C    basis set group =>   1
Atom  23H    basis set group =>   2
Atom  24H    basis set group =>   2
Atom  25C    basis set group =>   1
Atom  26H    basis set group =>   2
Atom  27H    basis set group =>   2
Atom  28C    basis set group =>   1
Atom  29H    basis set group =>   2
Atom  30H    basis set group =>   2
Atom  31C    basis set group =>   1
Atom  32H    basis set group =>   2
Atom  33H    basis set group =>   2
Atom  34C    basis set group =>   1
Atom  35H    basis set group =>   2
Atom  36H    basis set group =>   2
Atom  37C    basis set group =>   1
Atom  38C    basis set group =>   1
Atom  39C    basis set group =>   1
Atom  40C    basis set group =>   1
Atom  41C    basis set group =>   1
Atom  42C    basis set group =>   1
Atom  43H    basis set group =>   2
Atom  44H    basis set group =>   2
Atom  45H    basis set group =>   2
Atom  46H    basis set group =>   2
Atom  47H    basis set group =>   2
Atom  48C    basis set group =>   1
Atom  49C    basis set group =>   1
Atom  50C    basis set group =>   1
Atom  51C    basis set group =>   1
Atom  52C    basis set group =>   1
Atom  53C    basis set group =>   1
Atom  54H    basis set group =>   2
Atom  55H    basis set group =>   2
Atom  56H    basis set group =>   2
Atom  57H    basis set group =>   2
Atom  58H    basis set group =>   2
Atom  59C    basis set group =>   1
Atom  60C    basis set group =>   1
Atom  61C    basis set group =>   1
Atom  62C    basis set group =>   1


           ************************************************************
           *        Program running with 16 parallel MPI-processes    *
           *              working on a common directory               *
           ************************************************************
------------------------------------------------------------------------------
                           ORCA GTO INTEGRAL CALCULATION
------------------------------------------------------------------------------

                         BASIS SET STATISTICS AND STARTUP INFO

 # of primitive gaussian shells          ...  893
 # of primitive gaussian functions       ... 1359
 # of contracted shells                  ...  291
 # of contracted basis functions         ...  621
 Highest angular momentum                ...    2
 Maximum contraction depth               ...    8
 Integral package used                   ... LIBINT
 Integral threshhold            Thresh   ...  1.000e-10
 Primitive cut-off              TCut     ...  1.000e-11


------------------------------ INTEGRAL EVALUATION ----------------------------


 * One electron integrals 
 Pre-screening matrix                    ... done
 Shell pair data                         ... done (   0.011 sec)



           ************************************************************
           *        Program running with 16 parallel MPI-processes    *
           *              working on a common directory               *
           ************************************************************
-------------------------------------------------------------------------------
                                 ORCA SCF
-------------------------------------------------------------------------------

------------
SCF SETTINGS
------------
Hamiltonian:
 Density Functional     Method          .... DFT(GTOs)
 Exchange Functional    Exchange        .... B88
   X-Alpha parameter    XAlpha          ....  0.666667
   Becke's b parameter  XBeta           ....  0.004200
 Correlation Functional Correlation     .... LYP
 LDA part of GGA corr.  LDAOpt          .... VWN-5
 Gradients option       PostSCFGGA      .... off
 Hybrid DFT is turned on
   Fraction HF Exchange ScalHFX         ....  0.200000
   Scaling of DF-GGA-X  ScalDFX         ....  0.720000
   Scaling of DF-GGA-C  ScalDFC         ....  0.810000
   Scaling of DF-LDA-C  ScalLDAC        ....  1.000000
   Perturbative correction              ....  0.000000
   Density functional embedding theory  .... OFF
   NL short-range parameter             ....  4.800000


General Settings:
 Integral files         IntName         .... cc-pVDZ
 Hartree-Fock type      HFTyp           .... UHF
 Total Charge           Charge          ....    0
 Multiplicity           Mult            ....    2
 Number of Electrons    NEL             ....  233
 Basis Dimension        Dim             ....  621
 Nuclear Repulsion      ENuc            ....   2736.0161529552 Eh

Convergence Acceleration:
 DIIS                   CNVDIIS         .... on
   Start iteration      DIISMaxIt       ....    12
   Startup error        DIISStart       ....  0.200000
   # of expansion vecs  DIISMaxEq       ....     5
   Bias factor          DIISBfac        ....   1.050
   Max. coefficient     DIISMaxC        ....  10.000
 Newton-Raphson         CNVNR           .... off
 SOSCF                  CNVSOSCF        .... off
 Level Shifting         CNVShift        .... on
   Level shift para.    LevelShift      ....    0.2500
   Turn off err/grad.   ShiftErr        ....    0.0010
 Zerner damping         CNVZerner       .... off
 Static damping         CNVDamp         .... on
   Fraction old density DampFac         ....    0.7000
   Max. Damping (<1)    DampMax         ....    0.9800
   Min. Damping (>=0)   DampMin         ....    0.0000
   Turn off err/grad.   DampErr         ....    0.1000
 Fernandez-Rico         CNVRico         .... off

SCF Procedure:
 Maximum # iterations   MaxIter         ....   125
 SCF integral mode      SCFMode         .... Direct
   Integral package                     .... LIBINT
 Reset frequency        DirectResetFreq ....    20
 Integral Threshold     Thresh          ....  1.000e-10 Eh
 Primitive CutOff       TCut            ....  1.000e-11 Eh

Convergence Tolerance:
 Convergence Check Mode ConvCheckMode   .... Total+1el-Energy
 Convergence forced     ConvForced      .... 0
 Energy Change          TolE            ....  1.000e-06 Eh
 1-El. energy change                    ....  1.000e-03 Eh
 DIIS Error             TolErr          ....  1.000e-06


Diagonalization of the overlap matrix:
Smallest eigenvalue                        ... 4.461e-05
Time for diagonalization                   ...    0.265 sec
Threshold for overlap eigenvalues          ... 1.000e-08
Number of eigenvalues below threshold      ... 0
Time for construction of square roots      ...    0.071 sec
Total time needed                          ...    0.337 sec

-------------------
DFT GRID GENERATION
-------------------

General Integration Accuracy     IntAcc      ...  4.340
Radial Grid Type                 RadialGrid  ... Gauss-Chebyshev
Angular Grid (max. acc.)         AngularGrid ... Lebedev-110
Angular grid pruning method      GridPruning ... 3 (G Style)
Weight generation scheme         WeightScheme... Becke
Basis function cutoff            BFCut       ...    1.0000e-10
Integration weight cutoff        WCut        ...    1.0000e-14
Grids for H and He will be reduced by one unit

# of grid points (after initial pruning)     ...  79330 (   0.0 sec)
# of grid points (after weights+screening)   ...  70760 (   0.2 sec)
nearest neighbour list constructed           ...    0.0 sec
Grid point re-assignment to atoms done       ...    0.0 sec
Grid point division into batches done        ...    0.1 sec
Reduced shell lists constructed in    0.2 sec

Total number of grid points                  ...    70760
Total number of batches                      ...     1133
Average number of points per batch           ...       62
Average number of grid points per atom       ...     1123
Average number of shells per batch           ...   112.00 (38.49%)
Average number of basis functions per batch  ...   229.22 (36.91%)
Average number of large shells per batch     ...    64.32 (57.43%)
Average number of large basis fcns per batch ...   136.49 (59.54%)
Maximum spatial batch extension              ...   3.46,  7.17, 20.28 au
Average spatial batch extension              ...   0.12,  0.15,  0.24 au

Time for grid setup =    0.525 sec

------------------------------
INITIAL GUESS: MODEL POTENTIAL
------------------------------
Loading Hartree-Fock densities                     ... done
Calculating cut-offs                               ... done
Setting up the integral package                    ... done
Initializing the effective Hamiltonian             ... done
Starting the Coulomb interaction                   ... done (   0.4 sec)
Reading the grid                                   ... done
Mapping shells                                     ... done
Starting the XC term evaluation                    ... done (   0.2 sec)
  promolecular density results
     # of electrons  =    233.018622230
     EX              =   -183.186989884
     EC              =     -7.721731595
     EX+EC           =   -190.908721479
Transforming the Hamiltonian                       ... done (   0.0 sec)
Diagonalizing the Hamiltonian                      ... done (   0.1 sec)
Back transforming the eigenvectors                 ... done (   0.0 sec)
Now organizing SCF variables                       ... done
                      ------------------
                      INITIAL GUESS DONE (   1.5 sec)
                      ------------------
--------------
SCF ITERATIONS
--------------
ITER       Energy         Delta-E        Max-DP      RMS-DP      [F,P]     Damp
               ***  Starting incremental Fock matrix formation  ***
  0  -1311.3618305520   0.000000000000 0.07162113  0.00083994  0.1734345 0.7000
  1  -1311.6592392552  -0.297408703157 0.06330571  0.00067061  0.0912810 0.7000
                               ***Turning on DIIS***
  2  -1311.7984459132  -0.139206658061 0.13224756  0.00133201  0.0348543 0.0000
  3  -1311.9984210169  -0.199975103686 0.02906046  0.00033817  0.0497042 0.0000
  4  -1312.0457275426  -0.047306525637 0.01712932  0.00014749  0.0102218 0.0000
  5  -1312.0486422277  -0.002914685114 0.00445740  0.00003318  0.0026404 0.0000
  6  -1312.0490421964  -0.000399968727 0.00314488  0.00001661  0.0013694 0.0000
  7  -1312.0491974849  -0.000155288545 0.00215794  0.00001085  0.0010314 0.0000
  8  -1312.0492845053  -0.000087020388 0.00395948  0.00002320  0.0007832 0.0000
  9  -1312.0494020072  -0.000117501909 0.00124876  0.00000786  0.0003320 0.0000
 10  -1312.0494221790  -0.000020171778 0.00117111  0.00000592  0.0002481 0.0000
 11  -1312.0494311837  -0.000009004654 0.00037444  0.00000209  0.0002236 0.0000
 12  -1312.0494332773  -0.000002093633 0.00026615  0.00000147  0.0001523 0.0000
 13  -1312.0494344598  -0.000001182515 0.00019801  0.00000107  0.0000467 0.0000
                 **** Energy Check signals convergence ****

               *****************************************************
               *                     SUCCESS                       *
               *           SCF CONVERGED AFTER  14 CYCLES          *
               *****************************************************

Setting up the final grid:

General Integration Accuracy     IntAcc      ...  4.670
Radial Grid Type                 RadialGrid  ... Gauss-Chebyshev
Angular Grid (max. acc.)         AngularGrid ... Lebedev-302
Angular grid pruning method      GridPruning ... 3 (G Style)
Weight generation scheme         WeightScheme... Becke
Basis function cutoff            BFCut       ...    1.0000e-10
Integration weight cutoff        WCut        ...    1.0000e-14
Grids for H and He will be reduced by one unit

# of grid points (after initial pruning)     ... 309634 (   0.0 sec)
# of grid points (after weights+screening)   ... 270969 (   0.7 sec)
nearest neighbour list constructed           ...    0.0 sec
Grid point re-assignment to atoms done       ...    0.1 sec
Grid point division into batches done        ...    1.0 sec
Reduced shell lists constructed in    1.6 sec

Total number of grid points                  ...   270969
Total number of batches                      ...     4269
Average number of points per batch           ...       63
Average number of grid points per atom       ...     4301
Average number of shells per batch           ...   102.08 (35.08%)
Average number of basis functions per batch  ...   208.01 (33.50%)
Average number of large shells per batch     ...    58.44 (57.25%)
Average number of large basis fcns per batch ...   123.87 (59.55%)
Maximum spatial batch extension              ...   6.28,  9.13, 26.50 au
Average spatial batch extension              ...   0.09,  0.10,  0.13 au

Final grid set up in    2.4 sec
Final integration                            ... done (   0.8 sec)
Change in XC energy                          ...     0.000680496
Integrated number of electrons               ...   232.999909449
Previous integrated no of electrons          ...   233.013539774

----------------
TOTAL SCF ENERGY
----------------

Total Energy       :        -1312.04875460 Eh          -35702.66170 eV

Components:
Nuclear Repulsion  :         2736.01615296 Eh           74450.78453 eV
Electronic Energy  :        -4048.06490756 Eh         -110153.44623 eV
One Electron Energy:        -7208.26487558 Eh         -196146.85918 eV
Two Electron Energy:         3160.19996802 Eh           85993.41295 eV

Virial components:
Potential Energy   :        -2615.24279137 Eh          -71164.37428 eV
Kinetic Energy     :         1303.19403677 Eh           35461.71258 eV
Virial Ratio       :            2.00679463


DFT components:
N(Alpha)           :      116.999963321940 electrons
N(Beta)            :      115.999946127146 electrons
N(Total)           :      232.999909449086 electrons
E(X)               :     -147.896161324324 Eh       
E(C)               :       -9.123494956963 Eh       
E(XC)              :     -157.019656281288 Eh       
DFET-embed. en.    :        0.000000000000 Eh       

---------------
SCF CONVERGENCE
---------------

  Last Energy change         ...   -6.4076e-07  Tolerance :   1.0000e-06
  Last MAX-Density change    ...    1.7009e-04  Tolerance :   1.0000e-05
  Last RMS-Density change    ...    1.0346e-06  Tolerance :   1.0000e-06
  Last DIIS Error            ...    2.9053e-05  Tolerance :   1.0000e-06

             **** THE GBW FILE WAS UPDATED (cc-pVDZ.gbw) ****
             **** DENSITY FILE WAS UPDATED (cc-pVDZ.scfp) ****
             **** ENERGY FILE WAS UPDATED (cc-pVDZ.en.tmp) ****
----------------------
UHF SPIN CONTAMINATION
----------------------

Warning: in a DFT calculation there is little theoretical justification to 
         calculate <S**2> as in Hartree-Fock theory. We will do it anyways
         but you should keep in mind that the values have only limited relevance

Expectation value of <S**2>     :     0.787983
Ideal value S*(S+1) for S=0.5   :     0.750000
Deviation                       :     0.037983

             **** THE GBW FILE WAS UPDATED (cc-pVDZ.gbw) ****
             **** DENSITY FILE WAS UPDATED (cc-pVDZ.scfp) ****
----------------
ORBITAL ENERGIES
----------------
                 SPIN UP ORBITALS
  NO   OCC          E(Eh)            E(eV) 
   0   1.0000     -10.223752      -278.2024 
   1   1.0000     -10.222581      -278.1706 
   2   1.0000     -10.222006      -278.1549 
   3   1.0000     -10.221065      -278.1293 
   4   1.0000     -10.217649      -278.0364 
   5   1.0000     -10.215613      -277.9810 
   6   1.0000     -10.205839      -277.7150 
   7   1.0000     -10.204292      -277.6729 
   8   1.0000     -10.204206      -277.6706 
   9   1.0000     -10.203680      -277.6563 
  10   1.0000     -10.203545      -277.6526 
  11   1.0000     -10.202735      -277.6305 
  12   1.0000     -10.202577      -277.6262 
  13   1.0000     -10.202228      -277.6167 
  14   1.0000     -10.202024      -277.6112 
  15   1.0000     -10.201801      -277.6051 
  16   1.0000     -10.198162      -277.5061 
  17   1.0000     -10.196316      -277.4559 
  18   1.0000     -10.195595      -277.4362 
  19   1.0000     -10.195056      -277.4216 
  20   1.0000     -10.194219      -277.3988 
  21   1.0000     -10.193890      -277.3899 
  22   1.0000     -10.193225      -277.3717 
  23   1.0000     -10.192915      -277.3633 
  24   1.0000     -10.191871      -277.3349 
  25   1.0000     -10.191265      -277.3184 
  26   1.0000     -10.190891      -277.3082 
  27   1.0000     -10.190281      -277.2916 
  28   1.0000     -10.189618      -277.2736 
  29   1.0000     -10.186843      -277.1981 
  30   1.0000     -10.184669      -277.1389 
  31   1.0000     -10.184368      -277.1307 
  32   1.0000     -10.179373      -276.9948 
  33   1.0000     -10.177782      -276.9515 
  34   1.0000      -0.877864       -23.8879 
  35   1.0000      -0.875376       -23.8202 
  36   1.0000      -0.873895       -23.7799 
  37   1.0000      -0.824204       -22.4277 
  38   1.0000      -0.809061       -22.0157 
  39   1.0000      -0.806163       -21.9368 
  40   1.0000      -0.799110       -21.7449 
  41   1.0000      -0.793146       -21.5826 
  42   1.0000      -0.771116       -20.9831 
  43   1.0000      -0.759726       -20.6732 
  44   1.0000      -0.758675       -20.6446 
  45   1.0000      -0.758375       -20.6364 
  46   1.0000      -0.746253       -20.3066 
  47   1.0000      -0.737093       -20.0573 
  48   1.0000      -0.725995       -19.7553 
  49   1.0000      -0.712927       -19.3997 
  50   1.0000      -0.700541       -19.0627 
  51   1.0000      -0.660780       -17.9807 
  52   1.0000      -0.658133       -17.9087 
  53   1.0000      -0.642309       -17.4781 
  54   1.0000      -0.623358       -16.9624 
  55   1.0000      -0.619270       -16.8512 
  56   1.0000      -0.618689       -16.8354 
  57   1.0000      -0.617672       -16.8077 
  58   1.0000      -0.594986       -16.1904 
  59   1.0000      -0.582995       -15.8641 
  60   1.0000      -0.564821       -15.3696 
  61   1.0000      -0.553271       -15.0553 
  62   1.0000      -0.551964       -15.0197 
  63   1.0000      -0.542768       -14.7695 
  64   1.0000      -0.534275       -14.5384 
  65   1.0000      -0.510502       -13.8915 
  66   1.0000      -0.507323       -13.8050 
  67   1.0000      -0.496978       -13.5235 
  68   1.0000      -0.492432       -13.3998 
  69   1.0000      -0.482334       -13.1250 
  70   1.0000      -0.473645       -12.8885 
  71   1.0000      -0.473237       -12.8774 
  72   1.0000      -0.471528       -12.8309 
  73   1.0000      -0.465188       -12.6584 
  74   1.0000      -0.445669       -12.1273 
  75   1.0000      -0.444062       -12.0835 
  76   1.0000      -0.436363       -11.8741 
  77   1.0000      -0.432712       -11.7747 
  78   1.0000      -0.431241       -11.7347 
  79   1.0000      -0.429814       -11.6958 
  80   1.0000      -0.429053       -11.6751 
  81   1.0000      -0.424869       -11.5613 
  82   1.0000      -0.414572       -11.2811 
  83   1.0000      -0.402025       -10.9396 
  84   1.0000      -0.401809       -10.9338 
  85   1.0000      -0.394672       -10.7396 
  86   1.0000      -0.393716       -10.7136 
  87   1.0000      -0.386290       -10.5115 
  88   1.0000      -0.385245       -10.4830 
  89   1.0000      -0.382111       -10.3978 
  90   1.0000      -0.381726       -10.3873 
  91   1.0000      -0.368211       -10.0195 
  92   1.0000      -0.361235        -9.8297 
  93   1.0000      -0.360300        -9.8042 
  94   1.0000      -0.359129        -9.7724 
  95   1.0000      -0.358270        -9.7490 
  96   1.0000      -0.345071        -9.3899 
  97   1.0000      -0.343331        -9.3425 
  98   1.0000      -0.336089        -9.1454 
  99   1.0000      -0.335564        -9.1312 
 100   1.0000      -0.331398        -9.0178 
 101   1.0000      -0.330580        -8.9955 
 102   1.0000      -0.327111        -8.9011 
 103   1.0000      -0.325931        -8.8690 
 104   1.0000      -0.312085        -8.4923 
 105   1.0000      -0.285626        -7.7723 
 106   1.0000      -0.280114        -7.6223 
 107   1.0000      -0.278800        -7.5865 
 108   1.0000      -0.275167        -7.4877 
 109   1.0000      -0.273349        -7.4382 
 110   1.0000      -0.271640        -7.3917 
 111   1.0000      -0.266759        -7.2589 
 112   1.0000      -0.265919        -7.2360 
 113   1.0000      -0.260141        -7.0788 
 114   1.0000      -0.230306        -6.2669 
 115   1.0000      -0.209708        -5.7064 
 116   1.0000      -0.173921        -4.7326 
 117   0.0000      -0.076441        -2.0801 
 118   0.0000      -0.049484        -1.3465 
 119   0.0000      -0.016539        -0.4501 
 120   0.0000      -0.015343        -0.4175 
 121   0.0000      -0.014498        -0.3945 
 122   0.0000       0.011480         0.3124 
 123   0.0000       0.034746         0.9455 
 124   0.0000       0.039660         1.0792 
 125   0.0000       0.046201         1.2572 
 126   0.0000       0.049160         1.3377 
 127   0.0000       0.050128         1.3641 
 128   0.0000       0.053141         1.4460 
 129   0.0000       0.055705         1.5158 
 130   0.0000       0.060120         1.6359 
 131   0.0000       0.063076         1.7164 
 132   0.0000       0.071468         1.9448 
 133   0.0000       0.077215         2.1011 
 134   0.0000       0.080039         2.1780 
 135   0.0000       0.086784         2.3615 
 136   0.0000       0.087729         2.3872 
 137   0.0000       0.089772         2.4428 
 138   0.0000       0.090697         2.4680 
 139   0.0000       0.092654         2.5212 
 140   0.0000       0.099851         2.7171 
 141   0.0000       0.100197         2.7265 
 142   0.0000       0.104471         2.8428 
 143   0.0000       0.109576         2.9817 
 144   0.0000       0.117618         3.2006 
 145   0.0000       0.119950         3.2640 
 146   0.0000       0.127386         3.4664 
 147   0.0000       0.132971         3.6183 
 148   0.0000       0.139109         3.7853 
 149   0.0000       0.142390         3.8746 
 150   0.0000       0.143293         3.8992 
 151   0.0000       0.149382         4.0649 
 152   0.0000       0.154135         4.1942 
 153   0.0000       0.157245         4.2788 
 154   0.0000       0.157405         4.2832 
 155   0.0000       0.159355         4.3363 
 156   0.0000       0.164775         4.4838 
 157   0.0000       0.169145         4.6027 
 158   0.0000       0.171470         4.6659 
 159   0.0000       0.172032         4.6812 
 160   0.0000       0.179102         4.8736 
 161   0.0000       0.197201         5.3661 
 162   0.0000       0.197815         5.3828 
 163   0.0000       0.198615         5.4046 
 164   0.0000       0.204561         5.5664 
 165   0.0000       0.213775         5.8171 
 166   0.0000       0.214551         5.8382 
 167   0.0000       0.214726         5.8430 
 168   0.0000       0.221149         6.0178 
 169   0.0000       0.240485         6.5439 
 170   0.0000       0.242144         6.5891 
 171   0.0000       0.253596         6.9007 
 172   0.0000       0.255551         6.9539 
 173   0.0000       0.270218         7.3530 
 174   0.0000       0.273310         7.4371 
 175   0.0000       0.277379         7.5479 
 176   0.0000       0.278142         7.5686 
 177   0.0000       0.280576         7.6349 
 178   0.0000       0.287460         7.8222 
 179   0.0000       0.293454         7.9853 
 180   0.0000       0.305787         8.3209 
 181   0.0000       0.310022         8.4361 
 182   0.0000       0.329023         8.9532 
 183   0.0000       0.329713         8.9719 
 184   0.0000       0.343509         9.3474 
 185   0.0000       0.344207         9.3664 
 186   0.0000       0.350655         9.5418 
 187   0.0000       0.352876         9.6023 
 188   0.0000       0.368144        10.0177 
 189   0.0000       0.372054        10.1241 
 190   0.0000       0.376165        10.2360 
 191   0.0000       0.393224        10.7002 
 192   0.0000       0.402197        10.9443 
 193   0.0000       0.407377        11.0853 
 194   0.0000       0.408859        11.1256 
 195   0.0000       0.410136        11.1604 
 196   0.0000       0.414305        11.2738 
 197   0.0000       0.416032        11.3208 
 198   0.0000       0.428986        11.6733 
 199   0.0000       0.432160        11.7597 
 200   0.0000       0.435324        11.8458 
 201   0.0000       0.436947        11.8899 
 202   0.0000       0.439356        11.9555 
 203   0.0000       0.441614        12.0169 
 204   0.0000       0.444938        12.1074 
 205   0.0000       0.446155        12.1405 
 206   0.0000       0.450001        12.2452 
 207   0.0000       0.454429        12.3656 
 208   0.0000       0.456695        12.4273 
 209   0.0000       0.457926        12.4608 
 210   0.0000       0.460336        12.5264 
 211   0.0000       0.461788        12.5659 
 212   0.0000       0.466961        12.7067 
 213   0.0000       0.475596        12.9416 
 214   0.0000       0.475992        12.9524 
 215   0.0000       0.481552        13.1037 
 216   0.0000       0.488523        13.2934 
 217   0.0000       0.491576        13.3765 
 218   0.0000       0.495770        13.4906 
 219   0.0000       0.496274        13.5043 
 220   0.0000       0.499000        13.5785 
 221   0.0000       0.501646        13.6505 
 222   0.0000       0.503949        13.7131 
 223   0.0000       0.506780        13.7902 
 224   0.0000       0.507795        13.8178 
 225   0.0000       0.509538        13.8652 
 226   0.0000       0.510093        13.8803 
 227   0.0000       0.510847        13.9009 
 228   0.0000       0.512548        13.9471 
 229   0.0000       0.513504        13.9732 
 230   0.0000       0.518995        14.1226 
 231   0.0000       0.523876        14.2554 
 232   0.0000       0.530432        14.4338 
 233   0.0000       0.534929        14.5562 
 234   0.0000       0.540722        14.7138 
 235   0.0000       0.545757        14.8508 
 236   0.0000       0.549690        14.9578 
 237   0.0000       0.553260        15.0550 
 238   0.0000       0.560533        15.2529 
 239   0.0000       0.576512        15.6877 
 240   0.0000       0.577866        15.7245 
 241   0.0000       0.579600        15.7717 
 242   0.0000       0.581073        15.8118 
 243   0.0000       0.593112        16.1394 
 244   0.0000       0.593328        16.1453 
 245   0.0000       0.597605        16.2617 
 246   0.0000       0.604436        16.4475 
 247   0.0000       0.612508        16.6672 
 248   0.0000       0.615955        16.7610 
 249   0.0000       0.616085        16.7645 
 250   0.0000       0.617272        16.7968 
 251   0.0000       0.619538        16.8585 
 252   0.0000       0.623022        16.9533 
 253   0.0000       0.627725        17.0813 
 254   0.0000       0.632437        17.2095 
 255   0.0000       0.635018        17.2797 
 256   0.0000       0.638993        17.3879 
 257   0.0000       0.640568        17.4307 
 258   0.0000       0.644968        17.5505 
 259   0.0000       0.647281        17.6134 
 260   0.0000       0.650497        17.7009 
 261   0.0000       0.653225        17.7752 
 262   0.0000       0.655372        17.8336 
 263   0.0000       0.657089        17.8803 
 264   0.0000       0.657967        17.9042 
 265   0.0000       0.660070        17.9614 
 266   0.0000       0.664275        18.0758 
 267   0.0000       0.664994        18.0954 
 268   0.0000       0.665199        18.1010 
 269   0.0000       0.669700        18.2235 
 270   0.0000       0.669865        18.2280 
 271   0.0000       0.671899        18.2833 
 272   0.0000       0.679731        18.4964 
 273   0.0000       0.684726        18.6323 
 274   0.0000       0.685944        18.6655 
 275   0.0000       0.688881        18.7454 
 276   0.0000       0.690200        18.7813 
 277   0.0000       0.692464        18.8429 
 278   0.0000       0.694358        18.8945 
 279   0.0000       0.698857        19.0169 
 280   0.0000       0.700506        19.0617 
 281   0.0000       0.703478        19.1426 
 282   0.0000       0.704426        19.1684 
 283   0.0000       0.708043        19.2668 
 284   0.0000       0.710114        19.3232 
 285   0.0000       0.715452        19.4684 
 286   0.0000       0.716304        19.4916 
 287   0.0000       0.719787        19.5864 
 288   0.0000       0.724243        19.7077 
 289   0.0000       0.728145        19.8138 
 290   0.0000       0.737241        20.0613 
 291   0.0000       0.738387        20.0925 
 292   0.0000       0.744635        20.2625 
 293   0.0000       0.759728        20.6732 
 294   0.0000       0.761842        20.7308 
 295   0.0000       0.774018        21.0621 
 296   0.0000       0.775164        21.0933 
 297   0.0000       0.784738        21.3538 
 298   0.0000       0.791298        21.5323 
 299   0.0000       0.796381        21.6706 
 300   0.0000       0.807171        21.9642 
 301   0.0000       0.809960        22.0401 
 302   0.0000       0.814849        22.1732 
 303   0.0000       0.818784        22.2802 
 304   0.0000       0.829277        22.5658 
 305   0.0000       0.833411        22.6783 
 306   0.0000       0.840378        22.8678 
 307   0.0000       0.841133        22.8884 
 308   0.0000       0.866625        23.5821 
 309   0.0000       0.868053        23.6209 
 310   0.0000       0.877974        23.8909 
 311   0.0000       0.880904        23.9706 
 312   0.0000       0.882942        24.0261 
 313   0.0000       0.887273        24.1439 
 314   0.0000       0.896486        24.3946 
 315   0.0000       0.900238        24.4967 
 316   0.0000       0.907643        24.6982 
 317   0.0000       0.911520        24.8037 
 318   0.0000       0.911994        24.8166 
 319   0.0000       0.921707        25.0809 
 320   0.0000       0.929910        25.3041 
 321   0.0000       0.933893        25.4125 
 322   0.0000       0.934813        25.4376 
 323   0.0000       0.945311        25.7232 
 324   0.0000       0.957345        26.0507 
 325   0.0000       0.963721        26.2242 
 326   0.0000       0.969009        26.3681 
 327   0.0000       0.969911        26.3926 
 328   0.0000       0.975393        26.5418 
 329   0.0000       0.980684        26.6858 
 330   0.0000       0.983920        26.7738 
 331   0.0000       0.989624        26.9290 
 332   0.0000       0.993828        27.0434 
 333   0.0000       0.995159        27.0797 
 334   0.0000       0.995841        27.0982 
 335   0.0000       1.000535        27.2259 
 336   0.0000       1.006484        27.3878 
 337   0.0000       1.010354        27.4931 
 338   0.0000       1.018097        27.7038 
 339   0.0000       1.020712        27.7750 
 340   0.0000       1.028896        27.9977 
 341   0.0000       1.029835        28.0232 
 342   0.0000       1.037506        28.2320 
 343   0.0000       1.045171        28.4406 
 344   0.0000       1.045307        28.4442 
 345   0.0000       1.046724        28.4828 
 346   0.0000       1.050955        28.5979 
 347   0.0000       1.056469        28.7480 
 348   0.0000       1.060334        28.8531 
 349   0.0000       1.064970        28.9793 
 350   0.0000       1.078595        29.3501 
 351   0.0000       1.080637        29.4056 
 352   0.0000       1.084428        29.5088 
 353   0.0000       1.087348        29.5883 
 354   0.0000       1.095629        29.8136 
 355   0.0000       1.103168        30.0187 
 356   0.0000       1.108566        30.1656 
 357   0.0000       1.115749        30.3611 
 358   0.0000       1.127786        30.6886 
 359   0.0000       1.135938        30.9104 
 360   0.0000       1.138041        30.9677 
 361   0.0000       1.152137        31.3512 
 362   0.0000       1.152725        31.3672 
 363   0.0000       1.163205        31.6524 
 364   0.0000       1.174073        31.9482 
 365   0.0000       1.181782        32.1579 
 366   0.0000       1.195200        32.5231 
 367   0.0000       1.202754        32.7286 
 368   0.0000       1.206167        32.8215 
 369   0.0000       1.210141        32.9296 
 370   0.0000       1.214900        33.0591 
 371   0.0000       1.217081        33.1184 
 372   0.0000       1.222439        33.2643 
 373   0.0000       1.224183        33.3117 
 374   0.0000       1.228643        33.4331 
 375   0.0000       1.249366        33.9970 
 376   0.0000       1.258001        34.2319 
 377   0.0000       1.260476        34.2993 
 378   0.0000       1.275887        34.7186 
 379   0.0000       1.278692        34.7950 
 380   0.0000       1.292500        35.1707 
 381   0.0000       1.293619        35.2012 
 382   0.0000       1.297226        35.2993 
 383   0.0000       1.300144        35.3787 
 384   0.0000       1.309512        35.6336 
 385   0.0000       1.315477        35.7960 
 386   0.0000       1.329577        36.1796 
 387   0.0000       1.332680        36.2641 
 388   0.0000       1.339361        36.4459 
 389   0.0000       1.347440        36.6657 
 390   0.0000       1.350398        36.7462 
 391   0.0000       1.372819        37.3563 
 392   0.0000       1.373940        37.3868 
 393   0.0000       1.379138        37.5283 
 394   0.0000       1.379753        37.5450 
 395   0.0000       1.390054        37.8253 
 396   0.0000       1.396828        38.0096 
 397   0.0000       1.397875        38.0381 
 398   0.0000       1.405320        38.2407 
 399   0.0000       1.411423        38.4068 
 400   0.0000       1.417926        38.5837 
 401   0.0000       1.422946        38.7203 
 402   0.0000       1.423934        38.7472 
 403   0.0000       1.424402        38.7599 
 404   0.0000       1.427190        38.8358 
 405   0.0000       1.428783        38.8792 
 406   0.0000       1.439263        39.1643 
 407   0.0000       1.444924        39.3184 
 408   0.0000       1.456721        39.6394 
 409   0.0000       1.460095        39.7312 
 410   0.0000       1.473696        40.1013 
 411   0.0000       1.474368        40.1196 
 412   0.0000       1.479229        40.2519 
 413   0.0000       1.483095        40.3571 
 414   0.0000       1.485024        40.4096 
 415   0.0000       1.486666        40.4542 
 416   0.0000       1.487954        40.4893 
 417   0.0000       1.492112        40.6024 
 418   0.0000       1.492414        40.6107 
 419   0.0000       1.493246        40.6333 
 420   0.0000       1.504484        40.9391 
 421   0.0000       1.516283        41.2601 
 422   0.0000       1.516552        41.2675 
 423   0.0000       1.523110        41.4459 
 424   0.0000       1.529054        41.6077 
 425   0.0000       1.536684        41.8153 
 426   0.0000       1.547132        42.0996 
 427   0.0000       1.568828        42.6900 
 428   0.0000       1.577363        42.9222 
 429   0.0000       1.577860        42.9357 
 430   0.0000       1.580901        43.0185 
 431   0.0000       1.583905        43.1002 
 432   0.0000       1.588452        43.2240 
 433   0.0000       1.592385        43.3310 
 434   0.0000       1.595250        43.4090 
 435   0.0000       1.595640        43.4196 
 436   0.0000       1.603839        43.6427 
 437   0.0000       1.606977        43.7281 
 438   0.0000       1.612232        43.8711 
 439   0.0000       1.613314        43.9005 
 440   0.0000       1.614295        43.9272 
 441   0.0000       1.622077        44.1390 
 442   0.0000       1.625851        44.2417 
 443   0.0000       1.625943        44.2441 
 444   0.0000       1.628429        44.3118 
 445   0.0000       1.634263        44.4706 
 446   0.0000       1.642043        44.6823 
 447   0.0000       1.645629        44.7799 
 448   0.0000       1.646757        44.8105 
 449   0.0000       1.651677        44.9444 
 450   0.0000       1.651949        44.9518 
 451   0.0000       1.655912        45.0597 
 452   0.0000       1.660410        45.1821 
 453   0.0000       1.669568        45.4313 
 454   0.0000       1.671572        45.4858 
 455   0.0000       1.676955        45.6323 
 456   0.0000       1.680855        45.7384 
 457   0.0000       1.681842        45.7652 
 458   0.0000       1.683171        45.8014 
 459   0.0000       1.683882        45.8208 
 460   0.0000       1.688454        45.9452 
 461   0.0000       1.691485        46.0277 
 462   0.0000       1.697750        46.1981 
 463   0.0000       1.698976        46.2315 
 464   0.0000       1.701792        46.3081 
 465   0.0000       1.702804        46.3357 
 466   0.0000       1.713624        46.6301 
 467   0.0000       1.714695        46.6592 
 468   0.0000       1.726463        46.9794 
 469   0.0000       1.731111        47.1059 
 470   0.0000       1.736981        47.2656 
 471   0.0000       1.738135        47.2971 
 472   0.0000       1.753167        47.7061 
 473   0.0000       1.762012        47.9468 
 474   0.0000       1.762096        47.9491 
 475   0.0000       1.763102        47.9764 
 476   0.0000       1.769631        48.1541 
 477   0.0000       1.770133        48.1678 
 478   0.0000       1.775825        48.3227 
 479   0.0000       1.776271        48.3348 
 480   0.0000       1.777636        48.3719 
 481   0.0000       1.784430        48.5568 
 482   0.0000       1.789276        48.6887 
 483   0.0000       1.793628        48.8071 
 484   0.0000       1.797087        48.9012 
 485   0.0000       1.797711        48.9182 
 486   0.0000       1.807838        49.1938 
 487   0.0000       1.809734        49.2454 
 488   0.0000       1.814096        49.3641 
 489   0.0000       1.822364        49.5890 
 490   0.0000       1.826504        49.7017 
 491   0.0000       1.829848        49.7927 
 492   0.0000       1.830714        49.8163 
 493   0.0000       1.833411        49.8897 
 494   0.0000       1.838803        50.0364 
 495   0.0000       1.846813        50.2543 
 496   0.0000       1.850630        50.3582 
 497   0.0000       1.856716        50.5238 
 498   0.0000       1.866134        50.7801 
 499   0.0000       1.883669        51.2572 
 500   0.0000       1.887169        51.3525 
 501   0.0000       1.899299        51.6825 
 502   0.0000       1.906806        51.8868 
 503   0.0000       1.915486        52.1230 
 504   0.0000       1.918540        52.2061 
 505   0.0000       1.919278        52.2262 
 506   0.0000       1.921220        52.2790 
 507   0.0000       1.926790        52.4306 
 508   0.0000       1.932113        52.5755 
 509   0.0000       1.933460        52.6121 
 510   0.0000       1.947046        52.9818 
 511   0.0000       1.949379        53.0453 
 512   0.0000       1.955322        53.2070 
 513   0.0000       1.961491        53.3749 
 514   0.0000       1.969710        53.5985 
 515   0.0000       1.971088        53.6360 
 516   0.0000       1.973962        53.7142 
 517   0.0000       1.988843        54.1192 
 518   0.0000       1.996677        54.3323 
 519   0.0000       2.001102        54.4528 
 520   0.0000       2.012484        54.7625 
 521   0.0000       2.027630        55.1746 
 522   0.0000       2.032218        55.2995 
 523   0.0000       2.033895        55.3451 
 524   0.0000       2.044759        55.6407 
 525   0.0000       2.045258        55.6543 
 526   0.0000       2.055296        55.9274 
 527   0.0000       2.070024        56.3282 
 528   0.0000       2.078464        56.5579 
 529   0.0000       2.080822        56.6220 
 530   0.0000       2.089330        56.8536 
 531   0.0000       2.103226        57.2317 
 532   0.0000       2.122259        57.7496 
 533   0.0000       2.127797        57.9003 
 534   0.0000       2.146850        58.4188 
 535   0.0000       2.152309        58.5673 
 536   0.0000       2.156330        58.6767 
 537   0.0000       2.167395        58.9778 
 538   0.0000       2.178431        59.2781 
 539   0.0000       2.184289        59.4375 
 540   0.0000       2.193014        59.6749 
 541   0.0000       2.195285        59.7367 
 542   0.0000       2.201088        59.8946 
 543   0.0000       2.203507        59.9605 
 544   0.0000       2.204019        59.9744 
 545   0.0000       2.205372        60.0112 
 546   0.0000       2.208676        60.1011 
 547   0.0000       2.218247        60.3616 
 548   0.0000       2.223355        60.5006 
 549   0.0000       2.229820        60.6765 
 550   0.0000       2.235555        60.8326 
 551   0.0000       2.243415        61.0464 
 552   0.0000       2.255173        61.3664 
 553   0.0000       2.275319        61.9146 
 554   0.0000       2.282149        62.1004 
 555   0.0000       2.298281        62.5394 
 556   0.0000       2.300862        62.6096 
 557   0.0000       2.301869        62.6370 
 558   0.0000       2.319079        63.1054 
 559   0.0000       2.336513        63.5797 
 560   0.0000       2.351928        63.9992 
 561   0.0000       2.364218        64.3336 
 562   0.0000       2.364998        64.3549 
 563   0.0000       2.389234        65.0144 
 564   0.0000       2.399345        65.2895 
 565   0.0000       2.407341        65.5071 
 566   0.0000       2.407698        65.5168 
 567   0.0000       2.408946        65.5508 
 568   0.0000       2.411275        65.6141 
 569   0.0000       2.414847        65.7113 
 570   0.0000       2.419596        65.8406 
 571   0.0000       2.425180        65.9925 
 572   0.0000       2.432982        66.2048 
 573   0.0000       2.434725        66.2522 
 574   0.0000       2.448174        66.6182 
 575   0.0000       2.454527        66.7911 
 576   0.0000       2.468320        67.1664 
 577   0.0000       2.499014        68.0016 
 578   0.0000       2.508048        68.2474 
 579   0.0000       2.511365        68.3377 
 580   0.0000       2.516700        68.4829 
 581   0.0000       2.528994        68.8174 
 582   0.0000       2.543179        69.2034 
 583   0.0000       2.553831        69.4933 
 584   0.0000       2.554416        69.5092 
 585   0.0000       2.575450        70.0816 
 586   0.0000       2.583848        70.3101 
 587   0.0000       2.607598        70.9564 
 588   0.0000       2.613703        71.1225 
 589   0.0000       2.619303        71.2748 
 590   0.0000       2.629804        71.5606 
 591   0.0000       2.639140        71.8146 
 592   0.0000       2.648221        72.0618 
 593   0.0000       2.655029        72.2470 
 594   0.0000       2.667330        72.5817 
 595   0.0000       2.677417        72.8562 
 596   0.0000       2.687814        73.1391 
 597   0.0000       2.709755        73.7362 
 598   0.0000       2.709858        73.7390 
 599   0.0000       2.719740        74.0079 
 600   0.0000       2.760593        75.1196 
 601   0.0000       2.780621        75.6645 
 602   0.0000       2.782907        75.7268 
 603   0.0000       2.785500        75.7973 
 604   0.0000       2.799134        76.1683 
 605   0.0000       2.822645        76.8081 
 606   0.0000       2.835332        77.1533 
 607   0.0000       2.838074        77.2279 
 608   0.0000       2.870038        78.0977 
 609   0.0000       2.899523        78.9000 
 610   0.0000       2.912614        79.2563 
 611   0.0000       2.950499        80.2872 
 612   0.0000       3.063906        83.3731 
 613   0.0000       3.077554        83.7445 
 614   0.0000       3.097541        84.2884 
 615   0.0000       3.128903        85.1418 
 616   0.0000       3.184502        86.6547 
 617   0.0000       3.185396        86.6790 
 618   0.0000       3.389438        92.2313 
 619   0.0000       3.539666        96.3192 
 620   0.0000       3.541103        96.3583 

                 SPIN DOWN ORBITALS
  NO   OCC          E(Eh)            E(eV) 
   0   1.0000     -10.223615      -278.1987 
   1   1.0000     -10.222725      -278.1745 
   2   1.0000     -10.222377      -278.1650 
   3   1.0000     -10.220631      -278.1175 
   4   1.0000     -10.217147      -278.0227 
   5   1.0000     -10.214332      -277.9461 
   6   1.0000     -10.204286      -277.6727 
   7   1.0000     -10.204217      -277.6709 
   8   1.0000     -10.204189      -277.6701 
   9   1.0000     -10.203759      -277.6584 
  10   1.0000     -10.203635      -277.6550 
  11   1.0000     -10.202766      -277.6314 
  12   1.0000     -10.202690      -277.6293 
  13   1.0000     -10.202509      -277.6244 
  14   1.0000     -10.202016      -277.6110 
  15   1.0000     -10.201732      -277.6032 
  16   1.0000     -10.195564      -277.4354 
  17   1.0000     -10.195127      -277.4235 
  18   1.0000     -10.195067      -277.4219 
  19   1.0000     -10.194751      -277.4133 
  20   1.0000     -10.194334      -277.4019 
  21   1.0000     -10.193987      -277.3925 
  22   1.0000     -10.193071      -277.3676 
  23   1.0000     -10.191932      -277.3366 
  24   1.0000     -10.191347      -277.3206 
  25   1.0000     -10.190958      -277.3101 
  26   1.0000     -10.190478      -277.2970 
  27   1.0000     -10.189402      -277.2677 
  28   1.0000     -10.186805      -277.1971 
  29   1.0000     -10.186485      -277.1884 
  30   1.0000     -10.184666      -277.1388 
  31   1.0000     -10.184368      -277.1307 
  32   1.0000     -10.179380      -276.9950 
  33   1.0000     -10.177784      -276.9516 
  34   1.0000      -0.876367       -23.8472 
  35   1.0000      -0.874535       -23.7973 
  36   1.0000      -0.872647       -23.7459 
  37   1.0000      -0.819869       -22.3098 
  38   1.0000      -0.807831       -21.9822 
  39   1.0000      -0.805386       -21.9157 
  40   1.0000      -0.797134       -21.6911 
  41   1.0000      -0.792098       -21.5541 
  42   1.0000      -0.769117       -20.9287 
  43   1.0000      -0.759852       -20.6766 
  44   1.0000      -0.758243       -20.6328 
  45   1.0000      -0.758047       -20.6275 
  46   1.0000      -0.745709       -20.2918 
  47   1.0000      -0.733873       -19.9697 
  48   1.0000      -0.724834       -19.7237 
  49   1.0000      -0.711940       -19.3729 
  50   1.0000      -0.698361       -19.0034 
  51   1.0000      -0.659235       -17.9387 
  52   1.0000      -0.655735       -17.8435 
  53   1.0000      -0.642041       -17.4708 
  54   1.0000      -0.622065       -16.9273 
  55   1.0000      -0.619349       -16.8533 
  56   1.0000      -0.617529       -16.8038 
  57   1.0000      -0.613553       -16.6956 
  58   1.0000      -0.594090       -16.1660 
  59   1.0000      -0.581433       -15.8216 
  60   1.0000      -0.562092       -15.2953 
  61   1.0000      -0.553340       -15.0571 
  62   1.0000      -0.551721       -15.0131 
  63   1.0000      -0.542165       -14.7530 
  64   1.0000      -0.533409       -14.5148 
  65   1.0000      -0.507672       -13.8145 
  66   1.0000      -0.506293       -13.7769 
  67   1.0000      -0.496627       -13.5139 
  68   1.0000      -0.491660       -13.3787 
  69   1.0000      -0.480968       -13.0878 
  70   1.0000      -0.473245       -12.8777 
  71   1.0000      -0.472797       -12.8655 
  72   1.0000      -0.471303       -12.8248 
  73   1.0000      -0.461729       -12.5643 
  74   1.0000      -0.445632       -12.1263 
  75   1.0000      -0.443859       -12.0780 
  76   1.0000      -0.434289       -11.8176 
  77   1.0000      -0.431411       -11.7393 
  78   1.0000      -0.431261       -11.7352 
  79   1.0000      -0.429698       -11.6927 
[...]
Variables per vector in CP-SCF ... 117548
Number of vectors sought       ... 3
     CP-SCF ITERATION   0: 
     CP-SCF ITERATION   1:      0.000003681735
     CP-SCF ITERATION   2:      0.000000016547

Forming final perturbed densities           ... done
Transforming perturbed density to AO basis  ... done

Using FinalGrid as integration grid:         ... finished setting up the grid
Time for grid setup =    0.199 sec

 Raw HFC matrix (all values in MHz): 
 ------------------------------
                -0.1495               0.1027               0.0034
                 0.1028              -0.2932              -0.0012
                 0.0034              -0.0012              -0.2448

 A(FC)          -0.2292              -0.2292              -0.2292
 A(SD)           0.1333              -0.0156              -0.1177
 A(ORB+DIA)      0.0000               0.0000               0.0000    A(PC) =   0.0000
 A(ORB)          0.0000               0.0000               0.0000    A(PC) =   0.0000
 A(DIA)         -0.0000               0.0000               0.0000    A(PC) =  -0.0000
             ----------           ----------           ----------
 A(Tot)         -0.0959              -0.2448              -0.3468    A(iso)=   -0.2292
 Orientation: 
  X           0.8868101            0.0026255           -0.4621266
  Y           0.4618403            0.0306092            0.8864348
  Z           0.0164727           -0.9995280            0.0259320

Notes:  (1) The A matrix conforms to the "SAI" spin Hamiltonian convention.
        (2) Tensor is right-handed.

 -----------------------------------------------------------
 Nucleus  54H : A:ISTP=    1 I=  0.5 P=533.5514 MHz/au**3
                Q:ISTP=    2 I=  1.0 Q=  0.0029 barn     
 -----------------------------------------------------------
 Solving for nuclear perturbation:
Forming RHS of the CP-SCF equations         ... 
Using LibInt in CPSCF-CP

Calculating nucleus orbit integrals         ... done

------------------------------------------------------------------------------
                           ORCA CP-SCF CALCULATION
------------------------------------------------------------------------------

Input orbitals are from        ... cc-pVDZ.gbw
Input Perturbation             ... cc-pVDZ.pin.tmp
Wavefunction output            ... cc-pVDZ.pout.tmp
Perturbation mode              ... Imaginary perturbation
Solver                         ... POPLE
Max. number of iterations      ... 64
Convergence tolerance          ... 1.000e-06
Integral handling              ... Direct
Number of perturbations        ... 3
Number of operators            ... 2
Orbital ranges used for CP-SCF:
 Operator 0:  Orbitals   0...116  to 117...620
 Operator 1:  Orbitals   0...115  to 116...620
DFT calculation                         ... on
Variables per vector in CP-SCF ... 117548
Number of vectors sought       ... 3
     CP-SCF ITERATION   0: 
     CP-SCF ITERATION   1:      0.000002211433
     CP-SCF ITERATION   2:      0.000000781201

Forming final perturbed densities           ... done
Transforming perturbed density to AO basis  ... done

Using FinalGrid as integration grid:         ... finished setting up the grid
Time for grid setup =    0.202 sec

 Raw HFC matrix (all values in MHz): 
 ------------------------------
                -0.3800               0.0848              -0.0002
                 0.0848              -1.8403              -0.0129
                -0.0002              -0.0129              -1.2849

 A(FC)          -1.1686              -1.1686              -1.1686
 A(SD)           0.7934              -0.1161              -0.6773
 A(ORB+DIA)     -0.0000               0.0001               0.0004    A(PC) =   0.0002
 A(ORB)          0.0001               0.0000               0.0004    A(PC) =   0.0002
 A(DIA)         -0.0001               0.0001               0.0000    A(PC) =   0.0000
             ----------           ----------           ----------
 A(Tot)         -0.3751              -1.2846              -1.8455    A(iso)=   -1.1684
 Orientation: 
  X           0.9983292           -0.0023275           -0.0577362
  Y           0.0577744            0.0228296            0.9980686
  Z          -0.0010049           -0.9997367            0.0229259

Notes:  (1) The A matrix conforms to the "SAI" spin Hamiltonian convention.
        (2) Tensor is right-handed.

 -----------------------------------------------------------
 Nucleus  55H : A:ISTP=    1 I=  0.5 P=533.5514 MHz/au**3
                Q:ISTP=    2 I=  1.0 Q=  0.0029 barn     
 -----------------------------------------------------------
 Solving for nuclear perturbation:
Forming RHS of the CP-SCF equations         ... 
Using LibInt in CPSCF-CP

Calculating nucleus orbit integrals         ... done

------------------------------------------------------------------------------
                           ORCA CP-SCF CALCULATION
------------------------------------------------------------------------------

Input orbitals are from        ... cc-pVDZ.gbw
Input Perturbation             ... cc-pVDZ.pin.tmp
Wavefunction output            ... cc-pVDZ.pout.tmp
Perturbation mode              ... Imaginary perturbation
Solver                         ... POPLE
Max. number of iterations      ... 64
Convergence tolerance          ... 1.000e-06
Integral handling              ... Direct
Number of perturbations        ... 3
Number of operators            ... 2
Orbital ranges used for CP-SCF:
 Operator 0:  Orbitals   0...116  to 117...620
 Operator 1:  Orbitals   0...115  to 116...620
DFT calculation                         ... on
Variables per vector in CP-SCF ... 117548
Number of vectors sought       ... 3
     CP-SCF ITERATION   0: 
     CP-SCF ITERATION   1:      0.000003748755
     CP-SCF ITERATION   2:      0.000000016983

Forming final perturbed densities           ... done
Transforming perturbed density to AO basis  ... done

Using FinalGrid as integration grid:         ... finished setting up the grid
Time for grid setup =    0.232 sec

 Raw HFC matrix (all values in MHz): 
 ------------------------------
                 1.2933              -0.1005              -0.0051
                -0.1006               0.6326               0.0034
                -0.0051               0.0034               0.4440

 A(FC)           0.7901               0.7901               0.7901
 A(SD)          -0.3461              -0.1724               0.5185
 A(ORB+DIA)     -0.0001               0.0001              -0.0003    A(PC) =  -0.0001
 A(ORB)         -0.0000               0.0001              -0.0003    A(PC) =  -0.0001
 A(DIA)         -0.0000               0.0000              -0.0001    A(PC) =  -0.0000
             ----------           ----------           ----------
 A(Tot)          0.4440               0.6177               1.3083    A(iso)=    0.7900
 Orientation: 
  X           0.0041305            0.1471755           -0.9891018
  Y          -0.0158832            0.9889951            0.1470932
  Z           0.9998653            0.0151025            0.0064226

Notes:  (1) The A matrix conforms to the "SAI" spin Hamiltonian convention.
        (2) Tensor is right-handed.

 -----------------------------------------------------------
 Nucleus  56H : A:ISTP=    1 I=  0.5 P=533.5514 MHz/au**3
                Q:ISTP=    2 I=  1.0 Q=  0.0029 barn     
 -----------------------------------------------------------
 Solving for nuclear perturbation:
Forming RHS of the CP-SCF equations         ... 
Using LibInt in CPSCF-CP

Calculating nucleus orbit integrals         ... done

------------------------------------------------------------------------------
                           ORCA CP-SCF CALCULATION
------------------------------------------------------------------------------

Input orbitals are from        ... cc-pVDZ.gbw
Input Perturbation             ... cc-pVDZ.pin.tmp
Wavefunction output            ... cc-pVDZ.pout.tmp
Perturbation mode              ... Imaginary perturbation
Solver                         ... POPLE
Max. number of iterations      ... 64
Convergence tolerance          ... 1.000e-06
Integral handling              ... Direct
Number of perturbations        ... 3
Number of operators            ... 2
Orbital ranges used for CP-SCF:
 Operator 0:  Orbitals   0...116  to 117...620
 Operator 1:  Orbitals   0...115  to 116...620
DFT calculation                         ... on
Variables per vector in CP-SCF ... 117548
Number of vectors sought       ... 3
     CP-SCF ITERATION   0: 
     CP-SCF ITERATION   1:      0.000004947905
     CP-SCF ITERATION   2:      0.000000022693

Forming final perturbed densities           ... done
Transforming perturbed density to AO basis  ... done

Using FinalGrid as integration grid:         ... finished setting up the grid
Time for grid setup =    0.134 sec

 Raw HFC matrix (all values in MHz): 
 ------------------------------
                -0.9870               0.5717              -0.0063
                 0.5713              -1.5109               0.0102
                -0.0063               0.0102              -2.5006

 A(FC)          -1.6665              -1.6665              -1.6665
 A(SD)           1.0458              -0.2113              -0.8345
 A(ORB+DIA)      0.0005               0.0005               0.0002    A(PC) =   0.0004
 A(ORB)          0.0006               0.0006               0.0000    A(PC) =   0.0004
 A(DIA)         -0.0001              -0.0001               0.0002    A(PC) =  -0.0000
             ----------           ----------           ----------
 A(Tot)         -0.6203              -1.8774              -2.5009    A(iso)=   -1.6662
 Orientation: 
  X           0.8416049           -0.5399963            0.0102600
  Y           0.5400937            0.8414484           -0.0162287
  Z           0.0001302            0.0191996            0.9998157

Notes:  (1) The A matrix conforms to the "SAI" spin Hamiltonian convention.
        (2) Tensor is right-handed.

 -----------------------------------------------------------
 Nucleus  57H : A:ISTP=    1 I=  0.5 P=533.5514 MHz/au**3
                Q:ISTP=    2 I=  1.0 Q=  0.0029 barn     
 -----------------------------------------------------------
 Solving for nuclear perturbation:
Forming RHS of the CP-SCF equations         ... 
Using LibInt in CPSCF-CP

Calculating nucleus orbit integrals         ... done

------------------------------------------------------------------------------
                           ORCA CP-SCF CALCULATION
------------------------------------------------------------------------------

Input orbitals are from        ... cc-pVDZ.gbw
Input Perturbation             ... cc-pVDZ.pin.tmp
Wavefunction output            ... cc-pVDZ.pout.tmp
Perturbation mode              ... Imaginary perturbation
Solver                         ... POPLE
Max. number of iterations      ... 64
Convergence tolerance          ... 1.000e-06
Integral handling              ... Direct
Number of perturbations        ... 3
Number of operators            ... 2
Orbital ranges used for CP-SCF:
 Operator 0:  Orbitals   0...116  to 117...620
 Operator 1:  Orbitals   0...115  to 116...620
DFT calculation                         ... on
Variables per vector in CP-SCF ... 117548
Number of vectors sought       ... 3
     CP-SCF ITERATION   0: 
     CP-SCF ITERATION   1:      0.000004425938
     CP-SCF ITERATION   2:      0.000000019328

Forming final perturbed densities           ... done
Transforming perturbed density to AO basis  ... done

Using FinalGrid as integration grid:         ... finished setting up the grid
Time for grid setup =    0.118 sec

 Raw HFC matrix (all values in MHz): 
 ------------------------------
                -1.8438              -0.2188              -0.0071
                -0.2184              -0.9657               0.0162
                -0.0071               0.0162              -2.1882

 A(FC)          -1.6661              -1.6661              -1.6661
 A(SD)           0.7522              -0.2298              -0.5224
 A(ORB+DIA)     -0.0001               0.0007               0.0001    A(PC) =   0.0002
 A(ORB)          0.0000               0.0008               0.0000    A(PC) =   0.0003
 A(DIA)         -0.0001              -0.0001               0.0001    A(PC) =  -0.0001
             ----------           ----------           ----------
 A(Tot)         -0.9141              -1.8952              -2.1885    A(iso)=   -1.6659
 Orientation: 
  X          -0.2291661            0.9732913           -0.0136705
  Y           0.9732921            0.2293175            0.0107667
  Z           0.0136140           -0.0108380           -0.9998486

Notes:  (1) The A matrix conforms to the "SAI" spin Hamiltonian convention.
        (2) Tensor is right-handed.

 -----------------------------------------------------------
 Nucleus  58H : A:ISTP=    1 I=  0.5 P=533.5514 MHz/au**3
                Q:ISTP=    2 I=  1.0 Q=  0.0029 barn     
 -----------------------------------------------------------
 Solving for nuclear perturbation:
Forming RHS of the CP-SCF equations         ... 
Using LibInt in CPSCF-CP

Calculating nucleus orbit integrals         ... done

------------------------------------------------------------------------------
                           ORCA CP-SCF CALCULATION
------------------------------------------------------------------------------

Input orbitals are from        ... cc-pVDZ.gbw
Input Perturbation             ... cc-pVDZ.pin.tmp
Wavefunction output            ... cc-pVDZ.pout.tmp
Perturbation mode              ... Imaginary perturbation
Solver                         ... POPLE
Max. number of iterations      ... 64
Convergence tolerance          ... 1.000e-06
Integral handling              ... Direct
Number of perturbations        ... 3
Number of operators            ... 2
Orbital ranges used for CP-SCF:
 Operator 0:  Orbitals   0...116  to 117...620
 Operator 1:  Orbitals   0...115  to 116...620
DFT calculation                         ... on
Variables per vector in CP-SCF ... 117548
Number of vectors sought       ... 3
     CP-SCF ITERATION   0: 
     CP-SCF ITERATION   1:      0.000003868491
     CP-SCF ITERATION   2:      0.000000015917

Forming final perturbed densities           ... done
Transforming perturbed density to AO basis  ... done

Using FinalGrid as integration grid:         ... finished setting up the grid
Time for grid setup =    0.219 sec

 Raw HFC matrix (all values in MHz): 
 ------------------------------
                 1.4532               0.2981               0.0021
                 0.2981               0.5284               0.0024
                 0.0021               0.0024               0.3860

 A(FC)           0.7893               0.7893               0.7893
 A(SD)          -0.4033              -0.3487               0.7520
 A(ORB+DIA)     -0.0000               0.0001              -0.0003    A(PC) =  -0.0001
 A(ORB)         -0.0000               0.0001              -0.0002    A(PC) =  -0.0001
 A(DIA)         -0.0000               0.0000              -0.0000    A(PC) =  -0.0000
             ----------           ----------           ----------
 A(Tot)          0.3860               0.4407               1.5410    A(iso)=    0.7892
 Orientation: 
  X           0.0066632           -0.2823497           -0.9592884
  Y          -0.0309462            0.9587920           -0.2824185
  Z           0.9994988            0.0315682           -0.0023490

Notes:  (1) The A matrix conforms to the "SAI" spin Hamiltonian convention.
        (2) Tensor is right-handed.


------------------------------------------------------------------------------- 
----------------------------------------------------------------------------
                           ORCA EULER ANGLE PROGRAM
----------------------------------------------------------------------------

Only g-tensor available        -->  using g-tensor as reference tensor

Reference tensor               ...  g

g-tensor ordering              ...  |g_min> --> |gx>
                                    |g_mid> --> |gy>
                                    |g_max> --> |gz>

A- and EFG-tensor ordering     ...  the axes |Ax>, |Qx>, |Ay>, etc. are assigned
                                    such that the Euler rotation is minimal. You
                                    can find the respective eigenvalues as Ax,
                                    EFGx, Ay, etc. in the tables below.
                                    The relation of |Ax>, |Ay>,  etc. to Amin, Amid, etc.
                                    (as printed in the ORCA EPR/NMR CALCULATION Output)
                                    is obtained in the detailed printout.

Euler rotation around          ...  z - y - z
   First rotation              -->  by alpha around z
   Second rotation             -->  by beta around y'
   Third rotation              -->  by gamma around z''
   Positive / Negative angle   -->  clockwise / counterclockwise rotation

Plot EFG-tensors                    (-)
Plot HFC-tensors                    (-)
Detailed Printout                   (-)

-------------------------------------------------------------------------
          Euler rotation of hyperfine tensor to g-tensor
-------------------------------------------------------------------------

-------------------------------------------------------------------
 Atom  |   Alpha    Beta    Gamma   |   Ax       Ay       Az 
       |          [degrees]         |           [MHz]         
-------------------------------------------------------------------
  9H       89.9     23.0    -89.9     -15.65    -6.77   -19.08
 10H       90.0     26.1    -90.0       3.77     4.48     9.02
 12H      -90.1     26.9     90.1     -45.54   -17.16   -70.22
 14H       77.1     22.4    -57.1      56.15    65.58    57.45
 15H      103.2     22.5   -123.2      56.17    65.60    57.46
 17H       11.5     15.2     20.2      -3.12    -2.96     3.13
 18H      168.2     15.3    160.1      -3.13    -2.96     3.13
 20H     -118.1     36.7     73.3      -0.09     0.03     2.22
 21H      -62.2     36.8    106.9      -0.09     0.03     2.22
 23H       91.8     24.6   -135.8      19.59    20.14    23.18
 24H       88.3     24.5    -44.1      19.67    20.22    23.26
 26H      -79.1     41.7     71.4      -0.95    -0.83     0.96
 27H     -100.7     41.7    108.8      -0.95    -0.83     0.96
 29H      -96.8     12.7    133.3      -0.10    -0.14     0.79
 30H      -83.7     12.6     47.3      -0.10    -0.14     0.79
 32H     -102.0     28.2    106.0      -0.12    -0.10     0.37
 33H      -78.1     28.2     74.4      -0.12    -0.10     0.37
 35H      -90.2     19.3     90.2      -0.78    -0.80     0.75
 36H      -89.6     17.7     90.2      -0.13    -0.13     0.24
 43H      -87.6     25.7     87.3       0.33     0.18     0.53
 44H       87.7     22.6    -88.5      -0.23    -0.39    -0.07
 45H      -87.7     15.6     87.1       0.40     1.26     0.03
 46H       88.8     42.0    -89.4       0.44     0.05     1.20
 47H        4.8      1.4     -5.7      -0.24    -0.10    -0.35
 54H      -87.3     24.1     87.1      -1.28    -0.38    -1.85
 55H      -88.7     35.9     88.7       0.44     1.31     0.62
 56H       79.7      5.4    -79.6      -2.50    -0.62    -1.88
 57H      -86.8     14.2     87.4      -2.19    -1.90    -0.91
 58H      -81.6     11.1     81.3       0.39     1.54     0.44
-------------------------------------------------------------------


Timings for individual modules:

Sum of individual times         ...     5720.473 sec (=  95.341 min)
GTO integral calculation        ...        3.972 sec (=   0.066 min)   0.1 %
Spin-Orbit-Coupling Matrices    ...       49.055 sec (=   0.818 min)   0.9 %
SCF iterations                  ...      186.680 sec (=   3.111 min)   3.3 %
EPR/NMR calculation             ...     5480.767 sec (=  91.346 min)  95.8 %
                             ****ORCA TERMINATED NORMALLY****
TOTAL RUN TIME: 0 days 1 hours 35 minutes 22 seconds 568 msec
