
                                 *****************
                                 * O   R   C   A *
                                 *****************

                                            #,                                       
                                            ###                                      
                                            ####                                     
                                            #####                                    
                                            ######                                   
                                           ########,                                 
                                     ,,################,,,,,                         
                               ,,#################################,,                 
                          ,,##########################################,,             
                       ,#########################################, ''#####,          
                    ,#############################################,,   '####,        
                  ,##################################################,,,,####,       
                ,###########''''           ''''###############################       
              ,#####''   ,,,,##########,,,,          '''####'''          '####       
            ,##' ,,,,###########################,,,                        '##       
           ' ,,###''''                  '''############,,,                           
         ,,##''                                '''############,,,,        ,,,,,,###''
      ,#''                                            '''#######################'''  
     '                                                          ''''####''''         
             ,#######,   #######,   ,#######,      ##                                
            ,#'     '#,  ##    ##  ,#'     '#,    #''#        ######   ,####,        
            ##       ##  ##   ,#'  ##            #'  '#       #        #'  '#        
            ##       ##  #######   ##           ,######,      #####,   #    #        
            '#,     ,#'  ##    ##  '#,     ,#' ,#      #,         ##   #,  ,#        
             '#######'   ##     ##  '#######'  #'      '#     #####' # '####'        



                  #######################################################
                  #                        -***-                        #
                  #          Department of theory and spectroscopy      #
                  #    Directorship and core code : Frank Neese         #
                  #        Max Planck Institute fuer Kohlenforschung    #
                  #                Kaiser Wilhelm Platz 1               #
                  #                 D-45470 Muelheim/Ruhr               #
                  #                      Germany                        #
                  #                                                     #
                  #                  All rights reserved                #
                  #                        -***-                        #
                  #######################################################


                         Program Version 5.0.4 -  RELEASE  -


 With contributions from (in alphabetic order):
   Daniel Aravena         : Magnetic Suceptibility
   Michael Atanasov       : Ab Initio Ligand Field Theory (pilot matlab implementation)
   Alexander A. Auer      : GIAO ZORA, VPT2 properties, NMR spectrum
   Ute Becker             : Parallelization
   Giovanni Bistoni       : ED, misc. LED, open-shell LED, HFLD
   Martin Brehm           : Molecular dynamics
   Dmytro Bykov           : SCF Hessian
   Vijay G. Chilkuri      : MRCI spin determinant printing, contributions to CSF-ICE
   Dipayan Datta          : RHF DLPNO-CCSD density
   Achintya Kumar Dutta   : EOM-CC, STEOM-CC
   Dmitry Ganyushin       : Spin-Orbit,Spin-Spin,Magnetic field MRCI
   Miquel Garcia          : C-PCM and meta-GGA Hessian, CC/C-PCM, Gaussian charge scheme
   Yang Guo               : DLPNO-NEVPT2, F12-NEVPT2, CIM, IAO-localization
   Andreas Hansen         : Spin unrestricted coupled pair/coupled cluster methods
   Benjamin Helmich-Paris : MC-RPA, TRAH-SCF, COSX integrals
   Lee Huntington         : MR-EOM, pCC
   Robert Izsak           : Overlap fitted RIJCOSX, COSX-SCS-MP3, EOM
   Marcus Kettner         : VPT2
   Christian Kollmar      : KDIIS, OOCD, Brueckner-CCSD(T), CCSD density, CASPT2, CASPT2-K
   Simone Kossmann        : Meta GGA functionals, TD-DFT gradient, OOMP2, MP2 Hessian
   Martin Krupicka        : Initial AUTO-CI
   Lucas Lang             : DCDCAS
   Marvin Lechner         : AUTO-CI (C++ implementation), FIC-MRCC
   Dagmar Lenk            : GEPOL surface, SMD
   Dimitrios Liakos       : Extrapolation schemes; Compound Job, initial MDCI parallelization
   Dimitrios Manganas     : Further ROCIS development; embedding schemes
   Dimitrios Pantazis     : SARC Basis sets
   Anastasios Papadopoulos: AUTO-CI, single reference methods and gradients
   Taras Petrenko         : DFT Hessian,TD-DFT gradient, ASA, ECA, R-Raman, ABS, FL, XAS/XES, NRVS
   Peter Pinski           : DLPNO-MP2, DLPNO-MP2 Gradient
   Christoph Reimann      : Effective Core Potentials
   Marius Retegan         : Local ZFS, SOC
   Christoph Riplinger    : Optimizer, TS searches, QM/MM, DLPNO-CCSD(T), (RO)-DLPNO pert. Triples
   Tobias Risthaus        : Range-separated hybrids, TD-DFT gradient, RPA, STAB
   Michael Roemelt        : Original ROCIS implementation
   Masaaki Saitow         : Open-shell DLPNO-CCSD energy and density
   Barbara Sandhoefer     : DKH picture change effects
   Avijit Sen             : IP-ROCIS
   Kantharuban Sivalingam : CASSCF convergence, NEVPT2, FIC-MRCI
   Bernardo de Souza      : ESD, SOC TD-DFT
   Georgi Stoychev        : AutoAux, RI-MP2 NMR, DLPNO-MP2 response
   Willem Van den Heuvel  : Paramagnetic NMR
   Boris Wezisla          : Elementary symmetry handling
   Frank Wennmohs         : Technical directorship


 We gratefully acknowledge several colleagues who have allowed us to
 interface, adapt or use parts of their codes:
   Stefan Grimme, W. Hujo, H. Kruse, P. Pracht,  : VdW corrections, initial TS optimization,
                  C. Bannwarth, S. Ehlert          DFT functionals, gCP, sTDA/sTD-DF
   Ed Valeev, F. Pavosevic, A. Kumar             : LibInt (2-el integral package), F12 methods
   Garnet Chan, S. Sharma, J. Yang, R. Olivares  : DMRG
   Ulf Ekstrom                                   : XCFun DFT Library
   Mihaly Kallay                                 : mrcc  (arbitrary order and MRCC methods)
   Jiri Pittner, Ondrej Demel                    : Mk-CCSD
   Frank Weinhold                                : gennbo (NPA and NBO analysis)
   Christopher J. Cramer and Donald G. Truhlar   : smd solvation model
   Lars Goerigk                                  : TD-DFT with DH, B97 family of functionals
   V. Asgeirsson, H. Jonsson                     : NEB implementation
   FAccTs GmbH                                   : IRC, NEB, NEB-TS, DLPNO-Multilevel, CI-OPT
                                                   MM, QMMM, 2- and 3-layer-ONIOM, Crystal-QMMM,
                                                   LR-CPCM, SF, NACMEs, symmetry and pop. for TD-DFT,
                                                   nearIR, NL-DFT gradient (VV10), updates on ESD,
                                                   ML-optimized integration grids
   S Lehtola, MJT Oliveira, MAL Marques          : LibXC Library
   Liviu Ungur et al                             : ANISO software


 Your calculation uses the libint2 library for the computation of 2-el integrals
 For citations please refer to: http://libint.valeyev.net

 Your ORCA version has been built with support for libXC version: 5.1.0
 For citations please refer to: https://tddft.org/programs/libxc/

 This ORCA versions uses:
   CBLAS   interface :  Fast vector & matrix operations
   LAPACKE interface :  Fast linear algebra routines
   SCALAPACK package :  Parallel linear algebra routines
   Shared memory     :  Shared parallel matrices
   BLAS/LAPACK       :  OpenBLAS 0.3.15  USE64BITINT DYNAMIC_ARCH NO_AFFINITY SkylakeX SINGLE_THREADED
        Core in use  :  SkylakeX
   Copyright (c) 2011-2014, The OpenBLAS Project




***************************************
The coordinates will be read from file: opt.xyz
***************************************


================================================================================

----- Orbital basis set information -----
Your calculation utilizes the basis: cc-pVDZ 
       H, B-Ne : Obtained from the ccRepo (grant-hill.group.shef.ac.uk/ccrepo) Feb. 2017
                 T. H. Dunning, Jr., J. Chem. Phys. 90, 1007 (1989)
            He : Obtained from the ccRepo (grant-hill.group.shef.ac.uk/ccrepo) Feb. 2017
                 D. E. Woon, T. H. Dunning, Jr., J. Chem. Phys. 100, 2975 (1994)
  Li-Be, Na-Mg : Obtained from the ccRepo (grant-hill.group.shef.ac.uk/ccrepo) Feb. 2017
                 B. P. Prascher, D. E. Woon, K. A. Peterson, T. H. Dunning, Jr., A. K. Wilson, Theor. Chem. Acc. 128, 69 (2011)
         Al-Ar : Obtained from the ccRepo (grant-hill.group.shef.ac.uk/ccrepo) Feb. 2017
                 D. E. Woon, T. H. Dunning, Jr., J. Chem. Phys. 98, 1358 (1993)
            Ca : Obtained from the Peterson Research Group Website (tyr0.chem.wsu.edu/~kipeters) Feb. 2017
                 J. Koput, K. A. Peterson, J. Phys. Chem. 106, 9595 (2002)
         Sc-Zn : Obtained from the ccRepo (grant-hill.group.shef.ac.uk/ccrepo) Feb. 2017
                 N. B. Balabanov, K. A. Peterson, J. Chem. Phys. 123, 064107 (2005)
                 N. B. Balabanov, K. A. Peterson, J. Chem. Phys. 125, 074110 (2006)
         Ga-Kr : Obtained from the ccRepo (grant-hill.group.shef.ac.uk/ccrepo) Feb. 2017
                 A. K. Wilson, D. E. Woon, K. A. Peterson, T. H. Dunning, Jr., J. Chem. Phys. 110, 7667 (1999)

----- AuxJ basis set information -----
Your calculation utilizes the AutoAux generation procedure.
  G. L. Stoychev, A. A. Auer, F. Neese, J. Chem. Theory Comput. 13, 554 (2017)

----- AuxC basis set information -----
Your calculation utilizes the AutoAux generation procedure.
  G. L. Stoychev, A. A. Auer, F. Neese, J. Chem. Theory Comput. 13, 554 (2017)

----- AuxJK basis set information -----
Your calculation utilizes the AutoAux generation procedure.
  G. L. Stoychev, A. A. Auer, F. Neese, J. Chem. Theory Comput. 13, 554 (2017)

================================================================================
                                        WARNINGS
                       Please study these warnings very carefully!
================================================================================

WARNING: Old DensityContainer found on disk!
         Will remove this file - 
         If you want to keep old densities, please start your calculation with a different basename. 


WARNING: your system is open-shell and RHF/RKS was chosen
  ===> : WILL SWITCH to UHF/UKS


INFO   : the flag for use of the SHARK integral package has been found!

================================================================================
                                       INPUT FILE
================================================================================
NAME = cc-pVDZ.inp
|  1> ! B3LYP cc-pVDZ AUTOAUX
|  2> %pal nprocs 16 end
|  3> *XYZFile 0 2 opt.xyz
|  4> %EPRNMR
|  5>         GTENSOR   TRUE
|  6>         NUCLEI    = ALL H {SHIFT, AISO, ADIP, AORB}
|  7>         ORI       CenterOfElCharge
|  8> END
|  9> 
| 10>                          ****END OF INPUT****
================================================================================

                       ****************************
                       * Single Point Calculation *
                       ****************************

---------------------------------
CARTESIAN COORDINATES (ANGSTROEM)
---------------------------------
  C     12.367468   -0.026690   -0.004521
  C     11.143536   -0.068421   -0.003249
  C      5.470105   -0.000456   -0.000953
  C      9.724522   -0.088645   -0.002867
  C      8.990628   -1.335024   -0.006403
  C      7.570759   -1.236349   -0.005487
  C      6.897637   -0.011889   -0.001450
  C      7.634424    1.217416    0.002056
  C      9.026112    1.135702    0.001259
  H      6.974675   -2.149130   -0.008114
  H      9.619812    2.049654    0.003881
  C      9.646865   -2.583921   -0.010645
  H     10.739981   -2.573932   -0.011197
  C      8.960510   -3.917165   -0.014594
  H      8.287887   -4.000132    0.864048
  H      8.286468   -3.994223   -0.892681
  C      9.932017   -5.104805   -0.019413
  H     10.591664   -5.026394   -0.902868
  H     10.593459   -5.032110    0.863189
  C      9.223189   -6.460465   -0.023106
  H      8.579052   -6.573687   -0.912248
  H      8.580972   -6.579530    0.866660
  C      6.888617    2.535280    0.006628
  H      6.209492    2.550134   -0.866458
  H      6.212355    2.545704    0.882021
  C      7.733771    3.811741    0.008515
  H      8.398339    3.820953    0.891977
  H      8.396097    3.824967   -0.876584
  C      6.878227    5.084572    0.012531
  H      6.210709    5.076758   -0.869130
  H      6.212980    5.072748    0.895865
  C      7.710095    6.369491    0.014397
  H      8.360072    6.427193   -0.875761
  H      8.362497    6.423053    0.903036
  C      4.247577    0.004948    0.000113
  H      9.945336   -7.292652   -0.026626
  H      7.068970    7.265890    0.017359
  C      2.821946    0.006500    0.000494
  C      2.097893   -1.206838   -0.000235
  C      0.707780   -1.204952    0.000050
  C     -0.010741    0.009504    0.001091
  C      0.710352    1.222515    0.001864
  C      2.100373    1.221345    0.001582
  H     -3.729592    0.014614    0.001756
  H      0.163384    2.167010    0.002651
  H      2.643820   -2.151876   -0.001021
  H      2.647986    2.165427    0.002150
  H      0.158864   -2.148310   -0.000515
  C     13.789722    0.031477   -0.005118
  C     14.565302   -1.150711   -0.007168
  C     15.953740   -1.090712   -0.007603
  C     16.621353    0.152770   -0.006014
  C     15.849687    1.334610   -0.003972
  C     14.461312    1.275873   -0.003524
  H     20.336530    0.314151   -0.006977
  H     16.356949    2.301040   -0.002743
  H     14.060641   -2.118439   -0.008361
  H     13.874663    2.196192   -0.001939
  H     16.541337   -2.010509   -0.009127
  C     18.050568    0.214344   -0.006425
  C     19.265095    0.266906   -0.006700
  C     -1.441545    0.011220    0.001350
  C     -2.657087    0.013045    0.001570

----------------------------
CARTESIAN COORDINATES (A.U.)
----------------------------
  NO LB      ZA    FRAG     MASS         X           Y           Z
   0 C     6.0000    0    12.011   23.371127   -0.050437   -0.008544
   1 C     6.0000    0    12.011   21.058231   -0.129298   -0.006139
   2 C     6.0000    0    12.011   10.337001   -0.000863   -0.001801
   3 C     6.0000    0    12.011   18.376683   -0.167515   -0.005419
   4 C     6.0000    0    12.011   16.989825   -2.522829   -0.012100
   5 C     6.0000    0    12.011   14.306661   -2.336361   -0.010368
   6 C     6.0000    0    12.011   13.034644   -0.022466   -0.002740
   7 C     6.0000    0    12.011   14.426971    2.300582    0.003886
   8 C     6.0000    0    12.011   17.056879    2.146165    0.002380
   9 H     1.0000    0     1.008   13.180226   -4.061267   -0.015334
  10 H     1.0000    0     1.008   18.178810    3.873284    0.007333
  11 C     6.0000    0    12.011   18.229932   -4.882903   -0.020115
  12 H     1.0000    0     1.008   20.295623   -4.864027   -0.021159
  13 C     6.0000    0    12.011   16.932910   -7.402370   -0.027579
  14 H     1.0000    0     1.008   15.661837   -7.559153    1.632815
  15 H     1.0000    0     1.008   15.659155   -7.547987   -1.686923
  16 C     6.0000    0    12.011   18.768793   -9.646684   -0.036684
  17 H     1.0000    0     1.008   20.015344   -9.498508   -1.706173
  18 H     1.0000    0     1.008   20.018735   -9.509311    1.631190
  19 C     6.0000    0    12.011   17.429302  -12.208509   -0.043665
  20 H     1.0000    0     1.008   16.212060  -12.422469   -1.723899
  21 H     1.0000    0     1.008   16.215687  -12.433511    1.637751
  22 C     6.0000    0    12.011   13.017600    4.790985    0.012525
  23 H     1.0000    0     1.008   11.734239    4.819054   -1.637369
  24 H     1.0000    0     1.008   11.739649    4.810684    1.666779
  25 C     6.0000    0    12.011   14.614710    7.203147    0.016092
  26 H     1.0000    0     1.008   15.870560    7.220554    1.685593
  27 H     1.0000    0     1.008   15.866324    7.228139   -1.656504
  28 C     6.0000    0    12.011   12.997964    9.608448    0.023680
  29 H     1.0000    0     1.008   11.736539    9.593681   -1.642418
  30 H     1.0000    0     1.008   11.740831    9.586104    1.692939
  31 C     6.0000    0    12.011   14.569969   12.036594    0.027206
  32 H     1.0000    0     1.008   15.798247   12.145635   -1.654948
  33 H     1.0000    0     1.008   15.802829   12.137812    1.706491
  34 C     6.0000    0    12.011    8.026758    0.009350    0.000214
  35 H     1.0000    0     1.008   18.793961  -13.781115   -0.050315
  36 H     1.0000    0     1.008   13.358418   13.730542    0.032803
  37 C     6.0000    0    12.011    5.332705    0.012283    0.000934
  38 C     6.0000    0    12.011    3.964444   -2.280593   -0.000445
  39 C     6.0000    0    12.011    1.337511   -2.277030    0.000095
  40 C     6.0000    0    12.011   -0.020297    0.017959    0.002061
  41 C     6.0000    0    12.011    1.342371    2.310219    0.003522
  42 C     6.0000    0    12.011    3.969130    2.308007    0.002990
  43 H     1.0000    0     1.008   -7.047908    0.027617    0.003319
  44 H     1.0000    0     1.008    0.308752    4.095056    0.005010
  45 H     1.0000    0     1.008    4.996095   -4.066456   -0.001929
  46 H     1.0000    0     1.008    5.003968    4.092065    0.004063
  47 H     1.0000    0     1.008    0.300210   -4.059718   -0.000974
  48 C     6.0000    0    12.011   26.058799    0.059483   -0.009671
  49 C     6.0000    0    12.011   27.524432   -2.174528   -0.013545
  50 C     6.0000    0    12.011   30.148200   -2.061147   -0.014368
  51 C     6.0000    0    12.011   31.409804    0.288694   -0.011365
  52 C     6.0000    0    12.011   29.951568    2.522047   -0.007506
  53 C     6.0000    0    12.011   27.327919    2.411051   -0.006659
  54 H     1.0000    0     1.008   38.430472    0.593660   -0.013185
  55 H     1.0000    0     1.008   30.910154    4.348335   -0.005184
  56 H     1.0000    0     1.008   26.570761   -4.003270   -0.015800
  57 H     1.0000    0     1.008   26.219314    4.150201   -0.003664
  58 H     1.0000    0     1.008   31.258597   -3.799311   -0.017248
  59 C     6.0000    0    12.011   34.110630    0.405052   -0.012142
  60 C     6.0000    0    12.011   36.405754    0.504380   -0.012661
  61 C     6.0000    0    12.011   -2.724125    0.021203    0.002552
  62 C     6.0000    0    12.011   -5.021166    0.024652    0.002966

--------------------------------
INTERNAL COORDINATES (ANGSTROEM)
--------------------------------
 C      0   0   0     0.000000000000     0.00000000     0.00000000
 C      1   0   0     1.224643686925     0.00000000     0.00000000
 C      2   1   0     5.673838187034   177.36060450     0.00000000
 C      2   1   3     1.419158494039   178.86285161     1.43629221
 C      4   2   1     1.446399644311   121.30681375   177.60152958
 C      5   4   2     1.423294321543   116.51483908   179.99210644
 C      6   5   4     1.397287531006   122.77429484     0.00000000
 C      7   6   5     1.433198517079   120.26481045     0.00000000
 C      8   7   6     1.394084566035   117.57601089     0.00000000
 H      6   5   4     1.090179668029   119.17055408   179.99617110
 H      9   8   7     1.089860143609   119.64710359   180.00196681
 C      5   4   2     1.410818582802   121.78998178     0.00000000
 H     12   5   4     1.093162195291   117.19618834     0.00000000
 C     12   5   4     1.499546135283   125.04101924   180.00552152
 H     14  12   5     1.109647473993   109.98868380   302.58882704
 H     14  12   5     1.109643094317   109.99004089    57.36111334
 C     14  12   5     1.534385319986   113.47720849   179.97395482
 H     17  14  12     1.105339216581   108.99338697   302.32673172
 H     17  14  12     1.105338729230   108.99421469    57.64500523
 C     17  14  12     1.529791696594   113.11306921   179.98724071
 H     20  17  14     1.103768414177   111.29981852    59.86793690
 H     20  17  14     1.103768376503   111.29944896   300.12115275
 C      8   7   6     1.514270525983   119.55729967   180.00950784
 H     23   8   7     1.106215238962   108.15986336   303.79724306
 H     23   8   7     1.106233928275   108.16030722    56.34969821
 C     23   8   7     1.530895836122   116.98482842   180.07184101
 H     26  23   8     1.105549548081   109.86405072   301.71437730
 H     26  23   8     1.105554571414   109.86002791    58.23506451
 C     26  23   8     1.533646095360   112.58388640   179.97493976
 H     29  26  23     1.105878174063   109.19422307   302.33229829
 H     29  26  23     1.105880647345   109.19562080    57.67282599
 C     29  26  23     1.530695104949   113.17331240   180.00234725
 H     32  29  26     1.103711805866   111.28120814    59.86478310
 H     32  29  26     1.103710395030   111.28184043   300.14489270
 C      3   2   1     1.222540304866   179.56611388   182.74903413
 H     20  17  14     1.101836114026   111.44632692   179.99430315
 H     32  29  26     1.102080221280   111.50748578   180.00470852
 C     35   3   7     1.425632241984   179.80597194   341.40060638
 C     38  35   3     1.412955207351   120.76401976    10.24474190
 C     39  38  35     1.390114262744   120.74868183   180.00412331
 C     40  39  38     1.411090737373   120.68797962     0.00000000
 C     41  40  39     1.411160347010   118.65974881     0.00000000
 C     42  41  40     1.390021364183   120.68173392     0.00000000
 H     41  40  39     3.718855155409   120.68900025   179.99822411
 H     42  41  40     1.091441798284   119.19437651   179.99883027
 H     39  38  35     1.091390276831   119.15957648     0.00000000
 H     43  42  41     1.091408165689   120.06748905   179.99779105
 H     40  39  38     1.091436344236   120.11630269   180.00025693
 C      1   2   4     1.423443597639   179.60920788     7.44143248
 C     49   1   2     1.413893907784   120.92509249   174.86520633
 C     50  49   1     1.389733854762   120.79266478   180.00683349
 C     51  50  49     1.411366850357   120.70523686     0.00000000
 C     52  51  50     1.411458844567   118.62720706     0.00000000
 C     53  52  51     1.389617312832   120.71944660     0.00000000
 H     52  51  50     3.718680648391   120.71811885   179.99640529
 H     53  52  51     1.091468470596   119.16391950   180.00061579
 H     50  49   1     1.091413049417   119.19138329     0.00000000
 H     54  53  52     1.091396032447   120.09260568   179.99998091
 H     51  50  49     1.091466534876   120.09740915   179.99604153
 C     52  51  50     1.430541355691   120.69775201   179.99826963
 C     55  52  51     1.072475526105     0.03755270   359.96619108
 C     41  40  39     1.430805003159   120.67899214   179.99839317
 C     44  41  40     1.072506840651     0.00507994     3.23432183

---------------------------
INTERNAL COORDINATES (A.U.)
---------------------------
 C      0   0   0     0.000000000000     0.00000000     0.00000000
 C      1   0   0     2.314241179924     0.00000000     0.00000000
 C      2   1   0    10.722000301679   177.36060450     0.00000000
 C      2   1   3     2.681820894361   178.86285161     1.43629221
 C      4   2   1     2.733299207949   121.30681375   177.60152958
 C      5   4   2     2.689636475681   116.51483908   179.99210644
 C      6   5   4     2.640490763944   122.77429484     0.00000000
 C      7   6   5     2.708352692821   120.26481045     0.00000000
 C      8   7   6     2.634438037332   117.57601089     0.00000000
 H      6   5   4     2.060141009344   119.17055408   179.99617110
 H      9   8   7     2.059537195697   119.64710359   180.00196681
 C      5   4   2     2.666060746143   121.78998178     0.00000000
 H     12   5   4     2.065777169056   117.19618834     0.00000000
 C     12   5   4     2.833731520865   125.04101924   180.00552152
 H     14  12   5     2.096929831044   109.98868380   302.58882704
 H     14  12   5     2.096921554655   109.99004089    57.36111334
 C     14  12   5     2.899568038683   113.47720849   179.97395482
 H     17  14  12     2.088788404421   108.99338697   302.32673172
 H     17  14  12     2.088787483462   108.99421469    57.64500523
 C     17  14  12     2.890887348510   113.11306921   179.98724071
 H     20  17  14     2.085820018067   111.29981852    59.86793690
 H     20  17  14     2.085819946873   111.29944896   300.12115275
 C      8   7   6     2.861556586777   119.55729967   180.00950784
 H     23   8   7     2.090443846808   108.15986336   303.79724306
 H     23   8   7     2.090479164493   108.16030722    56.34969821
 C     23   8   7     2.892973869831   116.98482842   180.07184101
 H     26  23   8     2.089185873353   109.86405072   301.71437730
 H     26  23   8     2.089195366078   109.86002791    58.23506451
 C     26  23   8     2.898171106589   112.58388640   179.97493976
 H     29  26  23     2.089806886460   109.19422307   302.33229829
 H     29  26  23     2.089811560285   109.19562080    57.67282599
 C     29  26  23     2.892594542888   113.17331240   180.00234725
 H     32  29  26     2.085713043862   111.28120814    59.86478310
 H     32  29  26     2.085710377769   111.28184043   300.14489270
 C      3   2   1     2.310266363877   179.56611388   182.74903413
 H     20  17  14     2.082168499973   111.44632692   179.99430315
 H     32  29  26     2.082629795831   111.50748578   180.00470852
 C     35   3   7     2.694054505037   179.80597194   341.40060638
 C     38  35   3     2.670098381392   120.76401976    10.24474190
 C     39  38  35     2.626935251443   120.74868183   180.00412331
 C     40  39  38     2.666575043749   120.68797962     0.00000000
 C     41  40  39     2.666706586898   118.65974881     0.00000000
 C     42  41  40     2.626759698605   120.68173392     0.00000000
 H     41  40  39     7.027617775444   120.68900025   179.99822411
 H     42  41  40     2.062526089870   119.19437651   179.99883027
 H     39  38  35     2.062428728434   119.15957648     0.00000000
 H     43  42  41     2.062462533477   120.06748905   179.99779105
 H     40  39  38     2.062515783214   120.11630269   180.00025693
 C      1   2   4     2.689918566621   179.60920788     7.44143248
 C     49   1   2     2.671872268132   120.92509249   174.86520633
 C     50  49   1     2.626216384538   120.79266478   180.00683349
 C     51  50  49     2.667096821670   120.70523686     0.00000000
 C     52  51  50     2.667270665532   118.62720706     0.00000000
 C     53  52  51     2.625996152207   120.71944660     0.00000000
 H     52  51  50     7.027288004972   120.71811885   179.99640529
 H     53  52  51     2.062576493237   119.16391950   180.00061579
 H     50  49   1     2.062471762386   119.19138329     0.00000000
 H     54  53  52     2.062439604972   120.09260568   179.99998091
 H     51  50  49     2.062572835256   120.09740915   179.99604153
 C     52  51  50     2.703331385504   120.69775201   179.99826963
 C     55  52  51     2.026685029672     0.03755270   359.96619108
 C     41  40  39     2.703829607015   120.67899214   179.99839317
 C     44  41  40     2.026744205587     0.00507994     3.23432183

---------------------
BASIS SET INFORMATION
---------------------
There are 2 groups of distinct atoms

 Group   1 Type C   : 17s4p1d contracted to 3s2p1d pattern {881/31/1}
 Group   2 Type H   : 4s1p contracted to 2s1p pattern {31/1}

Atom   0C    basis set group =>   1
Atom   1C    basis set group =>   1
Atom   2C    basis set group =>   1
Atom   3C    basis set group =>   1
Atom   4C    basis set group =>   1
Atom   5C    basis set group =>   1
Atom   6C    basis set group =>   1
Atom   7C    basis set group =>   1
Atom   8C    basis set group =>   1
Atom   9H    basis set group =>   2
Atom  10H    basis set group =>   2
Atom  11C    basis set group =>   1
Atom  12H    basis set group =>   2
Atom  13C    basis set group =>   1
Atom  14H    basis set group =>   2
Atom  15H    basis set group =>   2
Atom  16C    basis set group =>   1
Atom  17H    basis set group =>   2
Atom  18H    basis set group =>   2
Atom  19C    basis set group =>   1
Atom  20H    basis set group =>   2
Atom  21H    basis set group =>   2
Atom  22C    basis set group =>   1
Atom  23H    basis set group =>   2
Atom  24H    basis set group =>   2
Atom  25C    basis set group =>   1
Atom  26H    basis set group =>   2
Atom  27H    basis set group =>   2
Atom  28C    basis set group =>   1
Atom  29H    basis set group =>   2
Atom  30H    basis set group =>   2
Atom  31C    basis set group =>   1
Atom  32H    basis set group =>   2
Atom  33H    basis set group =>   2
Atom  34C    basis set group =>   1
Atom  35H    basis set group =>   2
Atom  36H    basis set group =>   2
Atom  37C    basis set group =>   1
Atom  38C    basis set group =>   1
Atom  39C    basis set group =>   1
Atom  40C    basis set group =>   1
Atom  41C    basis set group =>   1
Atom  42C    basis set group =>   1
Atom  43H    basis set group =>   2
Atom  44H    basis set group =>   2
Atom  45H    basis set group =>   2
Atom  46H    basis set group =>   2
Atom  47H    basis set group =>   2
Atom  48C    basis set group =>   1
Atom  49C    basis set group =>   1
Atom  50C    basis set group =>   1
Atom  51C    basis set group =>   1
Atom  52C    basis set group =>   1
Atom  53C    basis set group =>   1
Atom  54H    basis set group =>   2
Atom  55H    basis set group =>   2
Atom  56H    basis set group =>   2
Atom  57H    basis set group =>   2
Atom  58H    basis set group =>   2
Atom  59C    basis set group =>   1
Atom  60C    basis set group =>   1
Atom  61C    basis set group =>   1
Atom  62C    basis set group =>   1
---------------------------------
AUXILIARY/J BASIS SET INFORMATION
---------------------------------
There are 2 groups of distinct atoms

 Group   1 Type C   : 14s11p10d2f contracted to 14s11p10d2f pattern {11111111111111/11111111111/1111111111/11}
 Group   2 Type H   : 9s2p1d contracted to 9s2p1d pattern {111111111/11/1}

Atom   0C    basis set group =>   1
Atom   1C    basis set group =>   1
Atom   2C    basis set group =>   1
Atom   3C    basis set group =>   1
Atom   4C    basis set group =>   1
Atom   5C    basis set group =>   1
Atom   6C    basis set group =>   1
Atom   7C    basis set group =>   1
Atom   8C    basis set group =>   1
Atom   9H    basis set group =>   2
Atom  10H    basis set group =>   2
Atom  11C    basis set group =>   1
Atom  12H    basis set group =>   2
Atom  13C    basis set group =>   1
Atom  14H    basis set group =>   2
Atom  15H    basis set group =>   2
Atom  16C    basis set group =>   1
Atom  17H    basis set group =>   2
Atom  18H    basis set group =>   2
Atom  19C    basis set group =>   1
Atom  20H    basis set group =>   2
Atom  21H    basis set group =>   2
Atom  22C    basis set group =>   1
Atom  23H    basis set group =>   2
Atom  24H    basis set group =>   2
Atom  25C    basis set group =>   1
Atom  26H    basis set group =>   2
Atom  27H    basis set group =>   2
Atom  28C    basis set group =>   1
Atom  29H    basis set group =>   2
Atom  30H    basis set group =>   2
Atom  31C    basis set group =>   1
Atom  32H    basis set group =>   2
Atom  33H    basis set group =>   2
Atom  34C    basis set group =>   1
Atom  35H    basis set group =>   2
Atom  36H    basis set group =>   2
Atom  37C    basis set group =>   1
Atom  38C    basis set group =>   1
Atom  39C    basis set group =>   1
Atom  40C    basis set group =>   1
Atom  41C    basis set group =>   1
Atom  42C    basis set group =>   1
Atom  43H    basis set group =>   2
Atom  44H    basis set group =>   2
Atom  45H    basis set group =>   2
Atom  46H    basis set group =>   2
Atom  47H    basis set group =>   2
Atom  48C    basis set group =>   1
Atom  49C    basis set group =>   1
Atom  50C    basis set group =>   1
Atom  51C    basis set group =>   1
Atom  52C    basis set group =>   1
Atom  53C    basis set group =>   1
Atom  54H    basis set group =>   2
Atom  55H    basis set group =>   2
Atom  56H    basis set group =>   2
Atom  57H    basis set group =>   2
Atom  58H    basis set group =>   2
Atom  59C    basis set group =>   1
Atom  60C    basis set group =>   1
Atom  61C    basis set group =>   1
Atom  62C    basis set group =>   1
---------------------------------
AUXILIARY/C BASIS SET INFORMATION
---------------------------------
There are 2 groups of distinct atoms

 Group   1 Type C   : 14s11p10d2f contracted to 14s11p10d2f pattern {11111111111111/11111111111/1111111111/11}
 Group   2 Type H   : 9s2p1d contracted to 9s2p1d pattern {111111111/11/1}

Atom   0C    basis set group =>   1
Atom   1C    basis set group =>   1
Atom   2C    basis set group =>   1
Atom   3C    basis set group =>   1
Atom   4C    basis set group =>   1
Atom   5C    basis set group =>   1
Atom   6C    basis set group =>   1
Atom   7C    basis set group =>   1
Atom   8C    basis set group =>   1
Atom   9H    basis set group =>   2
Atom  10H    basis set group =>   2
Atom  11C    basis set group =>   1
Atom  12H    basis set group =>   2
Atom  13C    basis set group =>   1
Atom  14H    basis set group =>   2
Atom  15H    basis set group =>   2
Atom  16C    basis set group =>   1
Atom  17H    basis set group =>   2
Atom  18H    basis set group =>   2
Atom  19C    basis set group =>   1
Atom  20H    basis set group =>   2
Atom  21H    basis set group =>   2
Atom  22C    basis set group =>   1
Atom  23H    basis set group =>   2
Atom  24H    basis set group =>   2
Atom  25C    basis set group =>   1
Atom  26H    basis set group =>   2
Atom  27H    basis set group =>   2
Atom  28C    basis set group =>   1
Atom  29H    basis set group =>   2
Atom  30H    basis set group =>   2
Atom  31C    basis set group =>   1
Atom  32H    basis set group =>   2
Atom  33H    basis set group =>   2
Atom  34C    basis set group =>   1
Atom  35H    basis set group =>   2
Atom  36H    basis set group =>   2
Atom  37C    basis set group =>   1
Atom  38C    basis set group =>   1
Atom  39C    basis set group =>   1
Atom  40C    basis set group =>   1
Atom  41C    basis set group =>   1
Atom  42C    basis set group =>   1
Atom  43H    basis set group =>   2
Atom  44H    basis set group =>   2
Atom  45H    basis set group =>   2
Atom  46H    basis set group =>   2
Atom  47H    basis set group =>   2
Atom  48C    basis set group =>   1
Atom  49C    basis set group =>   1
Atom  50C    basis set group =>   1
Atom  51C    basis set group =>   1
Atom  52C    basis set group =>   1
Atom  53C    basis set group =>   1
Atom  54H    basis set group =>   2
Atom  55H    basis set group =>   2
Atom  56H    basis set group =>   2
Atom  57H    basis set group =>   2
Atom  58H    basis set group =>   2
Atom  59C    basis set group =>   1
Atom  60C    basis set group =>   1
Atom  61C    basis set group =>   1
Atom  62C    basis set group =>   1
----------------------------------
AUXILIARY/JK BASIS SET INFORMATION
----------------------------------
There are 2 groups of distinct atoms

 Group   1 Type C   : 14s11p10d2f contracted to 14s11p10d2f pattern {11111111111111/11111111111/1111111111/11}
 Group   2 Type H   : 9s2p1d contracted to 9s2p1d pattern {111111111/11/1}

Atom   0C    basis set group =>   1
Atom   1C    basis set group =>   1
Atom   2C    basis set group =>   1
Atom   3C    basis set group =>   1
Atom   4C    basis set group =>   1
Atom   5C    basis set group =>   1
Atom   6C    basis set group =>   1
Atom   7C    basis set group =>   1
Atom   8C    basis set group =>   1
Atom   9H    basis set group =>   2
Atom  10H    basis set group =>   2
Atom  11C    basis set group =>   1
Atom  12H    basis set group =>   2
Atom  13C    basis set group =>   1
Atom  14H    basis set group =>   2
Atom  15H    basis set group =>   2
Atom  16C    basis set group =>   1
Atom  17H    basis set group =>   2
Atom  18H    basis set group =>   2
Atom  19C    basis set group =>   1
Atom  20H    basis set group =>   2
Atom  21H    basis set group =>   2
Atom  22C    basis set group =>   1
Atom  23H    basis set group =>   2
Atom  24H    basis set group =>   2
Atom  25C    basis set group =>   1
Atom  26H    basis set group =>   2
Atom  27H    basis set group =>   2
Atom  28C    basis set group =>   1
Atom  29H    basis set group =>   2
Atom  30H    basis set group =>   2
Atom  31C    basis set group =>   1
Atom  32H    basis set group =>   2
Atom  33H    basis set group =>   2
Atom  34C    basis set group =>   1
Atom  35H    basis set group =>   2
Atom  36H    basis set group =>   2
Atom  37C    basis set group =>   1
Atom  38C    basis set group =>   1
Atom  39C    basis set group =>   1
Atom  40C    basis set group =>   1
Atom  41C    basis set group =>   1
Atom  42C    basis set group =>   1
Atom  43H    basis set group =>   2
Atom  44H    basis set group =>   2
Atom  45H    basis set group =>   2
Atom  46H    basis set group =>   2
Atom  47H    basis set group =>   2
Atom  48C    basis set group =>   1
Atom  49C    basis set group =>   1
Atom  50C    basis set group =>   1
Atom  51C    basis set group =>   1
Atom  52C    basis set group =>   1
Atom  53C    basis set group =>   1
Atom  54H    basis set group =>   2
Atom  55H    basis set group =>   2
Atom  56H    basis set group =>   2
Atom  57H    basis set group =>   2
Atom  58H    basis set group =>   2
Atom  59C    basis set group =>   1
Atom  60C    basis set group =>   1
Atom  61C    basis set group =>   1
Atom  62C    basis set group =>   1

Checking for AutoStart:
The File: cc-pVDZ.gbw exists
Trying to determine its content:
     ... Fine, the file contains calculation information
     ... Fine, the calculation information was read
     ... Fine, the file contains a basis set
     ... Fine, the basis set was read
     ... Fine, the file contains a geometry
     ... Fine, the geometry was read
     ... Fine, the file contains a set of orbitals
     ... Fine, the orbitals can be read
     => possible old guess file was deleted
     => GBW file was renamed to GES file
     => GES file is set as startup file
     => Guess is set to MORead
     ... now leaving AutoStart



           ************************************************************
           *        Program running with 16 parallel MPI-processes    *
           *              working on a common directory               *
           ************************************************************
------------------------------------------------------------------------------
                           ORCA GTO INTEGRAL CALCULATION
                           -- RI-GTO INTEGRALS CHOSEN --
------------------------------------------------------------------------------
------------------------------------------------------------------------------
                   ___                                                        
                  /   \      - P O W E R E D   B Y -                         
                 /     \                                                     
                 |  |  |   _    _      __       _____    __    __             
                 |  |  |  | |  | |    /  \     |  _  \  |  |  /  |          
                  \  \/   | |  | |   /    \    | | | |  |  | /  /          
                 / \  \   | |__| |  /  /\  \   | |_| |  |  |/  /          
                |  |  |   |  __  | /  /__\  \  |    /   |      \           
                |  |  |   | |  | | |   __   |  |    \   |  |\   \          
                \     /   | |  | | |  |  |  |  | |\  \  |  | \   \       
                 \___/    |_|  |_| |__|  |__|  |_| \__\ |__|  \__/        
                                                                              
                      - O R C A' S   B I G   F R I E N D -                    
                                      &                                       
                       - I N T E G R A L  F E E D E R -                       
                                                                              
 v1 FN, 2020, v2 2021                                                         
------------------------------------------------------------------------------


Reading SHARK input file cc-pVDZ.SHARKINP.tmp ... ok
----------------------
SHARK INTEGRAL PACKAGE
----------------------

Number of atoms                             ...     63
Number of basis functions                   ...    825
Number of shells                            ...    495
Maximum angular momentum                    ...      2
Integral batch strategy                     ... SHARK/LIBINT Hybrid
RI-J (if used) integral strategy            ... SPLIT-RIJ (Revised 2003 algorithm where possible)
Printlevel                                  ...      1
Contraction scheme used                     ... PARTIAL GENERAL contraction
Coulomb Range Separation                    ... NOT USED
Exchange Range Separation                   ... NOT USED
Finite Nucleus Model                        ... NOT USED
Auxiliary Coulomb fitting basis             ... AVAILABLE
   # of basis functions in Aux-J            ...   4354
   # of shells in Aux-J                     ...   1606
   Maximum angular momentum in Aux-J        ...      3
Auxiliary J/K fitting basis                 ... AVAILABLE
   # of basis functions in Aux-JK           ...   4354
   # of shells in Aux-JK                    ...   1606
   Maximum angular momentum in Aux-JK       ...      3
Auxiliary Correlation fitting basis         ... AVAILABLE
   # of basis functions in Aux-C            ...   4354
   # of shells in Aux-C                     ...   1606
   Maximum angular momentum in Aux-C        ...      3
Auxiliary 'external' fitting basis          ... NOT available
Integral threshold                          ...     1.000000e-10
Primitive cut-off                           ...     1.000000e-11
Primitive pair pre-selection threshold      ...     1.000000e-11

Calculating pre-screening integrals         ... done (  0.0 sec) Dimension = 495
Calculating pre-screening integrals (ORCA)  ... done (  0.1 sec) Dimension = 291
Organizing shell pair data                  ... done (  0.3 sec)
Shell pair information
Total number of shell pairs                 ...    122760
Shell pairs after pre-screening             ...     35062
Total number of primitive shell pairs       ...    193320
Primitive shell pairs kept                  ...     46517
          la=0 lb=0:  14912 shell pairs
          la=1 lb=0:  12456 shell pairs
          la=1 lb=1:   2233 shell pairs
          la=2 lb=0:   3830 shell pairs
          la=2 lb=1:   1394 shell pairs
          la=2 lb=2:    237 shell pairs

Calculating one electron integrals          ... done (  0.1 sec)
Calculating RI/J V-Matrix + Cholesky decomp.... done (  1.7 sec)
Calculating RI/JK V-Matrix + Cholesky decomp... done (  1.3 sec)
Calculating RI/C V-Matrix + Cholesky decomp.... done (  1.2 sec)
Calculating Nuclear repulsion               ... done (  0.0 sec) ENN=   2735.916553133097 Eh

SHARK setup successfully completed in   5.4 seconds

Maximum memory used throughout the entire GTOINT-calculation: 65.4 MB


           ************************************************************
           *        Program running with 16 parallel MPI-processes    *
           *              working on a common directory               *
           ************************************************************
-------------------------------------------------------------------------------
                                 ORCA SCF
-------------------------------------------------------------------------------

------------
SCF SETTINGS
------------
Hamiltonian:
 Density Functional     Method          .... DFT(GTOs)
 Exchange Functional    Exchange        .... B88
   X-Alpha parameter    XAlpha          ....  0.666667
   Becke's b parameter  XBeta           ....  0.004200
 Correlation Functional Correlation     .... LYP
 LDA part of GGA corr.  LDAOpt          .... VWN-5
 Gradients option       PostSCFGGA      .... off
 Hybrid DFT is turned on
   Fraction HF Exchange ScalHFX         ....  0.200000
   Scaling of DF-GGA-X  ScalDFX         ....  0.720000
   Scaling of DF-GGA-C  ScalDFC         ....  0.810000
   Scaling of DF-LDA-C  ScalLDAC        ....  1.000000
   Perturbative correction              ....  0.000000
   Density functional embedding theory  .... OFF
   NL short-range parameter             ....  4.800000
 RI-approximation to the Coulomb term is turned on
   Number of AuxJ basis functions       .... 4354
   RIJ-COSX (HFX calculated with COS-X)).... on


General Settings:
 Integral files         IntName         .... cc-pVDZ
 Hartree-Fock type      HFTyp           .... UHF
 Total Charge           Charge          ....    0
 Multiplicity           Mult            ....    2
 Number of Electrons    NEL             ....  233
 Basis Dimension        Dim             ....  621
 Nuclear Repulsion      ENuc            ....   2735.9165531331 Eh

Convergence Acceleration:
 DIIS                   CNVDIIS         .... on
   Start iteration      DIISMaxIt       ....    12
   Startup error        DIISStart       ....  0.200000
   # of expansion vecs  DIISMaxEq       ....     5
   Bias factor          DIISBfac        ....   1.050
   Max. coefficient     DIISMaxC        ....  10.000
 Trust-Rad. Augm. Hess. CNVTRAH         .... auto
   Auto Start mean grad. ratio tolernc. ....  1.125000
   Auto Start start iteration           ....     1
   Auto Start num. interpolation iter.  ....    10
   Max. Number of Micro iterations      ....    16
   Max. Number of Macro iterations      .... Maxiter - #DIIS iter
   Number of Davidson start vectors     ....     2
   Converg. threshold I  (grad. norm)   ....   5.000e-05
   Converg. threshold II (energy diff.) ....   1.000e-06
   Grad. Scal. Fac. for Micro threshold ....   0.100
   Minimum threshold for Micro iter.    ....   0.010
   NR start threshold (gradient norm)   ....   0.001
   Initial trust radius                 ....   0.400
   Minimum AH scaling param. (alpha)    ....   1.000
   Maximum AH scaling param. (alpha)    .... 1000.000
   Orbital update algorithm             .... Taylor
   White noise on init. David. guess    .... on
   Maximum white noise                  ....   0.010
   Quad. conv. algorithm                .... NR
 SOSCF                  CNVSOSCF        .... off
 Level Shifting         CNVShift        .... on
   Level shift para.    LevelShift      ....    0.2500
   Turn off err/grad.   ShiftErr        ....    0.0010
 Zerner damping         CNVZerner       .... off
 Static damping         CNVDamp         .... on
   Fraction old density DampFac         ....    0.7000
   Max. Damping (<1)    DampMax         ....    0.9800
   Min. Damping (>=0)   DampMin         ....    0.0000
   Turn off err/grad.   DampErr         ....    0.1000
 Fernandez-Rico         CNVRico         .... off

SCF Procedure:
 Maximum # iterations   MaxIter         ....   125
 SCF integral mode      SCFMode         .... Direct
   Integral package                     .... SHARK and LIBINT hybrid scheme
 Reset frequency        DirectResetFreq ....    20
 Integral Threshold     Thresh          ....  1.000e-10 Eh
 Primitive CutOff       TCut            ....  1.000e-11 Eh

Convergence Tolerance:
 Convergence Check Mode ConvCheckMode   .... Total+1el-Energy
 Convergence forced     ConvForced      .... 0
 Energy Change          TolE            ....  1.000e-06 Eh
 1-El. energy change                    ....  1.000e-03 Eh
 DIIS Error             TolErr          ....  1.000e-06


Diagonalization of the overlap matrix:
Smallest eigenvalue                        ... 4.461e-05
Time for diagonalization                   ...    0.075 sec
Threshold for overlap eigenvalues          ... 1.000e-08
Number of eigenvalues below threshold      ... 0
Time for construction of square roots      ...    0.069 sec
Total time needed                          ...    0.146 sec

---------------------
INITIAL GUESS: MOREAD
---------------------
Guess MOs are being read from file: cc-pVDZ.ges
Input Geometry matches current geometry (good)
Input basis set matches current basis set (good)
MOs were renormalized
MOs were reorthogonalized (Cholesky)
                      ------------------
                      INITIAL GUESS DONE (   0.5 sec)
                      ------------------
-------------------
DFT GRID GENERATION
-------------------

General Integration Accuracy     IntAcc      ... 4.388
Radial Grid Type                 RadialGrid  ... OptM3 with GC (2021)
Angular Grid (max. ang.)         AngularGrid ... 4 (Lebedev-302)
Angular grid pruning method      GridPruning ... 4 (adaptive)
Weight generation scheme         WeightScheme... Becke
Basis function cutoff            BFCut       ... 1.0000e-10
Integration weight cutoff        WCut        ... 1.0000e-14
Angular grids for H and He will be reduced by one unit
Partially contracted basis set               ... off
Rotationally invariant grid construction     ... off

Total number of grid points                  ...   295746
Total number of batches                      ...     4659
Average number of points per batch           ...       63
Average number of grid points per atom       ...     4694
Time for grid setup =    1.869 sec

--------------------
COSX GRID GENERATION
--------------------

GRIDX 1
-------
General Integration Accuracy     IntAcc      ... 3.816
Radial Grid Type                 RadialGrid  ... OptM3 with GC (2021)
Angular Grid (max. ang.)         AngularGrid ... 1 (Lebedev-50)
Angular grid pruning method      GridPruning ... 4 (adaptive)
Weight generation scheme         WeightScheme... Becke
Basis function cutoff            BFCut       ... 1.0000e-10
Integration weight cutoff        WCut        ... 1.0000e-14
Angular grids for H and He will be reduced by one unit
Partially contracted basis set               ... on
Rotationally invariant grid construction     ... off

Total number of grid points                  ...    37650
Total number of batches                      ...      626
Average number of points per batch           ...       60
Average number of grid points per atom       ...      598
UseSFitting                                  ... on

GRIDX 2
-------
General Integration Accuracy     IntAcc      ... 4.020
Radial Grid Type                 RadialGrid  ... OptM3 with GC (2021)
Angular Grid (max. ang.)         AngularGrid ... 2 (Lebedev-110)
Angular grid pruning method      GridPruning ... 4 (adaptive)
Weight generation scheme         WeightScheme... Becke
Basis function cutoff            BFCut       ... 1.0000e-10
Integration weight cutoff        WCut        ... 1.0000e-14
Angular grids for H and He will be reduced by one unit
Partially contracted basis set               ... on
Rotationally invariant grid construction     ... off

Total number of grid points                  ...    81060
Total number of batches                      ...     1297
Average number of points per batch           ...       62
Average number of grid points per atom       ...     1287
UseSFitting                                  ... on

GRIDX 3
-------
General Integration Accuracy     IntAcc      ... 4.338
Radial Grid Type                 RadialGrid  ... OptM3 with GC (2021)
Angular Grid (max. ang.)         AngularGrid ... 3 (Lebedev-194)
Angular grid pruning method      GridPruning ... 4 (adaptive)
Weight generation scheme         WeightScheme... Becke
Basis function cutoff            BFCut       ... 1.0000e-10
Integration weight cutoff        WCut        ... 1.0000e-14
Angular grids for H and He will be reduced by one unit
Partially contracted basis set               ... on
Rotationally invariant grid construction     ... off

Total number of grid points                  ...   177420
Total number of batches                      ...     2807
Average number of points per batch           ...       63
Average number of grid points per atom       ...     2816
UseSFitting                                  ... on

Time for X-Grid setup             =    3.458 sec

 re-compute Schwartz prescreening matrix in partically contracted basis (1) ...done (   0.127 sec)
--------------
SCF ITERATIONS
--------------
ITER       Energy         Delta-E        Max-DP      RMS-DP      [F,P]     Damp
               ***  Starting incremental Fock matrix formation  ***
  0  -1312.0489675638   0.000000000000 0.00003047  0.00000018  0.0000488 0.7000
                 **** Energy Check signals convergence ****

               *****************************************************
               *                     SUCCESS                       *
               *           SCF CONVERGED AFTER   1 CYCLES          *
               *****************************************************

Old exchange energy                            =    -37.268571251 Eh
New exchange energy                            =    -37.268700654 Eh
Exchange energy change after final integration =     -0.000129403 Eh
Total energy after final integration           =  -1312.049097173 Eh
Final COS-X integration done in                =    14.113 sec

----------------
TOTAL SCF ENERGY
----------------

Total Energy       :        -1312.04909717 Eh          -35702.67102 eV

Components:
Nuclear Repulsion  :         2735.91655313 Eh           74448.07428 eV
Electronic Energy  :        -4047.96565031 Eh         -110150.74530 eV
One Electron Energy:        -7208.06648525 Eh         -196141.46070 eV
Two Electron Energy:         3160.10083494 Eh           85990.71540 eV
Max COSX asymmetry :            0.00000079 Eh               0.00002 eV

Virial components:
Potential Energy   :        -2615.24782668 Eh          -71164.51130 eV
Kinetic Energy     :         1303.19872950 Eh           35461.84027 eV
Virial Ratio       :            2.00679126


DFT components:
N(Alpha)           :      117.000158229287 electrons
N(Beta)            :      116.000145298012 electrons
N(Total)           :      233.000303527299 electrons
E(X)               :     -147.897468060724 Eh       
E(C)               :       -9.123530157254 Eh       
E(XC)              :     -157.020998217978 Eh       
DFET-embed. en.    :        0.000000000000 Eh       

---------------
SCF CONVERGENCE
---------------

  Last Energy change         ...   -2.0665e-07  Tolerance :   1.0000e-06
  Last MAX-Density change    ...    8.6310e-06  Tolerance :   1.0000e-05
  Last RMS-Density change    ...    5.8640e-08  Tolerance :   1.0000e-06
  Last DIIS Error            ...    2.7717e-05  Tolerance :   1.0000e-06

             **** THE GBW FILE WAS UPDATED (cc-pVDZ.gbw) ****
             **** DENSITY cc-pVDZ.scfp WAS UPDATED ****
             **** ENERGY FILE WAS UPDATED (cc-pVDZ.en.tmp) ****
----------------------
UHF SPIN CONTAMINATION
----------------------

Warning: in a DFT calculation there is little theoretical justification to 
         calculate <S**2> as in Hartree-Fock theory. We will do it anyways
         but you should keep in mind that the values have only limited relevance

Expectation value of <S**2>     :     0.789230
Ideal value S*(S+1) for S=0.5   :     0.750000
Deviation                       :     0.039230

             **** THE GBW FILE WAS UPDATED (cc-pVDZ.gbw) ****
             **** DENSITY cc-pVDZ.scfp WAS UPDATED ****
----------------
ORBITAL ENERGIES
----------------
                 SPIN UP ORBITALS
  NO   OCC          E(Eh)            E(eV) 
   0   1.0000     -10.224087      -278.2116 
   1   1.0000     -10.222762      -278.1755 
   2   1.0000     -10.222265      -278.1620 
   3   1.0000     -10.221317      -278.1362 
   4   1.0000     -10.217713      -278.0381 
   5   1.0000     -10.215777      -277.9854 
   6   1.0000     -10.205861      -277.7156 
   7   1.0000     -10.204410      -277.6761 
   8   1.0000     -10.204328      -277.6739 
   9   1.0000     -10.203807      -277.6597 
  10   1.0000     -10.203694      -277.6566 
  11   1.0000     -10.202910      -277.6353 
  12   1.0000     -10.202708      -277.6298 
  13   1.0000     -10.202405      -277.6215 
  14   1.0000     -10.202181      -277.6154 
  15   1.0000     -10.201926      -277.6085 
  16   1.0000     -10.198417      -277.5130 
  17   1.0000     -10.196061      -277.4489 
  18   1.0000     -10.195834      -277.4427 
  19   1.0000     -10.195240      -277.4266 
  20   1.0000     -10.194426      -277.4044 
  21   1.0000     -10.193990      -277.3926 
  22   1.0000     -10.193241      -277.3722 
  23   1.0000     -10.193124      -277.3690 
  24   1.0000     -10.191908      -277.3359 
  25   1.0000     -10.191184      -277.3162 
  26   1.0000     -10.190756      -277.3046 
  27   1.0000     -10.190021      -277.2846 
  28   1.0000     -10.189534      -277.2713 
  29   1.0000     -10.186611      -277.1918 
  30   1.0000     -10.184401      -277.1316 
  31   1.0000     -10.184128      -277.1242 
  32   1.0000     -10.179253      -276.9916 
  33   1.0000     -10.177530      -276.9447 
  34   1.0000      -0.877862       -23.8878 
  35   1.0000      -0.875389       -23.8206 
  36   1.0000      -0.873918       -23.7805 
  37   1.0000      -0.824134       -22.4258 
  38   1.0000      -0.809074       -22.0160 
  39   1.0000      -0.806208       -21.9380 
  40   1.0000      -0.798922       -21.7398 
  41   1.0000      -0.793145       -21.5826 
  42   1.0000      -0.770987       -20.9796 
  43   1.0000      -0.759761       -20.6742 
  44   1.0000      -0.758714       -20.6457 
  45   1.0000      -0.758423       -20.6377 
  46   1.0000      -0.746285       -20.3074 
  47   1.0000      -0.736967       -20.0539 
  48   1.0000      -0.725984       -19.7550 
  49   1.0000      -0.712954       -19.4005 
  50   1.0000      -0.700409       -19.0591 
  51   1.0000      -0.660757       -17.9801 
  52   1.0000      -0.658108       -17.9080 
  53   1.0000      -0.642374       -17.4799 
  54   1.0000      -0.623383       -16.9631 
  55   1.0000      -0.619303       -16.8521 
  56   1.0000      -0.618620       -16.8335 
  57   1.0000      -0.617712       -16.8088 
  58   1.0000      -0.594906       -16.1882 
  59   1.0000      -0.582810       -15.8591 
  60   1.0000      -0.564737       -15.3673 
  61   1.0000      -0.553285       -15.0556 
  62   1.0000      -0.552003       -15.0208 
  63   1.0000      -0.542812       -14.7707 
  64   1.0000      -0.534301       -14.5391 
  65   1.0000      -0.510463       -13.8904 
  66   1.0000      -0.507309       -13.8046 
  67   1.0000      -0.496988       -13.5237 
  68   1.0000      -0.492467       -13.4007 
  69   1.0000      -0.482306       -13.1242 
  70   1.0000      -0.473364       -12.8809 
  71   1.0000      -0.473282       -12.8787 
  72   1.0000      -0.471581       -12.8324 
  73   1.0000      -0.464984       -12.6529 
  74   1.0000      -0.445715       -12.1285 
  75   1.0000      -0.444109       -12.0848 
  76   1.0000      -0.436318       -11.8728 
  77   1.0000      -0.432678       -11.7738 
  78   1.0000      -0.431256       -11.7351 
  79   1.0000      -0.429827       -11.6962 
  80   1.0000      -0.428847       -11.6695 
  81   1.0000      -0.424730       -11.5575 
  82   1.0000      -0.414367       -11.2755 
  83   1.0000      -0.401913       -10.9366 
  84   1.0000      -0.401782       -10.9330 
  85   1.0000      -0.394807       -10.7432 
  86   1.0000      -0.393834       -10.7168 
  87   1.0000      -0.386338       -10.5128 
  88   1.0000      -0.385304       -10.4847 
  89   1.0000      -0.382101       -10.3975 
  90   1.0000      -0.381593       -10.3837 
  91   1.0000      -0.368054       -10.0153 
  92   1.0000      -0.361241        -9.8299 
  93   1.0000      -0.360261        -9.8032 
  94   1.0000      -0.359125        -9.7723 
  95   1.0000      -0.358200        -9.7471 
  96   1.0000      -0.345088        -9.3903 
  97   1.0000      -0.343141        -9.3373 
  98   1.0000      -0.336095        -9.1456 
  99   1.0000      -0.335340        -9.1251 
 100   1.0000      -0.331366        -9.0169 
 101   1.0000      -0.330299        -8.9879 
 102   1.0000      -0.326951        -8.8968 
 103   1.0000      -0.325706        -8.8629 
 104   1.0000      -0.312135        -8.4936 
 105   1.0000      -0.285678        -7.7737 
 106   1.0000      -0.280179        -7.6241 
 107   1.0000      -0.278869        -7.5884 
 108   1.0000      -0.275137        -7.4869 
 109   1.0000      -0.273497        -7.4422 
 110   1.0000      -0.271727        -7.3941 
 111   1.0000      -0.266807        -7.2602 
 112   1.0000      -0.265993        -7.2380 
 113   1.0000      -0.260237        -7.0814 
 114   1.0000      -0.230406        -6.2697 
 115   1.0000      -0.209820        -5.7095 
 116   1.0000      -0.173925        -4.7327 
 117   0.0000      -0.076359        -2.0778 
 118   0.0000      -0.049443        -1.3454 
 119   0.0000      -0.016671        -0.4536 
 120   0.0000      -0.015502        -0.4218 
 121   0.0000      -0.014430        -0.3926 
 122   0.0000       0.011548         0.3142 
 123   0.0000       0.034661         0.9432 
 124   0.0000       0.039505         1.0750 
 125   0.0000       0.046121         1.2550 
 126   0.0000       0.049243         1.3400 
 127   0.0000       0.049931         1.3587 
 128   0.0000       0.053620         1.4591 
 129   0.0000       0.055880         1.5206 
 130   0.0000       0.061055         1.6614 
 131   0.0000       0.064090         1.7440 
 132   0.0000       0.071532         1.9465 
 133   0.0000       0.076940         2.0936 
 134   0.0000       0.080113         2.1800 
 135   0.0000       0.086236         2.3466 
 136   0.0000       0.087217         2.3733 
 137   0.0000       0.090361         2.4588 
 138   0.0000       0.090745         2.4693 
 139   0.0000       0.092362         2.5133 
 140   0.0000       0.100609         2.7377 
 141   0.0000       0.100708         2.7404 
 142   0.0000       0.104710         2.8493 
 143   0.0000       0.109772         2.9871 
 144   0.0000       0.117778         3.2049 
 145   0.0000       0.119868         3.2618 
 146   0.0000       0.127173         3.4605 
 147   0.0000       0.133005         3.6193 
 148   0.0000       0.139315         3.7910 
 149   0.0000       0.141966         3.8631 
 150   0.0000       0.142892         3.8883 
 151   0.0000       0.150053         4.0831 
 152   0.0000       0.153884         4.1874 
 153   0.0000       0.157313         4.2807 
 154   0.0000       0.157854         4.2954 
 155   0.0000       0.159756         4.3472 
 156   0.0000       0.164630         4.4798 
 157   0.0000       0.169338         4.6079 
 158   0.0000       0.171221         4.6592 
 159   0.0000       0.171656         4.6710 
 160   0.0000       0.179063         4.8725 
 161   0.0000       0.197296         5.3687 
 162   0.0000       0.197721         5.3803 
 163   0.0000       0.198383         5.3983 
 164   0.0000       0.204330         5.5601 
 165   0.0000       0.214214         5.8291 
 166   0.0000       0.214710         5.8425 
 167   0.0000       0.215056         5.8520 
 168   0.0000       0.221448         6.0259 
 169   0.0000       0.240620         6.5476 
 170   0.0000       0.242094         6.5877 
 171   0.0000       0.253498         6.8980 
 172   0.0000       0.255381         6.9493 
 173   0.0000       0.269903         7.3444 
 174   0.0000       0.272724         7.4212 
 175   0.0000       0.277774         7.5586 
 176   0.0000       0.278110         7.5678 
 177   0.0000       0.280886         7.6433 
 178   0.0000       0.287004         7.8098 
 179   0.0000       0.293074         7.9750 
 180   0.0000       0.305260         8.3066 
 181   0.0000       0.309718         8.4278 
 182   0.0000       0.328932         8.9507 
 183   0.0000       0.329438         8.9645 
 184   0.0000       0.343101         9.3362 
 185   0.0000       0.343975         9.3600 
 186   0.0000       0.350175         9.5287 
 187   0.0000       0.352405         9.5894 
 188   0.0000       0.367654        10.0044 
 189   0.0000       0.372015        10.1231 
 190   0.0000       0.376120        10.2347 
 191   0.0000       0.393204        10.6996 
 192   0.0000       0.402298        10.9471 
 193   0.0000       0.407383        11.0855 
 194   0.0000       0.409504        11.1432 
 195   0.0000       0.411027        11.1846 
 196   0.0000       0.414491        11.2789 
 197   0.0000       0.416976        11.3465 
 198   0.0000       0.428886        11.6706 
 199   0.0000       0.431759        11.7488 
 200   0.0000       0.435632        11.8542 
 201   0.0000       0.436970        11.8906 
 202   0.0000       0.439086        11.9481 
 203   0.0000       0.441189        12.0054 
 204   0.0000       0.444801        12.1037 
 205   0.0000       0.445936        12.1345 
 206   0.0000       0.449952        12.2438 
 207   0.0000       0.454228        12.3602 
 208   0.0000       0.456743        12.4286 
 209   0.0000       0.458317        12.4715 
 210   0.0000       0.460093        12.5198 
 211   0.0000       0.461502        12.5581 
 212   0.0000       0.466819        12.7028 
 213   0.0000       0.475220        12.9314 
 214   0.0000       0.475915        12.9503 
 215   0.0000       0.481609        13.1052 
 216   0.0000       0.488562        13.2944 
 217   0.0000       0.491511        13.3747 
 218   0.0000       0.495706        13.4888 
 219   0.0000       0.496173        13.5016 
 220   0.0000       0.498975        13.5778 
 221   0.0000       0.501395        13.6437 
 222   0.0000       0.503866        13.7109 
 223   0.0000       0.506958        13.7950 
 224   0.0000       0.507904        13.8208 
 225   0.0000       0.509589        13.8666 
 226   0.0000       0.510034        13.8787 
 227   0.0000       0.510960        13.9039 
 228   0.0000       0.512499        13.9458 
 229   0.0000       0.514373        13.9968 
 230   0.0000       0.519022        14.1233 
 231   0.0000       0.523836        14.2543 
 232   0.0000       0.530868        14.4456 
 233   0.0000       0.534904        14.5555 
 234   0.0000       0.541229        14.7276 
 235   0.0000       0.546098        14.8601 
 236   0.0000       0.550625        14.9833 
 237   0.0000       0.553581        15.0637 
 238   0.0000       0.561224        15.2717 
 239   0.0000       0.576319        15.6825 
 240   0.0000       0.578479        15.7412 
 241   0.0000       0.580166        15.7871 
 242   0.0000       0.581596        15.8260 
 243   0.0000       0.593753        16.1568 
 244   0.0000       0.593913        16.1612 
 245   0.0000       0.597678        16.2636 
 246   0.0000       0.604095        16.4383 
 247   0.0000       0.612152        16.6575 
 248   0.0000       0.616468        16.7750 
 249   0.0000       0.617015        16.7898 
 250   0.0000       0.617253        16.7963 
 251   0.0000       0.620116        16.8742 
 252   0.0000       0.623863        16.9762 
 253   0.0000       0.628399        17.0996 
 254   0.0000       0.632960        17.2237 
 255   0.0000       0.635814        17.3014 
 256   0.0000       0.639778        17.4092 
 257   0.0000       0.641019        17.4430 
 258   0.0000       0.645328        17.5603 
 259   0.0000       0.647682        17.6243 
 260   0.0000       0.650630        17.7045 
 261   0.0000       0.653753        17.7895 
 262   0.0000       0.656181        17.8556 
 263   0.0000       0.657975        17.9044 
 264   0.0000       0.658607        17.9216 
 265   0.0000       0.660259        17.9666 
 266   0.0000       0.663960        18.0673 
 267   0.0000       0.665400        18.1064 
 268   0.0000       0.665915        18.1205 
 269   0.0000       0.669944        18.2301 
 270   0.0000       0.670683        18.2502 
 271   0.0000       0.672339        18.2953 
 272   0.0000       0.679721        18.4961 
 273   0.0000       0.685293        18.6478 
 274   0.0000       0.686459        18.6795 
 275   0.0000       0.690023        18.7765 
 276   0.0000       0.690815        18.7980 
 277   0.0000       0.691971        18.8295 
 278   0.0000       0.693376        18.8677 
 279   0.0000       0.698567        19.0090 
 280   0.0000       0.700252        19.0548 
 281   0.0000       0.703858        19.1529 
 282   0.0000       0.704687        19.1755 
 283   0.0000       0.708719        19.2852 
 284   0.0000       0.710567        19.3355 
 285   0.0000       0.715503        19.4698 
 286   0.0000       0.718043        19.5390 
 287   0.0000       0.720080        19.5944 
 288   0.0000       0.725704        19.7474 
 289   0.0000       0.727723        19.8024 
 290   0.0000       0.737884        20.0788 
 291   0.0000       0.738038        20.0830 
 292   0.0000       0.745611        20.2891 
 293   0.0000       0.759768        20.6743 
 294   0.0000       0.761281        20.7155 
 295   0.0000       0.774679        21.0801 
 296   0.0000       0.776449        21.1283 
 297   0.0000       0.784954        21.3597 
 298   0.0000       0.790994        21.5241 
 299   0.0000       0.796481        21.6733 
 300   0.0000       0.807017        21.9600 
 301   0.0000       0.809778        22.0352 
 302   0.0000       0.814562        22.1654 
 303   0.0000       0.818515        22.2729 
 304   0.0000       0.830074        22.5875 
 305   0.0000       0.834724        22.7140 
 306   0.0000       0.840771        22.8785 
 307   0.0000       0.841440        22.8967 
 308   0.0000       0.866373        23.5752 
 309   0.0000       0.868191        23.6247 
 310   0.0000       0.878148        23.8956 
 311   0.0000       0.880880        23.9700 
 312   0.0000       0.883002        24.0277 
 313   0.0000       0.886614        24.1260 
 314   0.0000       0.896062        24.3831 
 315   0.0000       0.900168        24.4948 
 316   0.0000       0.907737        24.7008 
 317   0.0000       0.911839        24.8124 
 318   0.0000       0.912042        24.8179 
 319   0.0000       0.922150        25.0930 
 320   0.0000       0.930446        25.3187 
 321   0.0000       0.934106        25.4183 
 322   0.0000       0.934838        25.4382 
 323   0.0000       0.945458        25.7272 
 324   0.0000       0.957434        26.0531 
 325   0.0000       0.964233        26.2381 
 326   0.0000       0.969449        26.3800 
 327   0.0000       0.970010        26.3953 
 328   0.0000       0.975080        26.5333 
 329   0.0000       0.980632        26.6843 
 330   0.0000       0.984307        26.7843 
 331   0.0000       0.989581        26.9279 
 332   0.0000       0.993797        27.0426 
 333   0.0000       0.995131        27.0789 
 334   0.0000       0.996049        27.1039 
 335   0.0000       1.000544        27.2262 
 336   0.0000       1.006567        27.3901 
 337   0.0000       1.010651        27.5012 
 338   0.0000       1.018331        27.7102 
 339   0.0000       1.021041        27.7839 
 340   0.0000       1.029174        28.0052 
 341   0.0000       1.029850        28.0237 
 342   0.0000       1.038068        28.2473 
 343   0.0000       1.045214        28.4417 
 344   0.0000       1.045998        28.4630 
 345   0.0000       1.046755        28.4837 
 346   0.0000       1.050972        28.5984 
 347   0.0000       1.056850        28.7583 
 348   0.0000       1.060725        28.8638 
 349   0.0000       1.065105        28.9830 
 350   0.0000       1.078936        29.3593 
 351   0.0000       1.081882        29.4395 
 352   0.0000       1.085299        29.5325 
 353   0.0000       1.088286        29.6138 
 354   0.0000       1.095645        29.8140 
 355   0.0000       1.103421        30.0256 
 356   0.0000       1.108604        30.1667 
 357   0.0000       1.116454        30.3803 
 358   0.0000       1.128587        30.7104 
 359   0.0000       1.136052        30.9135 
 360   0.0000       1.138388        30.9771 
 361   0.0000       1.152946        31.3733 
 362   0.0000       1.153168        31.3793 
 363   0.0000       1.163593        31.6630 
 364   0.0000       1.174543        31.9609 
 365   0.0000       1.182162        32.1683 
 366   0.0000       1.195494        32.5310 
 367   0.0000       1.203477        32.7483 
 368   0.0000       1.207096        32.8467 
 369   0.0000       1.210906        32.9504 
 370   0.0000       1.215038        33.0629 
 371   0.0000       1.218016        33.1439 
 372   0.0000       1.222791        33.2738 
 373   0.0000       1.224670        33.3250 
 374   0.0000       1.229310        33.4512 
 375   0.0000       1.250380        34.0246 
 376   0.0000       1.259300        34.2673 
 377   0.0000       1.261788        34.3350 
 378   0.0000       1.276563        34.7370 
 379   0.0000       1.279401        34.8143 
 380   0.0000       1.292985        35.1839 
 381   0.0000       1.294084        35.2138 
 382   0.0000       1.297670        35.3114 
 383   0.0000       1.301167        35.4066 
 384   0.0000       1.310142        35.6508 
 385   0.0000       1.315580        35.7988 
 386   0.0000       1.330181        36.1961 
 387   0.0000       1.333564        36.2881 
 388   0.0000       1.337985        36.4084 
 389   0.0000       1.346996        36.6536 
 390   0.0000       1.349296        36.7162 
 391   0.0000       1.372831        37.3566 
 392   0.0000       1.374065        37.3902 
 393   0.0000       1.379464        37.5371 
 394   0.0000       1.379742        37.5447 
 395   0.0000       1.389687        37.8153 
 396   0.0000       1.397093        38.0168 
 397   0.0000       1.398116        38.0447 
 398   0.0000       1.405169        38.2366 
 399   0.0000       1.411738        38.4153 
 400   0.0000       1.418481        38.5988 
 401   0.0000       1.423306        38.7301 
 402   0.0000       1.423692        38.7406 
 403   0.0000       1.424817        38.7712 
 404   0.0000       1.427088        38.8330 
 405   0.0000       1.429016        38.8855 
 406   0.0000       1.439527        39.1715 
 407   0.0000       1.445548        39.3354 
 408   0.0000       1.456998        39.6469 
 409   0.0000       1.459867        39.7250 
 410   0.0000       1.473759        40.1030 
 411   0.0000       1.474030        40.1104 
 412   0.0000       1.479325        40.2545 
 413   0.0000       1.483358        40.3642 
 414   0.0000       1.485240        40.4154 
 415   0.0000       1.486914        40.4610 
 416   0.0000       1.488360        40.5003 
 417   0.0000       1.491612        40.5888 
 418   0.0000       1.492173        40.6041 
 419   0.0000       1.493848        40.6497 
 420   0.0000       1.505166        40.9576 
 421   0.0000       1.515430        41.2369 
 422   0.0000       1.515780        41.2465 
 423   0.0000       1.522515        41.4297 
 424   0.0000       1.529635        41.6235 
 425   0.0000       1.536347        41.8061 
 426   0.0000       1.547045        42.0972 
 427   0.0000       1.568900        42.6919 
 428   0.0000       1.577022        42.9130 
 429   0.0000       1.577740        42.9325 
 430   0.0000       1.581235        43.0276 
 431   0.0000       1.583999        43.1028 
 432   0.0000       1.588541        43.2264 
 433   0.0000       1.592121        43.3238 
 434   0.0000       1.595468        43.4149 
 435   0.0000       1.595943        43.4278 
 436   0.0000       1.604041        43.6482 
 437   0.0000       1.607452        43.7410 
 438   0.0000       1.612321        43.8735 
 439   0.0000       1.614057        43.9207 
 440   0.0000       1.614174        43.9239 
 441   0.0000       1.622645        44.1544 
 442   0.0000       1.625669        44.2367 
 443   0.0000       1.626849        44.2688 
 444   0.0000       1.628882        44.3241 
 445   0.0000       1.634209        44.4691 
 446   0.0000       1.642460        44.6936 
 447   0.0000       1.645720        44.7823 
 448   0.0000       1.646330        44.7989 
 449   0.0000       1.651664        44.9441 
 450   0.0000       1.651785        44.9473 
 451   0.0000       1.655234        45.0412 
 452   0.0000       1.660704        45.1901 
 453   0.0000       1.669400        45.4267 
 454   0.0000       1.671909        45.4949 
 455   0.0000       1.676451        45.6186 
 456   0.0000       1.680641        45.7326 
 457   0.0000       1.681970        45.7687 
 458   0.0000       1.683515        45.8108 
 459   0.0000       1.684655        45.8418 
 460   0.0000       1.688270        45.9402 
 461   0.0000       1.692318        46.0503 
 462   0.0000       1.697914        46.2026 
 463   0.0000       1.699392        46.2428 
 464   0.0000       1.701500        46.3002 
 465   0.0000       1.703086        46.3433 
 466   0.0000       1.712682        46.6045 
 467   0.0000       1.715703        46.6867 
 468   0.0000       1.727198        46.9994 
 469   0.0000       1.730519        47.0898 
 470   0.0000       1.736343        47.2483 
 471   0.0000       1.739622        47.3375 
 472   0.0000       1.752953        47.7003 
 473   0.0000       1.761165        47.9237 
 474   0.0000       1.762342        47.9558 
 475   0.0000       1.763307        47.9820 
 476   0.0000       1.769324        48.1458 
 477   0.0000       1.769917        48.1619 
 478   0.0000       1.775750        48.3206 
 479   0.0000       1.777400        48.3655 
 480   0.0000       1.777887        48.3788 
 481   0.0000       1.784596        48.5613 
 482   0.0000       1.789744        48.7014 
 483   0.0000       1.793371        48.8001 
 484   0.0000       1.796950        48.8975 
 485   0.0000       1.797444        48.9109 
 486   0.0000       1.807657        49.1888 
 487   0.0000       1.809724        49.2451 
 488   0.0000       1.813897        49.3587 
 489   0.0000       1.821339        49.5612 
 490   0.0000       1.827215        49.7211 
 491   0.0000       1.830013        49.7972 
 492   0.0000       1.830109        49.7998 
 493   0.0000       1.833426        49.8901 
 494   0.0000       1.838898        50.0389 
 495   0.0000       1.846811        50.2543 
 496   0.0000       1.851017        50.3687 
 497   0.0000       1.856601        50.5207 
 498   0.0000       1.866554        50.7915 
 499   0.0000       1.883811        51.2611 
 500   0.0000       1.887340        51.3571 
 501   0.0000       1.899291        51.6823 
 502   0.0000       1.906917        51.8899 
 503   0.0000       1.915492        52.1232 
 504   0.0000       1.917782        52.1855 
 505   0.0000       1.919392        52.2293 
 506   0.0000       1.920744        52.2661 
 507   0.0000       1.927152        52.4405 
 508   0.0000       1.932050        52.5738 
 509   0.0000       1.932942        52.5980 
 510   0.0000       1.946697        52.9723 
 511   0.0000       1.948903        53.0323 
 512   0.0000       1.954799        53.1928 
 513   0.0000       1.961375        53.3717 
 514   0.0000       1.969708        53.5985 
 515   0.0000       1.971033        53.6345 
 516   0.0000       1.973911        53.7128 
 517   0.0000       1.988911        54.1210 
 518   0.0000       1.996832        54.3366 
 519   0.0000       2.001298        54.4581 
 520   0.0000       2.013016        54.7769 
 521   0.0000       2.027800        55.1793 
 522   0.0000       2.032125        55.2969 
 523   0.0000       2.034016        55.3484 
 524   0.0000       2.045010        55.6475 
 525   0.0000       2.045211        55.6530 
 526   0.0000       2.055280        55.9270 
 527   0.0000       2.070573        56.3431 
 528   0.0000       2.078775        56.5663 
 529   0.0000       2.080860        56.6231 
 530   0.0000       2.089424        56.8561 
 531   0.0000       2.103940        57.2511 
 532   0.0000       2.122212        57.7483 
[...]

 -----------------------------------------------------------
 Nucleus  56H : A:ISTP=    1 I=  0.5 P=533.5514 MHz/au**3
                Q:ISTP=    2 I=  1.0 Q=  0.0029 barn     
 -----------------------------------------------------------
 Solving for nuclear perturbation:
Forming RHS of the CP-SCF equations         ... 
Calc. nucleus orbit integrals (SHARK)       ... done

------------------------------------------------------------------------------
                           ORCA CP-SCF CALCULATION
------------------------------------------------------------------------------

Input orbitals are from        ... cc-pVDZ.gbw
Input Perturbation             ... cc-pVDZ.pin.tmp
Wavefunction output            ... cc-pVDZ.pout.tmp
Perturbation mode              ... Imaginary perturbation
Solver                         ... POPLE
Max. number of iterations      ... 64
Convergence tolerance          ... 1.000e-03
Integral handling              ... Direct
DFT GridXC                     ... 1
COSX GridX                     ... 1
COSX IntAccX                   ... 3.067
COSX Algorithm                 ... Auto
Number of perturbations        ... 3
Number of operators            ... 2
Orbital ranges used for CP-SCF:
 Operator 0:  Orbitals   0...116  to 117...620
 Operator 1:  Orbitals   0...115  to 116...620
Variables per perturbation     ... 117548
DFT calculation                         ... on
XC functional terms                     ... off
Hybrid DFT                              ... on
   Exchange mixing (SCF)                ...  0.200
   Exchange mixing (CP-SCF)             ...  0.200
   GGA exch. scaling(SCF)               ...  0.720
   GGA exch. scaling (CP-SCF)           ...  0.720
   GGA corr. scaling (SCF)              ...  0.810
   GGA corr. scaling (CP-SCF)           ...  0.810

CP-SCF GRID
-----------

General Integration Accuracy     IntAcc      ... 3.467
Radial Grid Type                 RadialGrid  ... OptM3 with GC (2021)
Angular Grid (max. ang.)         AngularGrid ... 1 (Lebedev-50)
Angular grid pruning method      GridPruning ... 4 (adaptive)
Weight generation scheme         WeightScheme... Becke
Basis function cutoff            BFCut       ... 1.0000e-10
Integration weight cutoff        WCut        ... 1.0000e-14
Angular grids for H and He will be reduced by one unit
Partially contracted basis set               ... off
Rotationally invariant grid construction     ... off

Total number of grid points                  ...    42736
Total number of batches                      ...      693
Average number of points per batch           ...       61
Average number of grid points per atom       ...      678

CP-SCF GRIDX
------------

General Integration Accuracy     IntAcc      ... 3.067
Radial Grid Type                 RadialGrid  ... OptM3 with GC (2021)
Angular Grid (max. ang.)         AngularGrid ... 1 (Lebedev-50)
Angular grid pruning method      GridPruning ... 4 (adaptive)
Weight generation scheme         WeightScheme... Becke
Basis function cutoff            BFCut       ... 1.0000e-10
Integration weight cutoff        WCut        ... 1.0000e-14
Angular grids for H and He will be reduced by one unit
Partially contracted basis set               ... on
Rotationally invariant grid construction     ... off

Total number of grid points                  ...    19910
Total number of batches                      ...      351
Average number of points per batch           ...       56
Average number of grid points per atom       ...      316

Memory available               ... 821.9 MB
Memory needed per perturbation ...  24.3 MB
Perturbations treated per batch... 3
Number of batches              ... 1
     CP-SCF ITERATION   0:   4.7044e-02 (   3.3 sec   0/  3 done)
     CP-SCF ITERATION   1:   2.2187e-03 (   3.1 sec   0/  3 done)
     CP-SCF ITERATION   2:   1.4975e-04 (   3.1 sec   3/  3 done)
                    *** THE CP-SCF HAS CONVERGED ***

Forming final perturbed densities           ... done
Transforming perturbed density to AO basis  ... done

 Raw HFC matrix (all values in MHz): 
 -----------------------------------
                -1.0928               0.5902               0.0014
                 0.5899              -1.5661               0.0021
                 0.0014               0.0021              -2.5869

 A(FC)          -1.7490              -1.7490              -1.7490
 A(SD)           1.0546              -0.2169              -0.8377
 A(ORB+DIA)      0.0007               0.0008              -0.0002    A(PC) =   0.0004
 A(ORB)          0.0006               0.0006               0.0000    A(PC) =   0.0004
 A(DIA)          0.0001               0.0001              -0.0002    A(PC) =   0.0000
             ----------           ----------           ----------
 A(Tot)         -0.6937              -1.9652              -2.5869    A(iso)=   -1.7486
 Orientation: 
  X           0.8283061            0.5602759            0.0001814
  Y           0.5602745           -0.8283047            0.0019218
  Z           0.0012270           -0.0014903           -0.9999981

Notes:  (1) The A matrix conforms to the "SAI" spin Hamiltonian convention.
        (2) Tensor is right-handed.

 -----------------------------------------------------------
 Nucleus  57H : A:ISTP=    1 I=  0.5 P=533.5514 MHz/au**3
                Q:ISTP=    2 I=  1.0 Q=  0.0029 barn     
 -----------------------------------------------------------
 Solving for nuclear perturbation:
Forming RHS of the CP-SCF equations         ... 
Calc. nucleus orbit integrals (SHARK)       ... done

------------------------------------------------------------------------------
                           ORCA CP-SCF CALCULATION
------------------------------------------------------------------------------

Input orbitals are from        ... cc-pVDZ.gbw
Input Perturbation             ... cc-pVDZ.pin.tmp
Wavefunction output            ... cc-pVDZ.pout.tmp
Perturbation mode              ... Imaginary perturbation
Solver                         ... POPLE
Max. number of iterations      ... 64
Convergence tolerance          ... 1.000e-03
Integral handling              ... Direct
DFT GridXC                     ... 1
COSX GridX                     ... 1
COSX IntAccX                   ... 3.067
COSX Algorithm                 ... Auto
Number of perturbations        ... 3
Number of operators            ... 2
Orbital ranges used for CP-SCF:
 Operator 0:  Orbitals   0...116  to 117...620
 Operator 1:  Orbitals   0...115  to 116...620
Variables per perturbation     ... 117548
DFT calculation                         ... on
XC functional terms                     ... off
Hybrid DFT                              ... on
   Exchange mixing (SCF)                ...  0.200
   Exchange mixing (CP-SCF)             ...  0.200
   GGA exch. scaling(SCF)               ...  0.720
   GGA exch. scaling (CP-SCF)           ...  0.720
   GGA corr. scaling (SCF)              ...  0.810
   GGA corr. scaling (CP-SCF)           ...  0.810

CP-SCF GRID
-----------

General Integration Accuracy     IntAcc      ... 3.467
Radial Grid Type                 RadialGrid  ... OptM3 with GC (2021)
Angular Grid (max. ang.)         AngularGrid ... 1 (Lebedev-50)
Angular grid pruning method      GridPruning ... 4 (adaptive)
Weight generation scheme         WeightScheme... Becke
Basis function cutoff            BFCut       ... 1.0000e-10
Integration weight cutoff        WCut        ... 1.0000e-14
Angular grids for H and He will be reduced by one unit
Partially contracted basis set               ... off
Rotationally invariant grid construction     ... off

Total number of grid points                  ...    42736
Total number of batches                      ...      693
Average number of points per batch           ...       61
Average number of grid points per atom       ...      678

CP-SCF GRIDX
------------

General Integration Accuracy     IntAcc      ... 3.067
Radial Grid Type                 RadialGrid  ... OptM3 with GC (2021)
Angular Grid (max. ang.)         AngularGrid ... 1 (Lebedev-50)
Angular grid pruning method      GridPruning ... 4 (adaptive)
Weight generation scheme         WeightScheme... Becke
Basis function cutoff            BFCut       ... 1.0000e-10
Integration weight cutoff        WCut        ... 1.0000e-14
Angular grids for H and He will be reduced by one unit
Partially contracted basis set               ... on
Rotationally invariant grid construction     ... off

Total number of grid points                  ...    19910
Total number of batches                      ...      351
Average number of points per batch           ...       56
Average number of grid points per atom       ...      316

Memory available               ... 821.1 MB
Memory needed per perturbation ...  24.3 MB
Perturbations treated per batch... 3
Number of batches              ... 1
     CP-SCF ITERATION   0:   4.6842e-02 (   3.1 sec   0/  3 done)
     CP-SCF ITERATION   1:   2.1005e-03 (   3.2 sec   0/  3 done)
     CP-SCF ITERATION   2:   1.3872e-04 (   3.4 sec   3/  3 done)
                    *** THE CP-SCF HAS CONVERGED ***

Forming final perturbed densities           ... done
Transforming perturbed density to AO basis  ... done

 Raw HFC matrix (all values in MHz): 
 -----------------------------------
                -1.9368              -0.2440              -0.0003
                -0.2433              -1.0298               0.0028
                -0.0003               0.0028              -2.2752

 A(FC)          -1.7476              -1.7476              -1.7476
 A(SD)           0.7790              -0.2514              -0.5275
 A(ORB+DIA)      0.0002               0.0009              -0.0001    A(PC) =   0.0003
 A(ORB)          0.0000               0.0008               0.0000    A(PC) =   0.0003
 A(DIA)          0.0001               0.0001              -0.0001    A(PC) =   0.0001
             ----------           ----------           ----------
 A(Tot)         -0.9685              -1.9981              -2.2752    A(iso)=   -1.7472
 Orientation: 
  X          -0.2443052            0.9696981            0.0007558
  Y           0.9696960            0.2443028            0.0024084
  Z           0.0021508            0.0013213           -0.9999968

Notes:  (1) The A matrix conforms to the "SAI" spin Hamiltonian convention.
        (2) Tensor is right-handed.

 -----------------------------------------------------------
 Nucleus  58H : A:ISTP=    1 I=  0.5 P=533.5514 MHz/au**3
                Q:ISTP=    2 I=  1.0 Q=  0.0029 barn     
 -----------------------------------------------------------
 Solving for nuclear perturbation:
Forming RHS of the CP-SCF equations         ... 
Calc. nucleus orbit integrals (SHARK)       ... done

------------------------------------------------------------------------------
                           ORCA CP-SCF CALCULATION
------------------------------------------------------------------------------

Input orbitals are from        ... cc-pVDZ.gbw
Input Perturbation             ... cc-pVDZ.pin.tmp
Wavefunction output            ... cc-pVDZ.pout.tmp
Perturbation mode              ... Imaginary perturbation
Solver                         ... POPLE
Max. number of iterations      ... 64
Convergence tolerance          ... 1.000e-03
Integral handling              ... Direct
DFT GridXC                     ... 1
COSX GridX                     ... 1
COSX IntAccX                   ... 3.067
COSX Algorithm                 ... Auto
Number of perturbations        ... 3
Number of operators            ... 2
Orbital ranges used for CP-SCF:
 Operator 0:  Orbitals   0...116  to 117...620
 Operator 1:  Orbitals   0...115  to 116...620
Variables per perturbation     ... 117548
DFT calculation                         ... on
XC functional terms                     ... off
Hybrid DFT                              ... on
   Exchange mixing (SCF)                ...  0.200
   Exchange mixing (CP-SCF)             ...  0.200
   GGA exch. scaling(SCF)               ...  0.720
   GGA exch. scaling (CP-SCF)           ...  0.720
   GGA corr. scaling (SCF)              ...  0.810
   GGA corr. scaling (CP-SCF)           ...  0.810

CP-SCF GRID
-----------

General Integration Accuracy     IntAcc      ... 3.467
Radial Grid Type                 RadialGrid  ... OptM3 with GC (2021)
Angular Grid (max. ang.)         AngularGrid ... 1 (Lebedev-50)
Angular grid pruning method      GridPruning ... 4 (adaptive)
Weight generation scheme         WeightScheme... Becke
Basis function cutoff            BFCut       ... 1.0000e-10
Integration weight cutoff        WCut        ... 1.0000e-14
Angular grids for H and He will be reduced by one unit
Partially contracted basis set               ... off
Rotationally invariant grid construction     ... off

Total number of grid points                  ...    42736
Total number of batches                      ...      693
Average number of points per batch           ...       61
Average number of grid points per atom       ...      678

CP-SCF GRIDX
------------

General Integration Accuracy     IntAcc      ... 3.067
Radial Grid Type                 RadialGrid  ... OptM3 with GC (2021)
Angular Grid (max. ang.)         AngularGrid ... 1 (Lebedev-50)
Angular grid pruning method      GridPruning ... 4 (adaptive)
Weight generation scheme         WeightScheme... Becke
Basis function cutoff            BFCut       ... 1.0000e-10
Integration weight cutoff        WCut        ... 1.0000e-14
Angular grids for H and He will be reduced by one unit
Partially contracted basis set               ... on
Rotationally invariant grid construction     ... off

Total number of grid points                  ...    19910
Total number of batches                      ...      351
Average number of points per batch           ...       56
Average number of grid points per atom       ...      316

Memory available               ... 820.4 MB
Memory needed per perturbation ...  24.3 MB
Perturbations treated per batch... 3
Number of batches              ... 1
     CP-SCF ITERATION   0:   4.5312e-02 (   3.3 sec   0/  3 done)
     CP-SCF ITERATION   1:   1.9637e-03 (   3.3 sec   0/  3 done)
     CP-SCF ITERATION   2:   1.2595e-04 (   3.2 sec   3/  3 done)
                    *** THE CP-SCF HAS CONVERGED ***

Forming final perturbed densities           ... done
Transforming perturbed density to AO basis  ... done

 Raw HFC matrix (all values in MHz): 
 -----------------------------------
                 1.5335               0.3195               0.0002
                 0.3195               0.5883               0.0001
                 0.0002               0.0001               0.4556

 A(FC)           0.8592               0.8592               0.8592
 A(SD)          -0.4036              -0.3688               0.7724
 A(ORB+DIA)     -0.0000               0.0001              -0.0002    A(PC) =  -0.0001
 A(ORB)         -0.0000               0.0001              -0.0003    A(PC) =  -0.0001
 A(DIA)          0.0000              -0.0000               0.0000    A(PC) =   0.0000
             ----------           ----------           ----------
 A(Tot)          0.4556               0.4904               1.6313    A(iso)=    0.8591
 Orientation: 
  X           0.0000142           -0.2928625           -0.9561546
  Y          -0.0007428            0.9561543           -0.2928624
  Z           0.9999997            0.0007143           -0.0002040

Notes:  (1) The A matrix conforms to the "SAI" spin Hamiltonian convention.
        (2) Tensor is right-handed.


--------------------------------------------------------------------------------
----------------------------------------------------------------------------
                           ORCA EULER ANGLE PROGRAM
----------------------------------------------------------------------------

Only g-tensor available        -->  using g-tensor as reference tensor

Reference tensor               ...  g

g-tensor ordering              ...  |g_min> --> |gx>
                                    |g_mid> --> |gy>
                                    |g_max> --> |gz>

A- and EFG-tensor ordering     ...  the axes |Ax>, |Qx>, |Ay>, etc. are assigned
                                    such that the Euler rotation is minimal. You
                                    can find the respective eigenvalues as Ax,
                                    EFGx, Ay, etc. in the tables below.
                                    The relation of |Ax>, |Ay>,  etc. to Amin, Amid, etc.
                                    (as printed in the ORCA EPR/NMR CALCULATION Output)
                                    is obtained in the detailed printout.

Euler rotation around          ...  z - y - z
   First rotation              -->  by alpha around z
   Second rotation             -->  by beta around y'
   Third rotation              -->  by gamma around z''
   Positive / Negative angle   -->  clockwise / counterclockwise rotation

Plot EFG-tensors                    (-)
Plot HFC-tensors                    (-)
Detailed Printout                   (-)

-------------------------------------------------------------------------
          Euler rotation of hyperfine tensor to g-tensor
-------------------------------------------------------------------------

-------------------------------------------------------------------
 Atom  |   Alpha    Beta    Gamma   |   Ax       Ay       Az 
       |          [degrees]         |           [MHz]         
-------------------------------------------------------------------
  9H       90.0     23.4    -90.0     -16.06    -7.03   -19.59
 10H       90.0     26.6    -90.0       4.00     4.63     9.31
 12H      -90.0     26.6     90.0     -45.55   -17.02   -70.21
 14H       77.6     22.8    -57.6      56.23    65.66    57.53
 15H      102.2     22.8   -122.3      56.18    65.61    57.49
 17H       12.6     15.1     18.7      -3.13    -2.97     3.12
 18H      167.3     15.0    161.3      -3.13    -2.97     3.12
 20H     -117.6     36.4     73.1      -0.10     0.02     2.21
 21H      -62.3     36.4    106.9      -0.10     0.03     2.21
 23H       91.4     24.7   -135.4      19.79    20.35    23.40
 24H       88.6     24.7    -44.4      19.85    20.41    23.46
 26H      -78.5     41.5     71.2      -0.96    -0.84     0.96
 27H     -101.3     41.5    108.9      -0.96    -0.84     0.96
 29H      -98.5     12.4    134.2      -0.10    -0.15     0.79
 30H      -81.7     12.4     46.0      -0.10    -0.15     0.79
 32H     -102.2     27.8    106.0      -0.12    -0.10     0.37
 33H      -77.8     27.8     74.1      -0.12    -0.10     0.37
 35H      -90.1     18.9     89.9      -0.78    -0.80     0.75
 36H      -89.5     17.3     90.1      -0.13    -0.13     0.24
 43H      -90.3     25.6     90.3       0.44     0.24     0.66
 44H       90.3     19.5    -90.2      -0.32    -0.51    -0.14
 45H      -90.3     14.3     90.4       0.52     1.42     0.11
 46H       90.1     42.0    -90.1       0.57     0.12     1.36
 47H       91.6      6.9    -91.5      -0.34    -0.18    -0.46
 54H      -90.2     23.6     90.2      -1.36    -0.42    -1.94
 55H      -90.1     36.3     90.1       0.51     1.40     0.67
 56H       90.6      7.1    -90.6      -2.59    -0.69    -1.97
 57H      -90.3     12.8     90.2      -2.28    -2.00    -0.97
 58H      -90.7     10.0     90.8       0.46     1.63     0.49
-------------------------------------------------------------------


Maximum memory used throughout the entire EPRNMR-calculation: 321.0 MB

Timings for individual modules:

Sum of individual times         ...    13586.700 sec (= 226.445 min)
GTO integral calculation        ...        7.876 sec (=   0.131 min)   0.1 %
Spin-Orbit-Coupling Matrices    ...       15.610 sec (=   0.260 min)   0.1 %
SCF iterations                  ...       47.904 sec (=   0.798 min)   0.4 %
EPR/NMR calculation             ...    13515.310 sec (= 225.255 min)  99.5 %
                             ****ORCA TERMINATED NORMALLY****
TOTAL RUN TIME: 0 days 3 hours 46 minutes 31 seconds 788 msec
