
                                 *****************
                                 * O   R   C   A *
                                 *****************

                                            #,                                       
                                            ###                                      
                                            ####                                     
                                            #####                                    
                                            ######                                   
                                           ########,                                 
                                     ,,################,,,,,                         
                               ,,#################################,,                 
                          ,,##########################################,,             
                       ,#########################################, ''#####,          
                    ,#############################################,,   '####,        
                  ,##################################################,,,,####,       
                ,###########''''           ''''###############################       
              ,#####''   ,,,,##########,,,,          '''####'''          '####       
            ,##' ,,,,###########################,,,                        '##       
           ' ,,###''''                  '''############,,,                           
         ,,##''                                '''############,,,,        ,,,,,,###''
      ,#''                                            '''#######################'''  
     '                                                          ''''####''''         
             ,#######,   #######,   ,#######,      ##                                
            ,#'     '#,  ##    ##  ,#'     '#,    #''#        ######   ,####,        
            ##       ##  ##   ,#'  ##            #'  '#       #        #'  '#        
            ##       ##  #######   ##           ,######,      #####,   #    #        
            '#,     ,#'  ##    ##  '#,     ,#' ,#      #,         ##   #,  ,#        
             '#######'   ##     ##  '#######'  #'      '#     #####' # '####'        



                  #######################################################
                  #                        -***-                        #
                  #          Department of theory and spectroscopy      #
                  #    Directorship and core code : Frank Neese         #
                  #        Max Planck Institute fuer Kohlenforschung    #
                  #                Kaiser Wilhelm Platz 1               #
                  #                 D-45470 Muelheim/Ruhr               #
                  #                      Germany                        #
                  #                                                     #
                  #                  All rights reserved                #
                  #                        -***-                        #
                  #######################################################


                         Program Version 5.0.4 -  RELEASE  -


 With contributions from (in alphabetic order):
   Daniel Aravena         : Magnetic Suceptibility
   Michael Atanasov       : Ab Initio Ligand Field Theory (pilot matlab implementation)
   Alexander A. Auer      : GIAO ZORA, VPT2 properties, NMR spectrum
   Ute Becker             : Parallelization
   Giovanni Bistoni       : ED, misc. LED, open-shell LED, HFLD
   Martin Brehm           : Molecular dynamics
   Dmytro Bykov           : SCF Hessian
   Vijay G. Chilkuri      : MRCI spin determinant printing, contributions to CSF-ICE
   Dipayan Datta          : RHF DLPNO-CCSD density
   Achintya Kumar Dutta   : EOM-CC, STEOM-CC
   Dmitry Ganyushin       : Spin-Orbit,Spin-Spin,Magnetic field MRCI
   Miquel Garcia          : C-PCM and meta-GGA Hessian, CC/C-PCM, Gaussian charge scheme
   Yang Guo               : DLPNO-NEVPT2, F12-NEVPT2, CIM, IAO-localization
   Andreas Hansen         : Spin unrestricted coupled pair/coupled cluster methods
   Benjamin Helmich-Paris : MC-RPA, TRAH-SCF, COSX integrals
   Lee Huntington         : MR-EOM, pCC
   Robert Izsak           : Overlap fitted RIJCOSX, COSX-SCS-MP3, EOM
   Marcus Kettner         : VPT2
   Christian Kollmar      : KDIIS, OOCD, Brueckner-CCSD(T), CCSD density, CASPT2, CASPT2-K
   Simone Kossmann        : Meta GGA functionals, TD-DFT gradient, OOMP2, MP2 Hessian
   Martin Krupicka        : Initial AUTO-CI
   Lucas Lang             : DCDCAS
   Marvin Lechner         : AUTO-CI (C++ implementation), FIC-MRCC
   Dagmar Lenk            : GEPOL surface, SMD
   Dimitrios Liakos       : Extrapolation schemes; Compound Job, initial MDCI parallelization
   Dimitrios Manganas     : Further ROCIS development; embedding schemes
   Dimitrios Pantazis     : SARC Basis sets
   Anastasios Papadopoulos: AUTO-CI, single reference methods and gradients
   Taras Petrenko         : DFT Hessian,TD-DFT gradient, ASA, ECA, R-Raman, ABS, FL, XAS/XES, NRVS
   Peter Pinski           : DLPNO-MP2, DLPNO-MP2 Gradient
   Christoph Reimann      : Effective Core Potentials
   Marius Retegan         : Local ZFS, SOC
   Christoph Riplinger    : Optimizer, TS searches, QM/MM, DLPNO-CCSD(T), (RO)-DLPNO pert. Triples
   Tobias Risthaus        : Range-separated hybrids, TD-DFT gradient, RPA, STAB
   Michael Roemelt        : Original ROCIS implementation
   Masaaki Saitow         : Open-shell DLPNO-CCSD energy and density
   Barbara Sandhoefer     : DKH picture change effects
   Avijit Sen             : IP-ROCIS
   Kantharuban Sivalingam : CASSCF convergence, NEVPT2, FIC-MRCI
   Bernardo de Souza      : ESD, SOC TD-DFT
   Georgi Stoychev        : AutoAux, RI-MP2 NMR, DLPNO-MP2 response
   Willem Van den Heuvel  : Paramagnetic NMR
   Boris Wezisla          : Elementary symmetry handling
   Frank Wennmohs         : Technical directorship


 We gratefully acknowledge several colleagues who have allowed us to
 interface, adapt or use parts of their codes:
   Stefan Grimme, W. Hujo, H. Kruse, P. Pracht,  : VdW corrections, initial TS optimization,
                  C. Bannwarth, S. Ehlert          DFT functionals, gCP, sTDA/sTD-DF
   Ed Valeev, F. Pavosevic, A. Kumar             : LibInt (2-el integral package), F12 methods
   Garnet Chan, S. Sharma, J. Yang, R. Olivares  : DMRG
   Ulf Ekstrom                                   : XCFun DFT Library
   Mihaly Kallay                                 : mrcc  (arbitrary order and MRCC methods)
   Jiri Pittner, Ondrej Demel                    : Mk-CCSD
   Frank Weinhold                                : gennbo (NPA and NBO analysis)
   Christopher J. Cramer and Donald G. Truhlar   : smd solvation model
   Lars Goerigk                                  : TD-DFT with DH, B97 family of functionals
   V. Asgeirsson, H. Jonsson                     : NEB implementation
   FAccTs GmbH                                   : IRC, NEB, NEB-TS, DLPNO-Multilevel, CI-OPT
                                                   MM, QMMM, 2- and 3-layer-ONIOM, Crystal-QMMM,
                                                   LR-CPCM, SF, NACMEs, symmetry and pop. for TD-DFT,
                                                   nearIR, NL-DFT gradient (VV10), updates on ESD,
                                                   ML-optimized integration grids
   S Lehtola, MJT Oliveira, MAL Marques          : LibXC Library
   Liviu Ungur et al                             : ANISO software


 Your calculation uses the libint2 library for the computation of 2-el integrals
 For citations please refer to: http://libint.valeyev.net

 Your ORCA version has been built with support for libXC version: 5.1.0
 For citations please refer to: https://tddft.org/programs/libxc/

 This ORCA versions uses:
   CBLAS   interface :  Fast vector & matrix operations
   LAPACKE interface :  Fast linear algebra routines
   SCALAPACK package :  Parallel linear algebra routines
   Shared memory     :  Shared parallel matrices
   BLAS/LAPACK       :  OpenBLAS 0.3.15  USE64BITINT DYNAMIC_ARCH NO_AFFINITY SkylakeX SINGLE_THREADED
        Core in use  :  SkylakeX
   Copyright (c) 2011-2014, The OpenBLAS Project




***************************************
The coordinates will be read from file: opt.xyz
***************************************


================================================================================

----- Orbital basis set information -----
Your calculation utilizes the basis: cc-pVDZ 
       H, B-Ne : Obtained from the ccRepo (grant-hill.group.shef.ac.uk/ccrepo) Feb. 2017
                 T. H. Dunning, Jr., J. Chem. Phys. 90, 1007 (1989)
            He : Obtained from the ccRepo (grant-hill.group.shef.ac.uk/ccrepo) Feb. 2017
                 D. E. Woon, T. H. Dunning, Jr., J. Chem. Phys. 100, 2975 (1994)
  Li-Be, Na-Mg : Obtained from the ccRepo (grant-hill.group.shef.ac.uk/ccrepo) Feb. 2017
                 B. P. Prascher, D. E. Woon, K. A. Peterson, T. H. Dunning, Jr., A. K. Wilson, Theor. Chem. Acc. 128, 69 (2011)
         Al-Ar : Obtained from the ccRepo (grant-hill.group.shef.ac.uk/ccrepo) Feb. 2017
                 D. E. Woon, T. H. Dunning, Jr., J. Chem. Phys. 98, 1358 (1993)
            Ca : Obtained from the Peterson Research Group Website (tyr0.chem.wsu.edu/~kipeters) Feb. 2017
                 J. Koput, K. A. Peterson, J. Phys. Chem. 106, 9595 (2002)
         Sc-Zn : Obtained from the ccRepo (grant-hill.group.shef.ac.uk/ccrepo) Feb. 2017
                 N. B. Balabanov, K. A. Peterson, J. Chem. Phys. 123, 064107 (2005)
                 N. B. Balabanov, K. A. Peterson, J. Chem. Phys. 125, 074110 (2006)
         Ga-Kr : Obtained from the ccRepo (grant-hill.group.shef.ac.uk/ccrepo) Feb. 2017
                 A. K. Wilson, D. E. Woon, K. A. Peterson, T. H. Dunning, Jr., J. Chem. Phys. 110, 7667 (1999)

----- AuxJ basis set information -----
Your calculation utilizes the AutoAux generation procedure.
  G. L. Stoychev, A. A. Auer, F. Neese, J. Chem. Theory Comput. 13, 554 (2017)

----- AuxC basis set information -----
Your calculation utilizes the AutoAux generation procedure.
  G. L. Stoychev, A. A. Auer, F. Neese, J. Chem. Theory Comput. 13, 554 (2017)

----- AuxJK basis set information -----
Your calculation utilizes the AutoAux generation procedure.
  G. L. Stoychev, A. A. Auer, F. Neese, J. Chem. Theory Comput. 13, 554 (2017)

================================================================================
                                        WARNINGS
                       Please study these warnings very carefully!
================================================================================


WARNING: your system is open-shell and RHF/RKS was chosen
  ===> : WILL SWITCH to UHF/UKS


INFO   : the flag for use of the SHARK integral package has been found!

================================================================================
                                       INPUT FILE
================================================================================
NAME = cc-pVDZ_i.inp
|  1> ! B3LYP cc-pVDZ AUTOAUX
|  2> %pal nprocs 16 end
|  3> *XYZFile 0 2 opt.xyz
|  4> %EPRNMR
|  5>         GTENSOR   TRUE
|  6>         NUCLEI    = ALL H {SHIFT, AISO, ADIP, AORB}
|  7>         ORI       GIAO
|  8> END
|  9> 
| 10>                          ****END OF INPUT****
================================================================================

                       ****************************
                       * Single Point Calculation *
                       ****************************

---------------------------------
CARTESIAN COORDINATES (ANGSTROEM)
---------------------------------
  C     12.367468   -0.026690   -0.004521
  C     11.143536   -0.068421   -0.003249
  C      5.470105   -0.000456   -0.000953
  C      9.724522   -0.088645   -0.002867
  C      8.990628   -1.335024   -0.006403
  C      7.570759   -1.236349   -0.005487
  C      6.897637   -0.011889   -0.001450
  C      7.634424    1.217416    0.002056
  C      9.026112    1.135702    0.001259
  H      6.974675   -2.149130   -0.008114
  H      9.619812    2.049654    0.003881
  C      9.646865   -2.583921   -0.010645
  H     10.739981   -2.573932   -0.011197
  C      8.960510   -3.917165   -0.014594
  H      8.287887   -4.000132    0.864048
  H      8.286468   -3.994223   -0.892681
  C      9.932017   -5.104805   -0.019413
  H     10.591664   -5.026394   -0.902868
  H     10.593459   -5.032110    0.863189
  C      9.223189   -6.460465   -0.023106
  H      8.579052   -6.573687   -0.912248
  H      8.580972   -6.579530    0.866660
  C      6.888617    2.535280    0.006628
  H      6.209492    2.550134   -0.866458
  H      6.212355    2.545704    0.882021
  C      7.733771    3.811741    0.008515
  H      8.398339    3.820953    0.891977
  H      8.396097    3.824967   -0.876584
  C      6.878227    5.084572    0.012531
  H      6.210709    5.076758   -0.869130
  H      6.212980    5.072748    0.895865
  C      7.710095    6.369491    0.014397
  H      8.360072    6.427193   -0.875761
  H      8.362497    6.423053    0.903036
  C      4.247577    0.004948    0.000113
  H      9.945336   -7.292652   -0.026626
  H      7.068970    7.265890    0.017359
  C      2.821946    0.006500    0.000494
  C      2.097893   -1.206838   -0.000235
  C      0.707780   -1.204952    0.000050
  C     -0.010741    0.009504    0.001091
  C      0.710352    1.222515    0.001864
  C      2.100373    1.221345    0.001582
  H     -3.729592    0.014614    0.001756
  H      0.163384    2.167010    0.002651
  H      2.643820   -2.151876   -0.001021
  H      2.647986    2.165427    0.002150
  H      0.158864   -2.148310   -0.000515
  C     13.789722    0.031477   -0.005118
  C     14.565302   -1.150711   -0.007168
  C     15.953740   -1.090712   -0.007603
  C     16.621353    0.152770   -0.006014
  C     15.849687    1.334610   -0.003972
  C     14.461312    1.275873   -0.003524
  H     20.336530    0.314151   -0.006977
  H     16.356949    2.301040   -0.002743
  H     14.060641   -2.118439   -0.008361
  H     13.874663    2.196192   -0.001939
  H     16.541337   -2.010509   -0.009127
  C     18.050568    0.214344   -0.006425
  C     19.265095    0.266906   -0.006700
  C     -1.441545    0.011220    0.001350
  C     -2.657087    0.013045    0.001570

----------------------------
CARTESIAN COORDINATES (A.U.)
----------------------------
  NO LB      ZA    FRAG     MASS         X           Y           Z
   0 C     6.0000    0    12.011   23.371127   -0.050437   -0.008544
   1 C     6.0000    0    12.011   21.058231   -0.129298   -0.006139
   2 C     6.0000    0    12.011   10.337001   -0.000863   -0.001801
   3 C     6.0000    0    12.011   18.376683   -0.167515   -0.005419
   4 C     6.0000    0    12.011   16.989825   -2.522829   -0.012100
   5 C     6.0000    0    12.011   14.306661   -2.336361   -0.010368
   6 C     6.0000    0    12.011   13.034644   -0.022466   -0.002740
   7 C     6.0000    0    12.011   14.426971    2.300582    0.003886
   8 C     6.0000    0    12.011   17.056879    2.146165    0.002380
   9 H     1.0000    0     1.008   13.180226   -4.061267   -0.015334
  10 H     1.0000    0     1.008   18.178810    3.873284    0.007333
  11 C     6.0000    0    12.011   18.229932   -4.882903   -0.020115
  12 H     1.0000    0     1.008   20.295623   -4.864027   -0.021159
  13 C     6.0000    0    12.011   16.932910   -7.402370   -0.027579
  14 H     1.0000    0     1.008   15.661837   -7.559153    1.632815
  15 H     1.0000    0     1.008   15.659155   -7.547987   -1.686923
  16 C     6.0000    0    12.011   18.768793   -9.646684   -0.036684
  17 H     1.0000    0     1.008   20.015344   -9.498508   -1.706173
  18 H     1.0000    0     1.008   20.018735   -9.509311    1.631190
  19 C     6.0000    0    12.011   17.429302  -12.208509   -0.043665
  20 H     1.0000    0     1.008   16.212060  -12.422469   -1.723899
  21 H     1.0000    0     1.008   16.215687  -12.433511    1.637751
  22 C     6.0000    0    12.011   13.017600    4.790985    0.012525
  23 H     1.0000    0     1.008   11.734239    4.819054   -1.637369
  24 H     1.0000    0     1.008   11.739649    4.810684    1.666779
  25 C     6.0000    0    12.011   14.614710    7.203147    0.016092
  26 H     1.0000    0     1.008   15.870560    7.220554    1.685593
  27 H     1.0000    0     1.008   15.866324    7.228139   -1.656504
  28 C     6.0000    0    12.011   12.997964    9.608448    0.023680
  29 H     1.0000    0     1.008   11.736539    9.593681   -1.642418
  30 H     1.0000    0     1.008   11.740831    9.586104    1.692939
  31 C     6.0000    0    12.011   14.569969   12.036594    0.027206
  32 H     1.0000    0     1.008   15.798247   12.145635   -1.654948
  33 H     1.0000    0     1.008   15.802829   12.137812    1.706491
  34 C     6.0000    0    12.011    8.026758    0.009350    0.000214
  35 H     1.0000    0     1.008   18.793961  -13.781115   -0.050315
  36 H     1.0000    0     1.008   13.358418   13.730542    0.032803
  37 C     6.0000    0    12.011    5.332705    0.012283    0.000934
  38 C     6.0000    0    12.011    3.964444   -2.280593   -0.000445
  39 C     6.0000    0    12.011    1.337511   -2.277030    0.000095
  40 C     6.0000    0    12.011   -0.020297    0.017959    0.002061
  41 C     6.0000    0    12.011    1.342371    2.310219    0.003522
  42 C     6.0000    0    12.011    3.969130    2.308007    0.002990
  43 H     1.0000    0     1.008   -7.047908    0.027617    0.003319
  44 H     1.0000    0     1.008    0.308752    4.095056    0.005010
  45 H     1.0000    0     1.008    4.996095   -4.066456   -0.001929
  46 H     1.0000    0     1.008    5.003968    4.092065    0.004063
  47 H     1.0000    0     1.008    0.300210   -4.059718   -0.000974
  48 C     6.0000    0    12.011   26.058799    0.059483   -0.009671
  49 C     6.0000    0    12.011   27.524432   -2.174528   -0.013545
  50 C     6.0000    0    12.011   30.148200   -2.061147   -0.014368
  51 C     6.0000    0    12.011   31.409804    0.288694   -0.011365
  52 C     6.0000    0    12.011   29.951568    2.522047   -0.007506
  53 C     6.0000    0    12.011   27.327919    2.411051   -0.006659
  54 H     1.0000    0     1.008   38.430472    0.593660   -0.013185
  55 H     1.0000    0     1.008   30.910154    4.348335   -0.005184
  56 H     1.0000    0     1.008   26.570761   -4.003270   -0.015800
  57 H     1.0000    0     1.008   26.219314    4.150201   -0.003664
  58 H     1.0000    0     1.008   31.258597   -3.799311   -0.017248
  59 C     6.0000    0    12.011   34.110630    0.405052   -0.012142
  60 C     6.0000    0    12.011   36.405754    0.504380   -0.012661
  61 C     6.0000    0    12.011   -2.724125    0.021203    0.002552
  62 C     6.0000    0    12.011   -5.021166    0.024652    0.002966

--------------------------------
INTERNAL COORDINATES (ANGSTROEM)
--------------------------------
 C      0   0   0     0.000000000000     0.00000000     0.00000000
 C      1   0   0     1.224643686925     0.00000000     0.00000000
 C      2   1   0     5.673838187034   177.36060450     0.00000000
 C      2   1   3     1.419158494039   178.86285161     1.43629221
 C      4   2   1     1.446399644311   121.30681375   177.60152958
 C      5   4   2     1.423294321543   116.51483908   179.99210644
 C      6   5   4     1.397287531006   122.77429484     0.00000000
 C      7   6   5     1.433198517079   120.26481045     0.00000000
 C      8   7   6     1.394084566035   117.57601089     0.00000000
 H      6   5   4     1.090179668029   119.17055408   179.99617110
 H      9   8   7     1.089860143609   119.64710359   180.00196681
 C      5   4   2     1.410818582802   121.78998178     0.00000000
 H     12   5   4     1.093162195291   117.19618834     0.00000000
 C     12   5   4     1.499546135283   125.04101924   180.00552152
 H     14  12   5     1.109647473993   109.98868380   302.58882704
 H     14  12   5     1.109643094317   109.99004089    57.36111334
 C     14  12   5     1.534385319986   113.47720849   179.97395482
 H     17  14  12     1.105339216581   108.99338697   302.32673172
 H     17  14  12     1.105338729230   108.99421469    57.64500523
 C     17  14  12     1.529791696594   113.11306921   179.98724071
 H     20  17  14     1.103768414177   111.29981852    59.86793690
 H     20  17  14     1.103768376503   111.29944896   300.12115275
 C      8   7   6     1.514270525983   119.55729967   180.00950784
 H     23   8   7     1.106215238962   108.15986336   303.79724306
 H     23   8   7     1.106233928275   108.16030722    56.34969821
 C     23   8   7     1.530895836122   116.98482842   180.07184101
 H     26  23   8     1.105549548081   109.86405072   301.71437730
 H     26  23   8     1.105554571414   109.86002791    58.23506451
 C     26  23   8     1.533646095360   112.58388640   179.97493976
 H     29  26  23     1.105878174063   109.19422307   302.33229829
 H     29  26  23     1.105880647345   109.19562080    57.67282599
 C     29  26  23     1.530695104949   113.17331240   180.00234725
 H     32  29  26     1.103711805866   111.28120814    59.86478310
 H     32  29  26     1.103710395030   111.28184043   300.14489270
 C      3   2   1     1.222540304866   179.56611388   182.74903413
 H     20  17  14     1.101836114026   111.44632692   179.99430315
 H     32  29  26     1.102080221280   111.50748578   180.00470852
 C     35   3   7     1.425632241984   179.80597194   341.40060638
 C     38  35   3     1.412955207351   120.76401976    10.24474190
 C     39  38  35     1.390114262744   120.74868183   180.00412331
 C     40  39  38     1.411090737373   120.68797962     0.00000000
 C     41  40  39     1.411160347010   118.65974881     0.00000000
 C     42  41  40     1.390021364183   120.68173392     0.00000000
 H     41  40  39     3.718855155409   120.68900025   179.99822411
 H     42  41  40     1.091441798284   119.19437651   179.99883027
 H     39  38  35     1.091390276831   119.15957648     0.00000000
 H     43  42  41     1.091408165689   120.06748905   179.99779105
 H     40  39  38     1.091436344236   120.11630269   180.00025693
 C      1   2   4     1.423443597639   179.60920788     7.44143248
 C     49   1   2     1.413893907784   120.92509249   174.86520633
 C     50  49   1     1.389733854762   120.79266478   180.00683349
 C     51  50  49     1.411366850357   120.70523686     0.00000000
 C     52  51  50     1.411458844567   118.62720706     0.00000000
 C     53  52  51     1.389617312832   120.71944660     0.00000000
 H     52  51  50     3.718680648391   120.71811885   179.99640529
 H     53  52  51     1.091468470596   119.16391950   180.00061579
 H     50  49   1     1.091413049417   119.19138329     0.00000000
 H     54  53  52     1.091396032447   120.09260568   179.99998091
 H     51  50  49     1.091466534876   120.09740915   179.99604153
 C     52  51  50     1.430541355691   120.69775201   179.99826963
 C     55  52  51     1.072475526105     0.03755270   359.96619108
 C     41  40  39     1.430805003159   120.67899214   179.99839317
 C     44  41  40     1.072506840651     0.00507994     3.23432183

---------------------------
INTERNAL COORDINATES (A.U.)
---------------------------
 C      0   0   0     0.000000000000     0.00000000     0.00000000
 C      1   0   0     2.314241179924     0.00000000     0.00000000
 C      2   1   0    10.722000301679   177.36060450     0.00000000
 C      2   1   3     2.681820894361   178.86285161     1.43629221
 C      4   2   1     2.733299207949   121.30681375   177.60152958
 C      5   4   2     2.689636475681   116.51483908   179.99210644
 C      6   5   4     2.640490763944   122.77429484     0.00000000
 C      7   6   5     2.708352692821   120.26481045     0.00000000
 C      8   7   6     2.634438037332   117.57601089     0.00000000
 H      6   5   4     2.060141009344   119.17055408   179.99617110
 H      9   8   7     2.059537195697   119.64710359   180.00196681
 C      5   4   2     2.666060746143   121.78998178     0.00000000
 H     12   5   4     2.065777169056   117.19618834     0.00000000
 C     12   5   4     2.833731520865   125.04101924   180.00552152
 H     14  12   5     2.096929831044   109.98868380   302.58882704
 H     14  12   5     2.096921554655   109.99004089    57.36111334
 C     14  12   5     2.899568038683   113.47720849   179.97395482
 H     17  14  12     2.088788404421   108.99338697   302.32673172
 H     17  14  12     2.088787483462   108.99421469    57.64500523
 C     17  14  12     2.890887348510   113.11306921   179.98724071
 H     20  17  14     2.085820018067   111.29981852    59.86793690
 H     20  17  14     2.085819946873   111.29944896   300.12115275
 C      8   7   6     2.861556586777   119.55729967   180.00950784
 H     23   8   7     2.090443846808   108.15986336   303.79724306
 H     23   8   7     2.090479164493   108.16030722    56.34969821
 C     23   8   7     2.892973869831   116.98482842   180.07184101
 H     26  23   8     2.089185873353   109.86405072   301.71437730
 H     26  23   8     2.089195366078   109.86002791    58.23506451
 C     26  23   8     2.898171106589   112.58388640   179.97493976
 H     29  26  23     2.089806886460   109.19422307   302.33229829
 H     29  26  23     2.089811560285   109.19562080    57.67282599
 C     29  26  23     2.892594542888   113.17331240   180.00234725
 H     32  29  26     2.085713043862   111.28120814    59.86478310
 H     32  29  26     2.085710377769   111.28184043   300.14489270
 C      3   2   1     2.310266363877   179.56611388   182.74903413
 H     20  17  14     2.082168499973   111.44632692   179.99430315
 H     32  29  26     2.082629795831   111.50748578   180.00470852
 C     35   3   7     2.694054505037   179.80597194   341.40060638
 C     38  35   3     2.670098381392   120.76401976    10.24474190
 C     39  38  35     2.626935251443   120.74868183   180.00412331
 C     40  39  38     2.666575043749   120.68797962     0.00000000
 C     41  40  39     2.666706586898   118.65974881     0.00000000
 C     42  41  40     2.626759698605   120.68173392     0.00000000
 H     41  40  39     7.027617775444   120.68900025   179.99822411
 H     42  41  40     2.062526089870   119.19437651   179.99883027
 H     39  38  35     2.062428728434   119.15957648     0.00000000
 H     43  42  41     2.062462533477   120.06748905   179.99779105
 H     40  39  38     2.062515783214   120.11630269   180.00025693
 C      1   2   4     2.689918566621   179.60920788     7.44143248
 C     49   1   2     2.671872268132   120.92509249   174.86520633
 C     50  49   1     2.626216384538   120.79266478   180.00683349
 C     51  50  49     2.667096821670   120.70523686     0.00000000
 C     52  51  50     2.667270665532   118.62720706     0.00000000
 C     53  52  51     2.625996152207   120.71944660     0.00000000
 H     52  51  50     7.027288004972   120.71811885   179.99640529
 H     53  52  51     2.062576493237   119.16391950   180.00061579
 H     50  49   1     2.062471762386   119.19138329     0.00000000
 H     54  53  52     2.062439604972   120.09260568   179.99998091
 H     51  50  49     2.062572835256   120.09740915   179.99604153
 C     52  51  50     2.703331385504   120.69775201   179.99826963
 C     55  52  51     2.026685029672     0.03755270   359.96619108
 C     41  40  39     2.703829607015   120.67899214   179.99839317
 C     44  41  40     2.026744205587     0.00507994     3.23432183

---------------------
BASIS SET INFORMATION
---------------------
There are 2 groups of distinct atoms

 Group   1 Type C   : 17s4p1d contracted to 3s2p1d pattern {881/31/1}
 Group   2 Type H   : 4s1p contracted to 2s1p pattern {31/1}

Atom   0C    basis set group =>   1
Atom   1C    basis set group =>   1
Atom   2C    basis set group =>   1
Atom   3C    basis set group =>   1
Atom   4C    basis set group =>   1
Atom   5C    basis set group =>   1
Atom   6C    basis set group =>   1
Atom   7C    basis set group =>   1
Atom   8C    basis set group =>   1
Atom   9H    basis set group =>   2
Atom  10H    basis set group =>   2
Atom  11C    basis set group =>   1
Atom  12H    basis set group =>   2
Atom  13C    basis set group =>   1
Atom  14H    basis set group =>   2
Atom  15H    basis set group =>   2
Atom  16C    basis set group =>   1
Atom  17H    basis set group =>   2
Atom  18H    basis set group =>   2
Atom  19C    basis set group =>   1
Atom  20H    basis set group =>   2
Atom  21H    basis set group =>   2
Atom  22C    basis set group =>   1
Atom  23H    basis set group =>   2
Atom  24H    basis set group =>   2
Atom  25C    basis set group =>   1
Atom  26H    basis set group =>   2
Atom  27H    basis set group =>   2
Atom  28C    basis set group =>   1
Atom  29H    basis set group =>   2
Atom  30H    basis set group =>   2
Atom  31C    basis set group =>   1
Atom  32H    basis set group =>   2
Atom  33H    basis set group =>   2
Atom  34C    basis set group =>   1
Atom  35H    basis set group =>   2
Atom  36H    basis set group =>   2
Atom  37C    basis set group =>   1
Atom  38C    basis set group =>   1
Atom  39C    basis set group =>   1
Atom  40C    basis set group =>   1
Atom  41C    basis set group =>   1
Atom  42C    basis set group =>   1
Atom  43H    basis set group =>   2
Atom  44H    basis set group =>   2
Atom  45H    basis set group =>   2
Atom  46H    basis set group =>   2
Atom  47H    basis set group =>   2
Atom  48C    basis set group =>   1
Atom  49C    basis set group =>   1
Atom  50C    basis set group =>   1
Atom  51C    basis set group =>   1
Atom  52C    basis set group =>   1
Atom  53C    basis set group =>   1
Atom  54H    basis set group =>   2
Atom  55H    basis set group =>   2
Atom  56H    basis set group =>   2
Atom  57H    basis set group =>   2
Atom  58H    basis set group =>   2
Atom  59C    basis set group =>   1
Atom  60C    basis set group =>   1
Atom  61C    basis set group =>   1
Atom  62C    basis set group =>   1
---------------------------------
AUXILIARY/J BASIS SET INFORMATION
---------------------------------
There are 2 groups of distinct atoms

 Group   1 Type C   : 14s11p10d2f contracted to 14s11p10d2f pattern {11111111111111/11111111111/1111111111/11}
 Group   2 Type H   : 9s2p1d contracted to 9s2p1d pattern {111111111/11/1}

Atom   0C    basis set group =>   1
Atom   1C    basis set group =>   1
Atom   2C    basis set group =>   1
Atom   3C    basis set group =>   1
Atom   4C    basis set group =>   1
Atom   5C    basis set group =>   1
Atom   6C    basis set group =>   1
Atom   7C    basis set group =>   1
Atom   8C    basis set group =>   1
Atom   9H    basis set group =>   2
Atom  10H    basis set group =>   2
Atom  11C    basis set group =>   1
Atom  12H    basis set group =>   2
Atom  13C    basis set group =>   1
Atom  14H    basis set group =>   2
Atom  15H    basis set group =>   2
Atom  16C    basis set group =>   1
Atom  17H    basis set group =>   2
Atom  18H    basis set group =>   2
Atom  19C    basis set group =>   1
Atom  20H    basis set group =>   2
Atom  21H    basis set group =>   2
Atom  22C    basis set group =>   1
Atom  23H    basis set group =>   2
Atom  24H    basis set group =>   2
Atom  25C    basis set group =>   1
Atom  26H    basis set group =>   2
Atom  27H    basis set group =>   2
Atom  28C    basis set group =>   1
Atom  29H    basis set group =>   2
Atom  30H    basis set group =>   2
Atom  31C    basis set group =>   1
Atom  32H    basis set group =>   2
Atom  33H    basis set group =>   2
Atom  34C    basis set group =>   1
Atom  35H    basis set group =>   2
Atom  36H    basis set group =>   2
Atom  37C    basis set group =>   1
Atom  38C    basis set group =>   1
Atom  39C    basis set group =>   1
Atom  40C    basis set group =>   1
Atom  41C    basis set group =>   1
Atom  42C    basis set group =>   1
Atom  43H    basis set group =>   2
Atom  44H    basis set group =>   2
Atom  45H    basis set group =>   2
Atom  46H    basis set group =>   2
Atom  47H    basis set group =>   2
Atom  48C    basis set group =>   1
Atom  49C    basis set group =>   1
Atom  50C    basis set group =>   1
Atom  51C    basis set group =>   1
Atom  52C    basis set group =>   1
Atom  53C    basis set group =>   1
Atom  54H    basis set group =>   2
Atom  55H    basis set group =>   2
Atom  56H    basis set group =>   2
Atom  57H    basis set group =>   2
Atom  58H    basis set group =>   2
Atom  59C    basis set group =>   1
Atom  60C    basis set group =>   1
Atom  61C    basis set group =>   1
Atom  62C    basis set group =>   1
---------------------------------
AUXILIARY/C BASIS SET INFORMATION
---------------------------------
There are 2 groups of distinct atoms

 Group   1 Type C   : 14s11p10d2f contracted to 14s11p10d2f pattern {11111111111111/11111111111/1111111111/11}
 Group   2 Type H   : 9s2p1d contracted to 9s2p1d pattern {111111111/11/1}

Atom   0C    basis set group =>   1
Atom   1C    basis set group =>   1
Atom   2C    basis set group =>   1
Atom   3C    basis set group =>   1
Atom   4C    basis set group =>   1
Atom   5C    basis set group =>   1
Atom   6C    basis set group =>   1
Atom   7C    basis set group =>   1
Atom   8C    basis set group =>   1
Atom   9H    basis set group =>   2
Atom  10H    basis set group =>   2
Atom  11C    basis set group =>   1
Atom  12H    basis set group =>   2
Atom  13C    basis set group =>   1
Atom  14H    basis set group =>   2
Atom  15H    basis set group =>   2
Atom  16C    basis set group =>   1
Atom  17H    basis set group =>   2
Atom  18H    basis set group =>   2
Atom  19C    basis set group =>   1
Atom  20H    basis set group =>   2
Atom  21H    basis set group =>   2
Atom  22C    basis set group =>   1
Atom  23H    basis set group =>   2
Atom  24H    basis set group =>   2
Atom  25C    basis set group =>   1
Atom  26H    basis set group =>   2
Atom  27H    basis set group =>   2
Atom  28C    basis set group =>   1
Atom  29H    basis set group =>   2
Atom  30H    basis set group =>   2
Atom  31C    basis set group =>   1
Atom  32H    basis set group =>   2
Atom  33H    basis set group =>   2
Atom  34C    basis set group =>   1
Atom  35H    basis set group =>   2
Atom  36H    basis set group =>   2
Atom  37C    basis set group =>   1
Atom  38C    basis set group =>   1
Atom  39C    basis set group =>   1
Atom  40C    basis set group =>   1
Atom  41C    basis set group =>   1
Atom  42C    basis set group =>   1
Atom  43H    basis set group =>   2
Atom  44H    basis set group =>   2
Atom  45H    basis set group =>   2
Atom  46H    basis set group =>   2
Atom  47H    basis set group =>   2
Atom  48C    basis set group =>   1
Atom  49C    basis set group =>   1
Atom  50C    basis set group =>   1
Atom  51C    basis set group =>   1
Atom  52C    basis set group =>   1
Atom  53C    basis set group =>   1
Atom  54H    basis set group =>   2
Atom  55H    basis set group =>   2
Atom  56H    basis set group =>   2
Atom  57H    basis set group =>   2
Atom  58H    basis set group =>   2
Atom  59C    basis set group =>   1
Atom  60C    basis set group =>   1
Atom  61C    basis set group =>   1
Atom  62C    basis set group =>   1
----------------------------------
AUXILIARY/JK BASIS SET INFORMATION
----------------------------------
There are 2 groups of distinct atoms

 Group   1 Type C   : 14s11p10d2f contracted to 14s11p10d2f pattern {11111111111111/11111111111/1111111111/11}
 Group   2 Type H   : 9s2p1d contracted to 9s2p1d pattern {111111111/11/1}

Atom   0C    basis set group =>   1
Atom   1C    basis set group =>   1
Atom   2C    basis set group =>   1
Atom   3C    basis set group =>   1
Atom   4C    basis set group =>   1
Atom   5C    basis set group =>   1
Atom   6C    basis set group =>   1
Atom   7C    basis set group =>   1
Atom   8C    basis set group =>   1
Atom   9H    basis set group =>   2
Atom  10H    basis set group =>   2
Atom  11C    basis set group =>   1
Atom  12H    basis set group =>   2
Atom  13C    basis set group =>   1
Atom  14H    basis set group =>   2
Atom  15H    basis set group =>   2
Atom  16C    basis set group =>   1
Atom  17H    basis set group =>   2
Atom  18H    basis set group =>   2
Atom  19C    basis set group =>   1
Atom  20H    basis set group =>   2
Atom  21H    basis set group =>   2
Atom  22C    basis set group =>   1
Atom  23H    basis set group =>   2
Atom  24H    basis set group =>   2
Atom  25C    basis set group =>   1
Atom  26H    basis set group =>   2
Atom  27H    basis set group =>   2
Atom  28C    basis set group =>   1
Atom  29H    basis set group =>   2
Atom  30H    basis set group =>   2
Atom  31C    basis set group =>   1
Atom  32H    basis set group =>   2
Atom  33H    basis set group =>   2
Atom  34C    basis set group =>   1
Atom  35H    basis set group =>   2
Atom  36H    basis set group =>   2
Atom  37C    basis set group =>   1
Atom  38C    basis set group =>   1
Atom  39C    basis set group =>   1
Atom  40C    basis set group =>   1
Atom  41C    basis set group =>   1
Atom  42C    basis set group =>   1
Atom  43H    basis set group =>   2
Atom  44H    basis set group =>   2
Atom  45H    basis set group =>   2
Atom  46H    basis set group =>   2
Atom  47H    basis set group =>   2
Atom  48C    basis set group =>   1
Atom  49C    basis set group =>   1
Atom  50C    basis set group =>   1
Atom  51C    basis set group =>   1
Atom  52C    basis set group =>   1
Atom  53C    basis set group =>   1
Atom  54H    basis set group =>   2
Atom  55H    basis set group =>   2
Atom  56H    basis set group =>   2
Atom  57H    basis set group =>   2
Atom  58H    basis set group =>   2
Atom  59C    basis set group =>   1
Atom  60C    basis set group =>   1
Atom  61C    basis set group =>   1
Atom  62C    basis set group =>   1


           ************************************************************
           *        Program running with 16 parallel MPI-processes    *
           *              working on a common directory               *
           ************************************************************
------------------------------------------------------------------------------
                           ORCA GTO INTEGRAL CALCULATION
                           -- RI-GTO INTEGRALS CHOSEN --
------------------------------------------------------------------------------
------------------------------------------------------------------------------
                   ___                                                        
                  /   \      - P O W E R E D   B Y -                         
                 /     \                                                     
                 |  |  |   _    _      __       _____    __    __             
                 |  |  |  | |  | |    /  \     |  _  \  |  |  /  |          
                  \  \/   | |  | |   /    \    | | | |  |  | /  /          
                 / \  \   | |__| |  /  /\  \   | |_| |  |  |/  /          
                |  |  |   |  __  | /  /__\  \  |    /   |      \           
                |  |  |   | |  | | |   __   |  |    \   |  |\   \          
                \     /   | |  | | |  |  |  |  | |\  \  |  | \   \       
                 \___/    |_|  |_| |__|  |__|  |_| \__\ |__|  \__/        
                                                                              
                      - O R C A' S   B I G   F R I E N D -                    
                                      &                                       
                       - I N T E G R A L  F E E D E R -                       
                                                                              
 v1 FN, 2020, v2 2021                                                         
------------------------------------------------------------------------------


Reading SHARK input file cc-pVDZ_i.SHARKINP.tmp ... ok
----------------------
SHARK INTEGRAL PACKAGE
----------------------

Number of atoms                             ...     63
Number of basis functions                   ...    825
Number of shells                            ...    495
Maximum angular momentum                    ...      2
Integral batch strategy                     ... SHARK/LIBINT Hybrid
RI-J (if used) integral strategy            ... SPLIT-RIJ (Revised 2003 algorithm where possible)
Printlevel                                  ...      1
Contraction scheme used                     ... PARTIAL GENERAL contraction
Coulomb Range Separation                    ... NOT USED
Exchange Range Separation                   ... NOT USED
Finite Nucleus Model                        ... NOT USED
Auxiliary Coulomb fitting basis             ... AVAILABLE
   # of basis functions in Aux-J            ...   4354
   # of shells in Aux-J                     ...   1606
   Maximum angular momentum in Aux-J        ...      3
Auxiliary J/K fitting basis                 ... AVAILABLE
   # of basis functions in Aux-JK           ...   4354
   # of shells in Aux-JK                    ...   1606
   Maximum angular momentum in Aux-JK       ...      3
Auxiliary Correlation fitting basis         ... AVAILABLE
   # of basis functions in Aux-C            ...   4354
   # of shells in Aux-C                     ...   1606
   Maximum angular momentum in Aux-C        ...      3
Auxiliary 'external' fitting basis          ... NOT available
Integral threshold                          ...     1.000000e-10
Primitive cut-off                           ...     1.000000e-11
Primitive pair pre-selection threshold      ...     1.000000e-11

Calculating pre-screening integrals         ... done (  0.0 sec) Dimension = 495
Calculating pre-screening integrals (ORCA)  ... done (  0.1 sec) Dimension = 291
Organizing shell pair data                  ... done (  0.2 sec)
Shell pair information
Total number of shell pairs                 ...    122760
Shell pairs after pre-screening             ...     35062
Total number of primitive shell pairs       ...    193320
Primitive shell pairs kept                  ...     46517
          la=0 lb=0:  14912 shell pairs
          la=1 lb=0:  12456 shell pairs
          la=1 lb=1:   2233 shell pairs
          la=2 lb=0:   3830 shell pairs
          la=2 lb=1:   1394 shell pairs
          la=2 lb=2:    237 shell pairs

Calculating one electron integrals          ... done (  0.1 sec)
Calculating RI/J V-Matrix + Cholesky decomp.... done (  1.1 sec)
Calculating RI/JK V-Matrix + Cholesky decomp... done (  1.1 sec)
Calculating RI/C V-Matrix + Cholesky decomp.... done (  1.1 sec)
Calculating Nuclear repulsion               ... done (  0.0 sec) ENN=   2735.916553133097 Eh

SHARK setup successfully completed in   4.2 seconds

Maximum memory used throughout the entire GTOINT-calculation: 65.4 MB


           ************************************************************
           *        Program running with 16 parallel MPI-processes    *
           *              working on a common directory               *
           ************************************************************
-------------------------------------------------------------------------------
                                 ORCA SCF
-------------------------------------------------------------------------------

------------
SCF SETTINGS
------------
Hamiltonian:
 Density Functional     Method          .... DFT(GTOs)
 Exchange Functional    Exchange        .... B88
   X-Alpha parameter    XAlpha          ....  0.666667
   Becke's b parameter  XBeta           ....  0.004200
 Correlation Functional Correlation     .... LYP
 LDA part of GGA corr.  LDAOpt          .... VWN-5
 Gradients option       PostSCFGGA      .... off
 Hybrid DFT is turned on
   Fraction HF Exchange ScalHFX         ....  0.200000
   Scaling of DF-GGA-X  ScalDFX         ....  0.720000
   Scaling of DF-GGA-C  ScalDFC         ....  0.810000
   Scaling of DF-LDA-C  ScalLDAC        ....  1.000000
   Perturbative correction              ....  0.000000
   Density functional embedding theory  .... OFF
   NL short-range parameter             ....  4.800000
 RI-approximation to the Coulomb term is turned on
   Number of AuxJ basis functions       .... 4354
   RIJ-COSX (HFX calculated with COS-X)).... on


General Settings:
 Integral files         IntName         .... cc-pVDZ_i
 Hartree-Fock type      HFTyp           .... UHF
 Total Charge           Charge          ....    0
 Multiplicity           Mult            ....    2
 Number of Electrons    NEL             ....  233
 Basis Dimension        Dim             ....  621
 Nuclear Repulsion      ENuc            ....   2735.9165531331 Eh

Convergence Acceleration:
 DIIS                   CNVDIIS         .... on
   Start iteration      DIISMaxIt       ....    12
   Startup error        DIISStart       ....  0.200000
   # of expansion vecs  DIISMaxEq       ....     5
   Bias factor          DIISBfac        ....   1.050
   Max. coefficient     DIISMaxC        ....  10.000
 Trust-Rad. Augm. Hess. CNVTRAH         .... auto
   Auto Start mean grad. ratio tolernc. ....  1.125000
   Auto Start start iteration           ....    20
   Auto Start num. interpolation iter.  ....    10
   Max. Number of Micro iterations      ....    16
   Max. Number of Macro iterations      .... Maxiter - #DIIS iter
   Number of Davidson start vectors     ....     2
   Converg. threshold I  (grad. norm)   ....   5.000e-05
   Converg. threshold II (energy diff.) ....   1.000e-06
   Grad. Scal. Fac. for Micro threshold ....   0.100
   Minimum threshold for Micro iter.    ....   0.010
   NR start threshold (gradient norm)   ....   0.001
   Initial trust radius                 ....   0.400
   Minimum AH scaling param. (alpha)    ....   1.000
   Maximum AH scaling param. (alpha)    .... 1000.000
   Orbital update algorithm             .... Taylor
   White noise on init. David. guess    .... on
   Maximum white noise                  ....   0.010
   Quad. conv. algorithm                .... NR
 SOSCF                  CNVSOSCF        .... off
 Level Shifting         CNVShift        .... on
   Level shift para.    LevelShift      ....    0.2500
   Turn off err/grad.   ShiftErr        ....    0.0010
 Zerner damping         CNVZerner       .... off
 Static damping         CNVDamp         .... on
   Fraction old density DampFac         ....    0.7000
   Max. Damping (<1)    DampMax         ....    0.9800
   Min. Damping (>=0)   DampMin         ....    0.0000
   Turn off err/grad.   DampErr         ....    0.1000
 Fernandez-Rico         CNVRico         .... off

SCF Procedure:
 Maximum # iterations   MaxIter         ....   125
 SCF integral mode      SCFMode         .... Direct
   Integral package                     .... SHARK and LIBINT hybrid scheme
 Reset frequency        DirectResetFreq ....    20
 Integral Threshold     Thresh          ....  1.000e-10 Eh
 Primitive CutOff       TCut            ....  1.000e-11 Eh

Convergence Tolerance:
 Convergence Check Mode ConvCheckMode   .... Total+1el-Energy
 Convergence forced     ConvForced      .... 0
 Energy Change          TolE            ....  1.000e-06 Eh
 1-El. energy change                    ....  1.000e-03 Eh
 DIIS Error             TolErr          ....  1.000e-06


Diagonalization of the overlap matrix:
Smallest eigenvalue                        ... 4.461e-05
Time for diagonalization                   ...    0.075 sec
Threshold for overlap eigenvalues          ... 1.000e-08
Number of eigenvalues below threshold      ... 0
Time for construction of square roots      ...    0.074 sec
Total time needed                          ...    0.152 sec

Time for model grid setup =    0.455 sec

------------------------------
INITIAL GUESS: MODEL POTENTIAL
------------------------------
Loading Hartree-Fock densities                     ... done
Calculating cut-offs                               ... done
Initializing the effective Hamiltonian             ... done
Setting up the integral package (SHARK)            ... done
Starting the Coulomb interaction                   ... done (   0.4 sec)
Reading the grid                                   ... done
Mapping shells                                     ... done
Starting the XC term evaluation                    ... done (   0.1 sec)
  promolecular density results
     # of electrons  =    232.993599442
     EX              =   -183.185955964
     EC              =     -7.721891378
     EX+EC           =   -190.907847342
Transforming the Hamiltonian                       ... done (   0.0 sec)
Diagonalizing the Hamiltonian                      ... done (   0.1 sec)
Back transforming the eigenvectors                 ... done (   0.0 sec)
Now organizing SCF variables                       ... done
                      ------------------
                      INITIAL GUESS DONE (   1.4 sec)
                      ------------------
-------------------
DFT GRID GENERATION
-------------------

General Integration Accuracy     IntAcc      ... 4.388
Radial Grid Type                 RadialGrid  ... OptM3 with GC (2021)
Angular Grid (max. ang.)         AngularGrid ... 4 (Lebedev-302)
Angular grid pruning method      GridPruning ... 4 (adaptive)
Weight generation scheme         WeightScheme... Becke
Basis function cutoff            BFCut       ... 1.0000e-10
Integration weight cutoff        WCut        ... 1.0000e-14
Angular grids for H and He will be reduced by one unit
Partially contracted basis set               ... off
Rotationally invariant grid construction     ... off

Total number of grid points                  ...   295746
Total number of batches                      ...     4659
Average number of points per batch           ...       63
Average number of grid points per atom       ...     4694
Time for grid setup =    1.945 sec

--------------------
COSX GRID GENERATION
--------------------

GRIDX 1
-------
General Integration Accuracy     IntAcc      ... 3.816
Radial Grid Type                 RadialGrid  ... OptM3 with GC (2021)
Angular Grid (max. ang.)         AngularGrid ... 1 (Lebedev-50)
Angular grid pruning method      GridPruning ... 4 (adaptive)
Weight generation scheme         WeightScheme... Becke
Basis function cutoff            BFCut       ... 1.0000e-10
Integration weight cutoff        WCut        ... 1.0000e-14
Angular grids for H and He will be reduced by one unit
Partially contracted basis set               ... on
Rotationally invariant grid construction     ... off

Total number of grid points                  ...    37650
Total number of batches                      ...      626
Average number of points per batch           ...       60
Average number of grid points per atom       ...      598
UseSFitting                                  ... on

GRIDX 2
-------
General Integration Accuracy     IntAcc      ... 4.020
Radial Grid Type                 RadialGrid  ... OptM3 with GC (2021)
Angular Grid (max. ang.)         AngularGrid ... 2 (Lebedev-110)
Angular grid pruning method      GridPruning ... 4 (adaptive)
Weight generation scheme         WeightScheme... Becke
Basis function cutoff            BFCut       ... 1.0000e-10
Integration weight cutoff        WCut        ... 1.0000e-14
Angular grids for H and He will be reduced by one unit
Partially contracted basis set               ... on
Rotationally invariant grid construction     ... off

Total number of grid points                  ...    81060
Total number of batches                      ...     1297
Average number of points per batch           ...       62
Average number of grid points per atom       ...     1287
UseSFitting                                  ... on

GRIDX 3
-------
General Integration Accuracy     IntAcc      ... 4.338
Radial Grid Type                 RadialGrid  ... OptM3 with GC (2021)
Angular Grid (max. ang.)         AngularGrid ... 3 (Lebedev-194)
Angular grid pruning method      GridPruning ... 4 (adaptive)
Weight generation scheme         WeightScheme... Becke
Basis function cutoff            BFCut       ... 1.0000e-10
Integration weight cutoff        WCut        ... 1.0000e-14
Angular grids for H and He will be reduced by one unit
Partially contracted basis set               ... on
Rotationally invariant grid construction     ... off

Total number of grid points                  ...   177420
Total number of batches                      ...     2807
Average number of points per batch           ...       63
Average number of grid points per atom       ...     2816
UseSFitting                                  ... on

Time for X-Grid setup             =    3.116 sec

 re-compute Schwartz prescreening matrix in partically contracted basis (1) ...done (   0.122 sec)
--------------
SCF ITERATIONS
--------------
ITER       Energy         Delta-E        Max-DP      RMS-DP      [F,P]     Damp
               ***  Starting incremental Fock matrix formation  ***
  0  -1311.3600942288   0.000000000000 0.07214487  0.00084574  0.0868948 0.7000
  1  -1311.6579435272  -0.297849298338 0.06376520  0.00067514  0.0457540 0.7000
                               ***Turning on DIIS***
  2  -1311.7973439642  -0.139400436985 0.13340086  0.00134110  0.0175109 0.0000
  3  -1311.9976166380  -0.200272673874 0.02932739  0.00034025  0.0248892 0.0000
  4  -1312.0450480127  -0.047431374699 0.01733499  0.00014862  0.0051418 0.0000
  5  -1312.0479456108  -0.002897598095 0.00459006  0.00003294  0.0030494 0.0000
  6  -1312.0483494447  -0.000403833852 0.00345626  0.00001816  0.0023063 0.0000
  7  -1312.0485121884  -0.000162743728 0.00233795  0.00001227  0.0015044 0.0000
  8  -1312.0486025549  -0.000090366462 0.00209390  0.00001109  0.0010404 0.0000
  9  -1312.0486643881  -0.000061833245 0.00286054  0.00001915  0.0006184 0.0000
               *** Restarting incremental Fock matrix formation ***
                                   *** Resetting DIIS ***
 10  -1312.0489564332  -0.000292045035 0.00084029  0.00001245  0.0003169 0.0000
 11  -1312.0489610077  -0.000004574524 0.00047326  0.00000314  0.0004218 0.0000
 12  -1312.0489641544  -0.000003146721 0.00029185  0.00000200  0.0002289 0.0000
 13  -1312.0489655784  -0.000001423983 0.00049983  0.00000277  0.0001487 0.0000
 14  -1312.0489671996  -0.000001621178 0.00025638  0.00000150  0.0000836 0.0000
                 **** Energy Check signals convergence ****

               *****************************************************
               *                     SUCCESS                       *
               *           SCF CONVERGED AFTER  15 CYCLES          *
               *****************************************************

Old exchange energy                            =    -37.268576266 Eh
New exchange energy                            =    -37.268704581 Eh
Exchange energy change after final integration =     -0.000128315 Eh
Total energy after final integration           =  -1312.049095863 Eh
Final COS-X integration done in                =    13.230 sec

----------------
TOTAL SCF ENERGY
----------------

Total Energy       :        -1312.04909586 Eh          -35702.67099 eV

Components:
Nuclear Repulsion  :         2735.91655313 Eh           74448.07428 eV
Electronic Energy  :        -4047.96564900 Eh         -110150.74526 eV
One Electron Energy:        -7208.06780726 Eh         -196141.49668 eV
Two Electron Energy:         3160.10215826 Eh           85990.75141 eV
Max COSX asymmetry :            0.00000079 Eh               0.00002 eV

Virial components:
Potential Energy   :        -2615.24807481 Eh          -71164.51805 eV
Kinetic Energy     :         1303.19897894 Eh           35461.84706 eV
Virial Ratio       :            2.00679107


DFT components:
N(Alpha)           :      117.000158215805 electrons
N(Beta)            :      116.000145287370 electrons
N(Total)           :      233.000303503175 electrons
E(X)               :     -147.897502524370 Eh       
E(C)               :       -9.123532945646 Eh       
E(XC)              :     -157.021035470016 Eh       
DFET-embed. en.    :        0.000000000000 Eh       

---------------
SCF CONVERGENCE
---------------

  Last Energy change         ...   -3.4879e-07  Tolerance :   1.0000e-06
  Last MAX-Density change    ...    0.0000e+00  Tolerance :   1.0000e-05
  Last RMS-Density change    ...    0.0000e+00  Tolerance :   1.0000e-06
  Last DIIS Error            ...    4.8609e-05  Tolerance :   1.0000e-06

             **** THE GBW FILE WAS UPDATED (cc-pVDZ_i.gbw) ****
             **** DENSITY cc-pVDZ_i.scfp WAS UPDATED ****
             **** ENERGY FILE WAS UPDATED (cc-pVDZ_i.en.tmp) ****
----------------------
UHF SPIN CONTAMINATION
----------------------

Warning: in a DFT calculation there is little theoretical justification to 
         calculate <S**2> as in Hartree-Fock theory. We will do it anyways
         but you should keep in mind that the values have only limited relevance

Expectation value of <S**2>     :     0.789129
Ideal value S*(S+1) for S=0.5   :     0.750000
Deviation                       :     0.039129

             **** THE GBW FILE WAS UPDATED (cc-pVDZ_i.gbw) ****
             **** DENSITY cc-pVDZ_i.scfp WAS UPDATED ****
----------------
ORBITAL ENERGIES
----------------
                 SPIN UP ORBITALS
  NO   OCC          E(Eh)            E(eV) 
   0   1.0000     -10.224029      -278.2100 
   1   1.0000     -10.222773      -278.1758 
   2   1.0000     -10.222247      -278.1615 
   3   1.0000     -10.221304      -278.1358 
   4   1.0000     -10.217774      -278.0398 
   5   1.0000     -10.215799      -277.9860 
   6   1.0000     -10.205890      -277.7164 
   7   1.0000     -10.204414      -277.6762 
   8   1.0000     -10.204335      -277.6741 
   9   1.0000     -10.203799      -277.6595 
  10   1.0000     -10.203686      -277.6564 
  11   1.0000     -10.202898      -277.6350 
  12   1.0000     -10.202713      -277.6299 
  13   1.0000     -10.202393      -277.6212 
  14   1.0000     -10.202183      -277.6155 
  15   1.0000     -10.201943      -277.6090 
  16   1.0000     -10.198410      -277.5128 
  17   1.0000     -10.196058      -277.4488 
  18   1.0000     -10.195804      -277.4419 
  19   1.0000     -10.195258      -277.4271 
  20   1.0000     -10.194414      -277.4041 
  21   1.0000     -10.193994      -277.3927 
  22   1.0000     -10.193307      -277.3740 
  23   1.0000     -10.193119      -277.3689 
  24   1.0000     -10.191944      -277.3369 
  25   1.0000     -10.191181      -277.3161 
  26   1.0000     -10.190804      -277.3059 
  27   1.0000     -10.190030      -277.2848 
  28   1.0000     -10.189563      -277.2721 
  29   1.0000     -10.186615      -277.1919 
  30   1.0000     -10.184410      -277.1319 
  31   1.0000     -10.184128      -277.1242 
  32   1.0000     -10.179253      -276.9915 
  33   1.0000     -10.177527      -276.9446 
  34   1.0000      -0.877879       -23.8883 
  35   1.0000      -0.875385       -23.8204 
  36   1.0000      -0.873914       -23.7804 
  37   1.0000      -0.824147       -22.4262 
  38   1.0000      -0.809074       -22.0160 
  39   1.0000      -0.806201       -21.9378 
  40   1.0000      -0.798924       -21.7398 
  41   1.0000      -0.793154       -21.5828 
  42   1.0000      -0.770995       -20.9798 
  43   1.0000      -0.759759       -20.6741 
  44   1.0000      -0.758720       -20.6458 
  45   1.0000      -0.758419       -20.6376 
  46   1.0000      -0.746288       -20.3075 
  47   1.0000      -0.736973       -20.0540 
  48   1.0000      -0.725990       -19.7552 
  49   1.0000      -0.712962       -19.4007 
  50   1.0000      -0.700414       -19.0592 
  51   1.0000      -0.660763       -17.9803 
  52   1.0000      -0.658116       -17.9082 
  53   1.0000      -0.642371       -17.4798 
  54   1.0000      -0.623393       -16.9634 
  55   1.0000      -0.619296       -16.8519 
  56   1.0000      -0.618624       -16.8336 
  57   1.0000      -0.617706       -16.8086 
  58   1.0000      -0.594913       -16.1884 
  59   1.0000      -0.582813       -15.8591 
  60   1.0000      -0.564747       -15.3676 
  61   1.0000      -0.553286       -15.0557 
  62   1.0000      -0.552001       -15.0207 
  63   1.0000      -0.542813       -14.7707 
  64   1.0000      -0.534299       -14.5390 
  65   1.0000      -0.510475       -13.8907 
  66   1.0000      -0.507325       -13.8050 
  67   1.0000      -0.496990       -13.5238 
  68   1.0000      -0.492475       -13.4009 
  69   1.0000      -0.482324       -13.1247 
  70   1.0000      -0.473366       -12.8809 
  71   1.0000      -0.473276       -12.8785 
  72   1.0000      -0.471575       -12.8322 
  73   1.0000      -0.464985       -12.6529 
  74   1.0000      -0.445710       -12.1284 
  75   1.0000      -0.444105       -12.0847 
  76   1.0000      -0.436329       -11.8731 
  77   1.0000      -0.432691       -11.7741 
  78   1.0000      -0.431253       -11.7350 
  79   1.0000      -0.429824       -11.6961 
  80   1.0000      -0.428850       -11.6696 
  81   1.0000      -0.424734       -11.5576 
  82   1.0000      -0.414372       -11.2756 
  83   1.0000      -0.401923       -10.9369 
  84   1.0000      -0.401788       -10.9332 
  85   1.0000      -0.394801       -10.7431 
  86   1.0000      -0.393828       -10.7166 
  87   1.0000      -0.386332       -10.5126 
  88   1.0000      -0.385298       -10.4845 
  89   1.0000      -0.382109       -10.3977 
  90   1.0000      -0.381602       -10.3839 
  91   1.0000      -0.368060       -10.0154 
  92   1.0000      -0.361239        -9.8298 
  93   1.0000      -0.360263        -9.8033 
  94   1.0000      -0.359124        -9.7723 
  95   1.0000      -0.358207        -9.7473 
  96   1.0000      -0.345089        -9.3904 
  97   1.0000      -0.343145        -9.3375 
  98   1.0000      -0.336092        -9.1455 
  99   1.0000      -0.335341        -9.1251 
 100   1.0000      -0.331365        -9.0169 
 101   1.0000      -0.330303        -8.9880 
 102   1.0000      -0.326957        -8.8970 
 103   1.0000      -0.325706        -8.8629 
 104   1.0000      -0.312140        -8.4938 
 105   1.0000      -0.285684        -7.7739 
 106   1.0000      -0.280183        -7.6242 
 107   1.0000      -0.278872        -7.5885 
 108   1.0000      -0.275152        -7.4873 
 109   1.0000      -0.273500        -7.4423 
 110   1.0000      -0.271739        -7.3944 
 111   1.0000      -0.266805        -7.2601 
 112   1.0000      -0.265988        -7.2379 
 113   1.0000      -0.260241        -7.0815 
 114   1.0000      -0.230408        -6.2697 
 115   1.0000      -0.209826        -5.7096 
 116   1.0000      -0.173933        -4.7330 
 117   0.0000      -0.076367        -2.0781 
 118   0.0000      -0.049443        -1.3454 
 119   0.0000      -0.016668        -0.4536 
 120   0.0000      -0.015497        -0.4217 
 121   0.0000      -0.014437        -0.3929 
 122   0.0000       0.011528         0.3137 
 123   0.0000       0.034656         0.9430 
 124   0.0000       0.039500         1.0749 
 125   0.0000       0.046118         1.2549 
 126   0.0000       0.049239         1.3399 
 127   0.0000       0.049927         1.3586 
 128   0.0000       0.053619         1.4591 
 129   0.0000       0.055881         1.5206 
 130   0.0000       0.061054         1.6614 
 131   0.0000       0.064090         1.7440 
 132   0.0000       0.071531         1.9464 
 133   0.0000       0.076938         2.0936 
 134   0.0000       0.080112         2.1800 
 135   0.0000       0.086235         2.3466 
 136   0.0000       0.087212         2.3732 
 137   0.0000       0.090357         2.4587 
 138   0.0000       0.090743         2.4692 
 139   0.0000       0.092359         2.5132 
 140   0.0000       0.100609         2.7377 
 141   0.0000       0.100708         2.7404 
 142   0.0000       0.104710         2.8493 
 143   0.0000       0.109770         2.9870 
 144   0.0000       0.117778         3.2049 
 145   0.0000       0.119868         3.2618 
 146   0.0000       0.127172         3.4605 
 147   0.0000       0.133004         3.6192 
 148   0.0000       0.139312         3.7909 
 149   0.0000       0.141966         3.8631 
 150   0.0000       0.142891         3.8883 
 151   0.0000       0.150052         4.0831 
 152   0.0000       0.153883         4.1874 
 153   0.0000       0.157309         4.2806 
 154   0.0000       0.157854         4.2954 
 155   0.0000       0.159755         4.3472 
 156   0.0000       0.164629         4.4798 
 157   0.0000       0.169338         4.6079 
 158   0.0000       0.171221         4.6592 
 159   0.0000       0.171655         4.6710 
 160   0.0000       0.179061         4.8725 
 161   0.0000       0.197295         5.3687 
 162   0.0000       0.197724         5.3803 
 163   0.0000       0.198381         5.3982 
 164   0.0000       0.204327         5.5600 
 165   0.0000       0.214211         5.8290 
 166   0.0000       0.214699         5.8423 
 167   0.0000       0.215051         5.8518 
 168   0.0000       0.221442         6.0257 
 169   0.0000       0.240616         6.5475 
 170   0.0000       0.242090         6.5876 
 171   0.0000       0.253496         6.8980 
 172   0.0000       0.255377         6.9492 
 173   0.0000       0.269903         7.3444 
 174   0.0000       0.272726         7.4213 
 175   0.0000       0.277773         7.5586 
 176   0.0000       0.278113         7.5679 
 177   0.0000       0.280889         7.6434 
 178   0.0000       0.287006         7.8098 
 179   0.0000       0.293072         7.9749 
 180   0.0000       0.305253         8.3064 
 181   0.0000       0.309715         8.4278 
 182   0.0000       0.328924         8.9505 
 183   0.0000       0.329434         8.9644 
 184   0.0000       0.343097         9.3362 
 185   0.0000       0.343973         9.3600 
 186   0.0000       0.350171         9.5286 
 187   0.0000       0.352404         9.5894 
 188   0.0000       0.367650        10.0043 
 189   0.0000       0.372011        10.1229 
 190   0.0000       0.376111        10.2345 
 191   0.0000       0.393202        10.6996 
 192   0.0000       0.402295        10.9470 
 193   0.0000       0.407373        11.0852 
 194   0.0000       0.409502        11.1431 
 195   0.0000       0.411027        11.1846 
 196   0.0000       0.414489        11.2788 
 197   0.0000       0.416972        11.3464 
 198   0.0000       0.428875        11.6703 
 199   0.0000       0.431759        11.7487 
 200   0.0000       0.435627        11.8540 
 201   0.0000       0.436966        11.8904 
 202   0.0000       0.439081        11.9480 
 203   0.0000       0.441191        12.0054 
 204   0.0000       0.444802        12.1037 
 205   0.0000       0.445916        12.1340 
 206   0.0000       0.449944        12.2436 
 207   0.0000       0.454230        12.3602 
 208   0.0000       0.456740        12.4285 
 209   0.0000       0.458314        12.4714 
 210   0.0000       0.460094        12.5198 
 211   0.0000       0.461503        12.5581 
 212   0.0000       0.466818        12.7028 
 213   0.0000       0.475213        12.9312 
 214   0.0000       0.475908        12.9501 
 215   0.0000       0.481605        13.1051 
 216   0.0000       0.488556        13.2943 
 217   0.0000       0.491512        13.3747 
 218   0.0000       0.495706        13.4888 
 219   0.0000       0.496173        13.5016 
 220   0.0000       0.498980        13.5779 
 221   0.0000       0.501394        13.6436 
 222   0.0000       0.503863        13.7108 
 223   0.0000       0.506953        13.7949 
 224   0.0000       0.507906        13.8208 
 225   0.0000       0.509593        13.8667 
 226   0.0000       0.510030        13.8786 
 227   0.0000       0.510955        13.9038 
 228   0.0000       0.512500        13.9458 
 229   0.0000       0.514368        13.9967 
 230   0.0000       0.519018        14.1232 
 231   0.0000       0.523828        14.2541 
 232   0.0000       0.530864        14.4456 
 233   0.0000       0.534894        14.5552 
 234   0.0000       0.541223        14.7274 
 235   0.0000       0.546094        14.8600 
 236   0.0000       0.550613        14.9830 
 237   0.0000       0.553577        15.0636 
 238   0.0000       0.561217        15.2715 
 239   0.0000       0.576312        15.6823 
 240   0.0000       0.578481        15.7413 
 241   0.0000       0.580164        15.7871 
 242   0.0000       0.581596        15.8260 
 243   0.0000       0.593749        16.1567 
 244   0.0000       0.593905        16.1610 
 245   0.0000       0.597673        16.2635 
 246   0.0000       0.604092        16.4382 
 247   0.0000       0.612152        16.6575 
 248   0.0000       0.616465        16.7749 
 249   0.0000       0.617011        16.7897 
 250   0.0000       0.617248        16.7962 
 251   0.0000       0.620116        16.8742 
 252   0.0000       0.623864        16.9762 
 253   0.0000       0.628392        17.0994 
 254   0.0000       0.632965        17.2239 
 255   0.0000       0.635816        17.3014 
 256   0.0000       0.639778        17.4093 
 257   0.0000       0.641017        17.4429 
 258   0.0000       0.645328        17.5603 
 259   0.0000       0.647680        17.6243 
 260   0.0000       0.650627        17.7045 
 261   0.0000       0.653752        17.7895 
 262   0.0000       0.656180        17.8556 
 263   0.0000       0.657973        17.9043 
 264   0.0000       0.658607        17.9216 
 265   0.0000       0.660259        17.9665 
 266   0.0000       0.663959        18.0672 
 267   0.0000       0.665399        18.1064 
 268   0.0000       0.665914        18.1204 
 269   0.0000       0.669941        18.2300 
 270   0.0000       0.670682        18.2502 
 271   0.0000       0.672335        18.2952 
 272   0.0000       0.679715        18.4960 
 273   0.0000       0.685290        18.6477 
 274   0.0000       0.686457        18.6794 
 275   0.0000       0.690022        18.7765 
 276   0.0000       0.690815        18.7980 
 277   0.0000       0.691973        18.8295 
 278   0.0000       0.693377        18.8678 
 279   0.0000       0.698561        19.0088 
 280   0.0000       0.700250        19.0548 
 281   0.0000       0.703856        19.1529 
 282   0.0000       0.704686        19.1755 
 283   0.0000       0.708721        19.2853 
 284   0.0000       0.710568        19.3355 
 285   0.0000       0.715499        19.4697 
 286   0.0000       0.718047        19.5391 
 287   0.0000       0.720075        19.5942 
 288   0.0000       0.725704        19.7474 
 289   0.0000       0.727721        19.8023 
 290   0.0000       0.737880        20.0787 
 291   0.0000       0.738032        20.0829 
 292   0.0000       0.745605        20.2890 
 293   0.0000       0.759766        20.6743 
 294   0.0000       0.761277        20.7154 
 295   0.0000       0.774676        21.0800 
 296   0.0000       0.776439        21.1280 
 297   0.0000       0.784948        21.3595 
 298   0.0000       0.790992        21.5240 
 299   0.0000       0.796472        21.6731 
 300   0.0000       0.807017        21.9600 
 301   0.0000       0.809774        22.0351 
 302   0.0000       0.814555        22.1652 
 303   0.0000       0.818515        22.2729 
 304   0.0000       0.830073        22.5874 
 305   0.0000       0.834723        22.7140 
 306   0.0000       0.840766        22.8784 
 307   0.0000       0.841436        22.8966 
 308   0.0000       0.866369        23.5751 
 309   0.0000       0.868184        23.6245 
 310   0.0000       0.878144        23.8955 
 311   0.0000       0.880886        23.9701 
 312   0.0000       0.883004        24.0278 
 313   0.0000       0.886613        24.1260 
 314   0.0000       0.896063        24.3831 
 315   0.0000       0.900166        24.4947 
 316   0.0000       0.907728        24.7005 
 317   0.0000       0.911837        24.8123 
 318   0.0000       0.912034        24.8177 
 319   0.0000       0.922149        25.0930 
 320   0.0000       0.930449        25.3188 
 321   0.0000       0.934108        25.4184 
 322   0.0000       0.934832        25.4381 
 323   0.0000       0.945452        25.7271 
 324   0.0000       0.957431        26.0530 
 325   0.0000       0.964223        26.2378 
 326   0.0000       0.969432        26.3796 
 327   0.0000       0.970004        26.3952 
 328   0.0000       0.975076        26.5332 
 329   0.0000       0.980626        26.6842 
 330   0.0000       0.984298        26.7841 
 331   0.0000       0.989584        26.9279 
 332   0.0000       0.993799        27.0426 
 333   0.0000       0.995135        27.0790 
 334   0.0000       0.996041        27.1037 
 335   0.0000       1.000540        27.2261 
 336   0.0000       1.006559        27.3899 
 337   0.0000       1.010648        27.5011 
 338   0.0000       1.018327        27.7101 
 339   0.0000       1.021042        27.7840 
 340   0.0000       1.029165        28.0050 
 341   0.0000       1.029846        28.0235 
 342   0.0000       1.038064        28.2471 
 343   0.0000       1.045214        28.4417 
 344   0.0000       1.045991        28.4629 
 345   0.0000       1.046757        28.4837 
 346   0.0000       1.050967        28.5983 
 347   0.0000       1.056845        28.7582 
 348   0.0000       1.060718        28.8636 
 349   0.0000       1.065099        28.9828 
 350   0.0000       1.078933        29.3593 
 351   0.0000       1.081882        29.4395 
 352   0.0000       1.085292        29.5323 
 353   0.0000       1.088282        29.6137 
 354   0.0000       1.095642        29.8139 
 355   0.0000       1.103412        30.0254 
 356   0.0000       1.108599        30.1665 
 357   0.0000       1.116452        30.3802 
 358   0.0000       1.128583        30.7103 
 359   0.0000       1.136046        30.9134 
 360   0.0000       1.138385        30.9770 
 361   0.0000       1.152942        31.3731 
 362   0.0000       1.153165        31.3792 
 363   0.0000       1.163588        31.6628 
 364   0.0000       1.174537        31.9608 
 365   0.0000       1.182159        32.1682 
 366   0.0000       1.195492        32.5310 
 367   0.0000       1.203474        32.7482 
 368   0.0000       1.207094        32.8467 
 369   0.0000       1.210906        32.9504 
 370   0.0000       1.215034        33.0628 
 371   0.0000       1.218016        33.1439 
 372   0.0000       1.222788        33.2737 
 373   0.0000       1.224667        33.3249 
 374   0.0000       1.229306        33.4511 
 375   0.0000       1.250376        34.0245 
 376   0.0000       1.259295        34.2672 
 377   0.0000       1.261788        34.3350 
 378   0.0000       1.276562        34.7370 
 379   0.0000       1.279399        34.8142 
 380   0.0000       1.292978        35.1837 
 381   0.0000       1.294083        35.2138 
 382   0.0000       1.297668        35.3113 
 383   0.0000       1.301165        35.4065 
 384   0.0000       1.310130        35.6505 
 385   0.0000       1.315576        35.7987 
 386   0.0000       1.330170        36.1958 
 387   0.0000       1.333555        36.2879 
 388   0.0000       1.337972        36.4081 
 389   0.0000       1.346991        36.6535 
 390   0.0000       1.349290        36.7160 
 391   0.0000       1.372824        37.3564 
 392   0.0000       1.374060        37.3901 
 393   0.0000       1.379464        37.5371 
 394   0.0000       1.379735        37.5445 
 395   0.0000       1.389680        37.8151 
 396   0.0000       1.397090        38.0168 
 397   0.0000       1.398116        38.0447 
 398   0.0000       1.405161        38.2364 
 399   0.0000       1.411731        38.4152 
 400   0.0000       1.418475        38.5987 
 401   0.0000       1.423308        38.7302 
 402   0.0000       1.423689        38.7406 
 403   0.0000       1.424818        38.7713 
 404   0.0000       1.427090        38.8331 
 405   0.0000       1.429013        38.8854 
 406   0.0000       1.439523        39.1714 
 407   0.0000       1.445542        39.3352 
 408   0.0000       1.456995        39.6469 
 409   0.0000       1.459864        39.7249 
 410   0.0000       1.473760        40.1030 
 411   0.0000       1.474033        40.1105 
 412   0.0000       1.479318        40.2543 
 413   0.0000       1.483357        40.3642 
 414   0.0000       1.485242        40.4155 
 415   0.0000       1.486907        40.4608 
 416   0.0000       1.488361        40.5004 
 417   0.0000       1.491613        40.5889 
 418   0.0000       1.492170        40.6040 
 419   0.0000       1.493849        40.6497 
 420   0.0000       1.505162        40.9575 
 421   0.0000       1.515432        41.2370 
 422   0.0000       1.515776        41.2464 
 423   0.0000       1.522518        41.4298 
 424   0.0000       1.529631        41.6234 
 425   0.0000       1.536339        41.8059 
 426   0.0000       1.547037        42.0970 
 427   0.0000       1.568895        42.6918 
 428   0.0000       1.577034        42.9133 
 429   0.0000       1.577743        42.9326 
 430   0.0000       1.581228        43.0274 
 431   0.0000       1.584002        43.1029 
 432   0.0000       1.588542        43.2264 
 433   0.0000       1.592109        43.3235 
 434   0.0000       1.595463        43.4148 
 435   0.0000       1.595940        43.4277 
 436   0.0000       1.604043        43.6482 
 437   0.0000       1.607454        43.7410 
 438   0.0000       1.612320        43.8735 
 439   0.0000       1.614058        43.9207 
 440   0.0000       1.614175        43.9239 
 441   0.0000       1.622643        44.1544 
 442   0.0000       1.625666        44.2366 
 443   0.0000       1.626848        44.2688 
 444   0.0000       1.628880        44.3241 
 445   0.0000       1.634204        44.4690 
 446   0.0000       1.642460        44.6936 
 447   0.0000       1.645718        44.7823 
 448   0.0000       1.646325        44.7988 
 449   0.0000       1.651663        44.9440 
 450   0.0000       1.651782        44.9473 
 451   0.0000       1.655247        45.0416 
 452   0.0000       1.660700        45.1900 
 453   0.0000       1.669400        45.4267 
 454   0.0000       1.671906        45.4949 
 455   0.0000       1.676454        45.6186 
 456   0.0000       1.680643        45.7326 
 457   0.0000       1.681973        45.7688 
 458   0.0000       1.683517        45.8108 
 459   0.0000       1.684654        45.8418 
 460   0.0000       1.688268        45.9401 
 461   0.0000       1.692315        46.0502 
 462   0.0000       1.697912        46.2025 
 463   0.0000       1.699390        46.2428 
 464   0.0000       1.701486        46.2998 
 465   0.0000       1.703085        46.3433 
 466   0.0000       1.712670        46.6041 
 467   0.0000       1.715702        46.6866 
 468   0.0000       1.727194        46.9993 
 469   0.0000       1.730520        47.0899 
 470   0.0000       1.736339        47.2482 
 471   0.0000       1.739620        47.3375 
 472   0.0000       1.752949        47.7002 
 473   0.0000       1.761165        47.9237 
 474   0.0000       1.762344        47.9558 
 475   0.0000       1.763310        47.9821 
 476   0.0000       1.769325        48.1458 
 477   0.0000       1.769917        48.1619 
 478   0.0000       1.775752        48.3207 
 479   0.0000       1.777395        48.3654 
 480   0.0000       1.777888        48.3788 
 481   0.0000       1.784596        48.5613 
 482   0.0000       1.789736        48.7012 
 483   0.0000       1.793377        48.8003 
 484   0.0000       1.796950        48.8975 
 485   0.0000       1.797439        48.9108 
 486   0.0000       1.807657        49.1888 
 487   0.0000       1.809714        49.2448 
 488   0.0000       1.813904        49.3588 
 489   0.0000       1.821338        49.5611 
 490   0.0000       1.827215        49.7211 
 491   0.0000       1.830007        49.7970 
 492   0.0000       1.830104        49.7997 
 493   0.0000       1.833419        49.8899 
 494   0.0000       1.838893        50.0388 
 495   0.0000       1.846813        50.2543 
 496   0.0000       1.851017        50.3687 
 497   0.0000       1.856603        50.5207 
 498   0.0000       1.866544        50.7912 
 499   0.0000       1.883805        51.2610 
 500   0.0000       1.887340        51.3571 
 501   0.0000       1.899287        51.6822 
 502   0.0000       1.906917        51.8899 
[...]
 Nucleus  56H : A:ISTP=    1 I=  0.5 P=533.5514 MHz/au**3
                Q:ISTP=    2 I=  1.0 Q=  0.0029 barn     
 -----------------------------------------------------------
 Solving for nuclear perturbation:
Forming RHS of the CP-SCF equations         ... 
Calc. nucleus orbit integrals (SHARK)       ... done

------------------------------------------------------------------------------
                           ORCA CP-SCF CALCULATION
------------------------------------------------------------------------------

Input orbitals are from        ... cc-pVDZ_i.gbw
Input Perturbation             ... cc-pVDZ_i.pin.tmp
Wavefunction output            ... cc-pVDZ_i.pout.tmp
Perturbation mode              ... Imaginary perturbation
Solver                         ... POPLE
Max. number of iterations      ... 64
Convergence tolerance          ... 1.000e-03
Integral handling              ... Direct
DFT GridXC                     ... 1
COSX GridX                     ... 1
COSX IntAccX                   ... 3.067
COSX Algorithm                 ... Auto
Number of perturbations        ... 3
Number of operators            ... 2
Orbital ranges used for CP-SCF:
 Operator 0:  Orbitals   0...116  to 117...620
 Operator 1:  Orbitals   0...115  to 116...620
Variables per perturbation     ... 117548
DFT calculation                         ... on
XC functional terms                     ... off
Hybrid DFT                              ... on
   Exchange mixing (SCF)                ...  0.200
   Exchange mixing (CP-SCF)             ...  0.200
   GGA exch. scaling(SCF)               ...  0.720
   GGA exch. scaling (CP-SCF)           ...  0.720
   GGA corr. scaling (SCF)              ...  0.810
   GGA corr. scaling (CP-SCF)           ...  0.810

CP-SCF GRID
-----------

General Integration Accuracy     IntAcc      ... 3.467
Radial Grid Type                 RadialGrid  ... OptM3 with GC (2021)
Angular Grid (max. ang.)         AngularGrid ... 1 (Lebedev-50)
Angular grid pruning method      GridPruning ... 4 (adaptive)
Weight generation scheme         WeightScheme... Becke
Basis function cutoff            BFCut       ... 1.0000e-10
Integration weight cutoff        WCut        ... 1.0000e-14
Angular grids for H and He will be reduced by one unit
Partially contracted basis set               ... off
Rotationally invariant grid construction     ... off

Total number of grid points                  ...    42736
Total number of batches                      ...      693
Average number of points per batch           ...       61
Average number of grid points per atom       ...      678

CP-SCF GRIDX
------------

General Integration Accuracy     IntAcc      ... 3.067
Radial Grid Type                 RadialGrid  ... OptM3 with GC (2021)
Angular Grid (max. ang.)         AngularGrid ... 1 (Lebedev-50)
Angular grid pruning method      GridPruning ... 4 (adaptive)
Weight generation scheme         WeightScheme... Becke
Basis function cutoff            BFCut       ... 1.0000e-10
Integration weight cutoff        WCut        ... 1.0000e-14
Angular grids for H and He will be reduced by one unit
Partially contracted basis set               ... on
Rotationally invariant grid construction     ... off

Total number of grid points                  ...    19910
Total number of batches                      ...      351
Average number of points per batch           ...       56
Average number of grid points per atom       ...      316

Memory available               ... 821.6 MB
Memory needed per perturbation ...  24.3 MB
Perturbations treated per batch... 3
Number of batches              ... 1
     CP-SCF ITERATION   0:   4.7044e-02 (   3.1 sec   0/  3 done)
     CP-SCF ITERATION   1:   2.2188e-03 (   3.2 sec   0/  3 done)
     CP-SCF ITERATION   2:   1.4978e-04 (   3.4 sec   3/  3 done)
                    *** THE CP-SCF HAS CONVERGED ***

Forming final perturbed densities           ... done
Transforming perturbed density to AO basis  ... done

 Raw HFC matrix (all values in MHz): 
 -----------------------------------
                -1.0747               0.5874               0.0014
                 0.5872              -1.5531               0.0021
                 0.0014               0.0021              -2.5702

 A(FC)          -1.7331              -1.7331              -1.7331
 A(SD)           1.0527              -0.2157              -0.8369
 A(ORB+DIA)      0.0007               0.0007              -0.0002    A(PC) =   0.0004
 A(ORB)          0.0006               0.0006               0.0000    A(PC) =   0.0004
 A(DIA)          0.0001               0.0001              -0.0002    A(PC) =   0.0000
             ----------           ----------           ----------
 A(Tot)         -0.6797              -1.9481              -2.5702    A(iso)=   -1.7327
 Orientation: 
  X           0.8298090            0.5580475            0.0001801
  Y           0.5580462           -0.8298077            0.0019255
  Z           0.0012240           -0.0014973           -0.9999981

Notes:  (1) The A matrix conforms to the "SAI" spin Hamiltonian convention.
        (2) Tensor is right-handed.

 -----------------------------------------------------------
 Nucleus  57H : A:ISTP=    1 I=  0.5 P=533.5514 MHz/au**3
                Q:ISTP=    2 I=  1.0 Q=  0.0029 barn     
 -----------------------------------------------------------
 Solving for nuclear perturbation:
Forming RHS of the CP-SCF equations         ... 
Calc. nucleus orbit integrals (SHARK)       ... done

------------------------------------------------------------------------------
                           ORCA CP-SCF CALCULATION
------------------------------------------------------------------------------

Input orbitals are from        ... cc-pVDZ_i.gbw
Input Perturbation             ... cc-pVDZ_i.pin.tmp
Wavefunction output            ... cc-pVDZ_i.pout.tmp
Perturbation mode              ... Imaginary perturbation
Solver                         ... POPLE
Max. number of iterations      ... 64
Convergence tolerance          ... 1.000e-03
Integral handling              ... Direct
DFT GridXC                     ... 1
COSX GridX                     ... 1
COSX IntAccX                   ... 3.067
COSX Algorithm                 ... Auto
Number of perturbations        ... 3
Number of operators            ... 2
Orbital ranges used for CP-SCF:
 Operator 0:  Orbitals   0...116  to 117...620
 Operator 1:  Orbitals   0...115  to 116...620
Variables per perturbation     ... 117548
DFT calculation                         ... on
XC functional terms                     ... off
Hybrid DFT                              ... on
   Exchange mixing (SCF)                ...  0.200
   Exchange mixing (CP-SCF)             ...  0.200
   GGA exch. scaling(SCF)               ...  0.720
   GGA exch. scaling (CP-SCF)           ...  0.720
   GGA corr. scaling (SCF)              ...  0.810
   GGA corr. scaling (CP-SCF)           ...  0.810

CP-SCF GRID
-----------

General Integration Accuracy     IntAcc      ... 3.467
Radial Grid Type                 RadialGrid  ... OptM3 with GC (2021)
Angular Grid (max. ang.)         AngularGrid ... 1 (Lebedev-50)
Angular grid pruning method      GridPruning ... 4 (adaptive)
Weight generation scheme         WeightScheme... Becke
Basis function cutoff            BFCut       ... 1.0000e-10
Integration weight cutoff        WCut        ... 1.0000e-14
Angular grids for H and He will be reduced by one unit
Partially contracted basis set               ... off
Rotationally invariant grid construction     ... off

Total number of grid points                  ...    42736
Total number of batches                      ...      693
Average number of points per batch           ...       61
Average number of grid points per atom       ...      678

CP-SCF GRIDX
------------

General Integration Accuracy     IntAcc      ... 3.067
Radial Grid Type                 RadialGrid  ... OptM3 with GC (2021)
Angular Grid (max. ang.)         AngularGrid ... 1 (Lebedev-50)
Angular grid pruning method      GridPruning ... 4 (adaptive)
Weight generation scheme         WeightScheme... Becke
Basis function cutoff            BFCut       ... 1.0000e-10
Integration weight cutoff        WCut        ... 1.0000e-14
Angular grids for H and He will be reduced by one unit
Partially contracted basis set               ... on
Rotationally invariant grid construction     ... off

Total number of grid points                  ...    19910
Total number of batches                      ...      351
Average number of points per batch           ...       56
Average number of grid points per atom       ...      316

Memory available               ... 820.9 MB
Memory needed per perturbation ...  24.3 MB
Perturbations treated per batch... 3
Number of batches              ... 1
     CP-SCF ITERATION   0:   4.6842e-02 (   3.1 sec   0/  3 done)
     CP-SCF ITERATION   1:   2.1005e-03 (   3.3 sec   0/  3 done)
     CP-SCF ITERATION   2:   1.3873e-04 (   3.3 sec   3/  3 done)
                    *** THE CP-SCF HAS CONVERGED ***

Forming final perturbed densities           ... done
Transforming perturbed density to AO basis  ... done

 Raw HFC matrix (all values in MHz): 
 -----------------------------------
                -1.9193              -0.2408              -0.0003
                -0.2402              -1.0163               0.0028
                -0.0003               0.0028              -2.2585

 A(FC)          -1.7317              -1.7317              -1.7317
 A(SD)           0.7753              -0.2486              -0.5267
 A(ORB+DIA)      0.0002               0.0009              -0.0001    A(PC) =   0.0003
 A(ORB)          0.0000               0.0008               0.0000    A(PC) =   0.0003
 A(DIA)          0.0001               0.0001              -0.0001    A(PC) =   0.0001
             ----------           ----------           ----------
 A(Tot)         -0.9563              -1.9794              -2.2585    A(iso)=   -1.7314
 Orientation: 
  X          -0.2425314            0.9701433            0.0007415
  Y           0.9701412            0.2425290            0.0024047
  Z           0.0021531            0.0013026           -0.9999968

Notes:  (1) The A matrix conforms to the "SAI" spin Hamiltonian convention.
        (2) Tensor is right-handed.

 -----------------------------------------------------------
 Nucleus  58H : A:ISTP=    1 I=  0.5 P=533.5514 MHz/au**3
                Q:ISTP=    2 I=  1.0 Q=  0.0029 barn     
 -----------------------------------------------------------
 Solving for nuclear perturbation:
Forming RHS of the CP-SCF equations         ... 
Calc. nucleus orbit integrals (SHARK)       ... done

------------------------------------------------------------------------------
                           ORCA CP-SCF CALCULATION
------------------------------------------------------------------------------

Input orbitals are from        ... cc-pVDZ_i.gbw
Input Perturbation             ... cc-pVDZ_i.pin.tmp
Wavefunction output            ... cc-pVDZ_i.pout.tmp
Perturbation mode              ... Imaginary perturbation
Solver                         ... POPLE
Max. number of iterations      ... 64
Convergence tolerance          ... 1.000e-03
Integral handling              ... Direct
DFT GridXC                     ... 1
COSX GridX                     ... 1
COSX IntAccX                   ... 3.067
COSX Algorithm                 ... Auto
Number of perturbations        ... 3
Number of operators            ... 2
Orbital ranges used for CP-SCF:
 Operator 0:  Orbitals   0...116  to 117...620
 Operator 1:  Orbitals   0...115  to 116...620
Variables per perturbation     ... 117548
DFT calculation                         ... on
XC functional terms                     ... off
Hybrid DFT                              ... on
   Exchange mixing (SCF)                ...  0.200
   Exchange mixing (CP-SCF)             ...  0.200
   GGA exch. scaling(SCF)               ...  0.720
   GGA exch. scaling (CP-SCF)           ...  0.720
   GGA corr. scaling (SCF)              ...  0.810
   GGA corr. scaling (CP-SCF)           ...  0.810

CP-SCF GRID
-----------

General Integration Accuracy     IntAcc      ... 3.467
Radial Grid Type                 RadialGrid  ... OptM3 with GC (2021)
Angular Grid (max. ang.)         AngularGrid ... 1 (Lebedev-50)
Angular grid pruning method      GridPruning ... 4 (adaptive)
Weight generation scheme         WeightScheme... Becke
Basis function cutoff            BFCut       ... 1.0000e-10
Integration weight cutoff        WCut        ... 1.0000e-14
Angular grids for H and He will be reduced by one unit
Partially contracted basis set               ... off
Rotationally invariant grid construction     ... off

Total number of grid points                  ...    42736
Total number of batches                      ...      693
Average number of points per batch           ...       61
Average number of grid points per atom       ...      678

CP-SCF GRIDX
------------

General Integration Accuracy     IntAcc      ... 3.067
Radial Grid Type                 RadialGrid  ... OptM3 with GC (2021)
Angular Grid (max. ang.)         AngularGrid ... 1 (Lebedev-50)
Angular grid pruning method      GridPruning ... 4 (adaptive)
Weight generation scheme         WeightScheme... Becke
Basis function cutoff            BFCut       ... 1.0000e-10
Integration weight cutoff        WCut        ... 1.0000e-14
Angular grids for H and He will be reduced by one unit
Partially contracted basis set               ... on
Rotationally invariant grid construction     ... off

Total number of grid points                  ...    19910
Total number of batches                      ...      351
Average number of points per batch           ...       56
Average number of grid points per atom       ...      316

Memory available               ... 820.1 MB
Memory needed per perturbation ...  24.3 MB
Perturbations treated per batch... 3
Number of batches              ... 1
     CP-SCF ITERATION   0:   4.5313e-02 (   3.0 sec   0/  3 done)
     CP-SCF ITERATION   1:   1.9637e-03 (   3.2 sec   0/  3 done)
     CP-SCF ITERATION   2:   1.2595e-04 (   3.1 sec   3/  3 done)
                    *** THE CP-SCF HAS CONVERGED ***

Forming final perturbed densities           ... done
Transforming perturbed density to AO basis  ... done

 Raw HFC matrix (all values in MHz): 
 -----------------------------------
                 1.5182               0.3164               0.0002
                 0.3165               0.5766               0.0001
                 0.0002               0.0001               0.4416

 A(FC)           0.8455               0.8455               0.8455
 A(SD)          -0.4039              -0.3655               0.7694
 A(ORB+DIA)     -0.0000               0.0001              -0.0002    A(PC) =  -0.0001
 A(ORB)         -0.0000               0.0001              -0.0003    A(PC) =  -0.0001
 A(DIA)          0.0000              -0.0000               0.0000    A(PC) =   0.0000
             ----------           ----------           ----------
 A(Tot)          0.4416               0.4801               1.6147    A(iso)=    0.8455
 Orientation: 
  X           0.0000374           -0.2915629           -0.9565517
  Y          -0.0008166            0.9565513           -0.2915629
  Z           0.9999997            0.0007920           -0.0002023

Notes:  (1) The A matrix conforms to the "SAI" spin Hamiltonian convention.
        (2) Tensor is right-handed.


--------------------------------------------------------------------------------
----------------------------------------------------------------------------
                           ORCA EULER ANGLE PROGRAM
----------------------------------------------------------------------------

Only g-tensor available        -->  using g-tensor as reference tensor

Reference tensor               ...  g

g-tensor ordering              ...  |g_min> --> |gx>
                                    |g_mid> --> |gy>
                                    |g_max> --> |gz>

A- and EFG-tensor ordering     ...  the axes |Ax>, |Qx>, |Ay>, etc. are assigned
                                    such that the Euler rotation is minimal. You
                                    can find the respective eigenvalues as Ax,
                                    EFGx, Ay, etc. in the tables below.
                                    The relation of |Ax>, |Ay>,  etc. to Amin, Amid, etc.
                                    (as printed in the ORCA EPR/NMR CALCULATION Output)
                                    is obtained in the detailed printout.

Euler rotation around          ...  z - y - z
   First rotation              -->  by alpha around z
   Second rotation             -->  by beta around y'
   Third rotation              -->  by gamma around z''
   Positive / Negative angle   -->  clockwise / counterclockwise rotation

Plot EFG-tensors                    (-)
Plot HFC-tensors                    (-)
Detailed Printout                   (-)

-------------------------------------------------------------------------
          Euler rotation of hyperfine tensor to g-tensor
-------------------------------------------------------------------------

-------------------------------------------------------------------
 Atom  |   Alpha    Beta    Gamma   |   Ax       Ay       Az 
       |          [degrees]         |           [MHz]         
-------------------------------------------------------------------
  9H      -89.8      4.2     89.8     -16.01    -6.99   -19.54
 10H      -90.1      1.1     90.1       3.98     4.62     9.29
 12H       90.0     35.8    -90.0     -45.54   -70.21   -17.01
 14H     -163.6     14.5    146.5      56.24    65.67    57.54
 15H      -16.6     14.4     33.7      56.19    65.62    57.49
 17H     -143.0     35.3    115.2      -3.13    -2.97     3.12
 18H      -37.0     35.3     64.8      -3.13    -2.97     3.12
 20H       40.3     43.9    -20.3      -0.10     2.21     0.03
 21H      139.7     44.0   -159.7      -0.10     2.21     0.03
 23H       11.3     19.8     28.5      19.78    20.34    23.38
 24H      168.6     19.9    151.5      19.84    20.40    23.44
 26H       95.5     21.9    -82.7      -0.96     0.95    -0.84
 27H       85.0     21.9    -98.0      -0.96     0.95    -0.84
 29H     -113.7     37.5     75.7      -0.10    -0.15     0.79
 30H      -66.3     37.6    104.2      -0.10    -0.15     0.79
 32H       85.5     35.2    -93.6      -0.12     0.37    -0.10
 33H       94.7     35.2    -86.7      -0.12     0.37    -0.10
 35H       89.8     43.4    -89.7      -0.78     0.75    -0.80
 36H      -90.6     45.0     90.0      -0.13    -0.13     0.24
 43H       89.8     36.8    -90.0       0.41     0.63     0.22
 44H      -89.5      7.5     89.4      -0.29    -0.48    -0.11
 45H      -89.9     42.2     89.9       0.49     1.38     0.09
 46H       89.7     14.4    -89.8       0.54     0.10     1.32
 47H      -89.7     22.1     89.5      -0.31    -0.15    -0.43
 54H       89.9     38.7    -90.0      -1.35    -1.92    -0.41
 55H       89.9     26.1    -89.9       0.50     0.66     1.38
 56H      -89.8     20.7     89.8      -2.57    -0.68    -1.95
 57H      -89.9     40.6     89.9      -2.26    -1.98    -0.96
 58H      -89.8     37.7     89.8       0.44     1.61     0.48
-------------------------------------------------------------------


Maximum memory used throughout the entire EPRNMR-calculation: 333.7 MB

Timings for individual modules:

Sum of individual times         ...    13627.342 sec (= 227.122 min)
GTO integral calculation        ...        6.516 sec (=   0.109 min)   0.0 %
Spin-Orbit-Coupling Matrices    ...       15.403 sec (=   0.257 min)   0.1 %
SCF iterations                  ...      151.747 sec (=   2.529 min)   1.1 %
EPR/NMR calculation             ...    13453.676 sec (= 224.228 min)  98.7 %
                             ****ORCA TERMINATED NORMALLY****
TOTAL RUN TIME: 0 days 3 hours 47 minutes 11 seconds 551 msec
