
                                 *****************
                                 * O   R   C   A *
                                 *****************

                                            #,                                       
                                            ###                                      
                                            ####                                     
                                            #####                                    
                                            ######                                   
                                           ########,                                 
                                     ,,################,,,,,                         
                               ,,#################################,,                 
                          ,,##########################################,,             
                       ,#########################################, ''#####,          
                    ,#############################################,,   '####,        
                  ,##################################################,,,,####,       
                ,###########''''           ''''###############################       
              ,#####''   ,,,,##########,,,,          '''####'''          '####       
            ,##' ,,,,###########################,,,                        '##       
           ' ,,###''''                  '''############,,,                           
         ,,##''                                '''############,,,,        ,,,,,,###''
      ,#''                                            '''#######################'''  
     '                                                          ''''####''''         
             ,#######,   #######,   ,#######,      ##                                
            ,#'     '#,  ##    ##  ,#'     '#,    #''#        ######   ,####,        
            ##       ##  ##   ,#'  ##            #'  '#       #        #'  '#        
            ##       ##  #######   ##           ,######,      #####,   #    #        
            '#,     ,#'  ##    ##  '#,     ,#' ,#      #,         ##   #,  ,#        
             '#######'   ##     ##  '#######'  #'      '#     #####' # '####'        



                  #######################################################
                  #                        -***-                        #
                  #          Department of theory and spectroscopy      #
                  #    Directorship and core code : Frank Neese         #
                  #        Max Planck Institute fuer Kohlenforschung    #
                  #                Kaiser Wilhelm Platz 1               #
                  #                 D-45470 Muelheim/Ruhr               #
                  #                      Germany                        #
                  #                                                     #
                  #                  All rights reserved                #
                  #                        -***-                        #
                  #######################################################


                         Program Version 5.0.4 -  RELEASE  -


 With contributions from (in alphabetic order):
   Daniel Aravena         : Magnetic Suceptibility
   Michael Atanasov       : Ab Initio Ligand Field Theory (pilot matlab implementation)
   Alexander A. Auer      : GIAO ZORA, VPT2 properties, NMR spectrum
   Ute Becker             : Parallelization
   Giovanni Bistoni       : ED, misc. LED, open-shell LED, HFLD
   Martin Brehm           : Molecular dynamics
   Dmytro Bykov           : SCF Hessian
   Vijay G. Chilkuri      : MRCI spin determinant printing, contributions to CSF-ICE
   Dipayan Datta          : RHF DLPNO-CCSD density
   Achintya Kumar Dutta   : EOM-CC, STEOM-CC
   Dmitry Ganyushin       : Spin-Orbit,Spin-Spin,Magnetic field MRCI
   Miquel Garcia          : C-PCM and meta-GGA Hessian, CC/C-PCM, Gaussian charge scheme
   Yang Guo               : DLPNO-NEVPT2, F12-NEVPT2, CIM, IAO-localization
   Andreas Hansen         : Spin unrestricted coupled pair/coupled cluster methods
   Benjamin Helmich-Paris : MC-RPA, TRAH-SCF, COSX integrals
   Lee Huntington         : MR-EOM, pCC
   Robert Izsak           : Overlap fitted RIJCOSX, COSX-SCS-MP3, EOM
   Marcus Kettner         : VPT2
   Christian Kollmar      : KDIIS, OOCD, Brueckner-CCSD(T), CCSD density, CASPT2, CASPT2-K
   Simone Kossmann        : Meta GGA functionals, TD-DFT gradient, OOMP2, MP2 Hessian
   Martin Krupicka        : Initial AUTO-CI
   Lucas Lang             : DCDCAS
   Marvin Lechner         : AUTO-CI (C++ implementation), FIC-MRCC
   Dagmar Lenk            : GEPOL surface, SMD
   Dimitrios Liakos       : Extrapolation schemes; Compound Job, initial MDCI parallelization
   Dimitrios Manganas     : Further ROCIS development; embedding schemes
   Dimitrios Pantazis     : SARC Basis sets
   Anastasios Papadopoulos: AUTO-CI, single reference methods and gradients
   Taras Petrenko         : DFT Hessian,TD-DFT gradient, ASA, ECA, R-Raman, ABS, FL, XAS/XES, NRVS
   Peter Pinski           : DLPNO-MP2, DLPNO-MP2 Gradient
   Christoph Reimann      : Effective Core Potentials
   Marius Retegan         : Local ZFS, SOC
   Christoph Riplinger    : Optimizer, TS searches, QM/MM, DLPNO-CCSD(T), (RO)-DLPNO pert. Triples
   Tobias Risthaus        : Range-separated hybrids, TD-DFT gradient, RPA, STAB
   Michael Roemelt        : Original ROCIS implementation
   Masaaki Saitow         : Open-shell DLPNO-CCSD energy and density
   Barbara Sandhoefer     : DKH picture change effects
   Avijit Sen             : IP-ROCIS
   Kantharuban Sivalingam : CASSCF convergence, NEVPT2, FIC-MRCI
   Bernardo de Souza      : ESD, SOC TD-DFT
   Georgi Stoychev        : AutoAux, RI-MP2 NMR, DLPNO-MP2 response
   Willem Van den Heuvel  : Paramagnetic NMR
   Boris Wezisla          : Elementary symmetry handling
   Frank Wennmohs         : Technical directorship


 We gratefully acknowledge several colleagues who have allowed us to
 interface, adapt or use parts of their codes:
   Stefan Grimme, W. Hujo, H. Kruse, P. Pracht,  : VdW corrections, initial TS optimization,
                  C. Bannwarth, S. Ehlert          DFT functionals, gCP, sTDA/sTD-DF
   Ed Valeev, F. Pavosevic, A. Kumar             : LibInt (2-el integral package), F12 methods
   Garnet Chan, S. Sharma, J. Yang, R. Olivares  : DMRG
   Ulf Ekstrom                                   : XCFun DFT Library
   Mihaly Kallay                                 : mrcc  (arbitrary order and MRCC methods)
   Jiri Pittner, Ondrej Demel                    : Mk-CCSD
   Frank Weinhold                                : gennbo (NPA and NBO analysis)
   Christopher J. Cramer and Donald G. Truhlar   : smd solvation model
   Lars Goerigk                                  : TD-DFT with DH, B97 family of functionals
   V. Asgeirsson, H. Jonsson                     : NEB implementation
   FAccTs GmbH                                   : IRC, NEB, NEB-TS, DLPNO-Multilevel, CI-OPT
                                                   MM, QMMM, 2- and 3-layer-ONIOM, Crystal-QMMM,
                                                   LR-CPCM, SF, NACMEs, symmetry and pop. for TD-DFT,
                                                   nearIR, NL-DFT gradient (VV10), updates on ESD,
                                                   ML-optimized integration grids
   S Lehtola, MJT Oliveira, MAL Marques          : LibXC Library
   Liviu Ungur et al                             : ANISO software


 Your calculation uses the libint2 library for the computation of 2-el integrals
 For citations please refer to: http://libint.valeyev.net

 Your ORCA version has been built with support for libXC version: 5.1.0
 For citations please refer to: https://tddft.org/programs/libxc/

 This ORCA versions uses:
   CBLAS   interface :  Fast vector & matrix operations
   LAPACKE interface :  Fast linear algebra routines
   SCALAPACK package :  Parallel linear algebra routines
   Shared memory     :  Shared parallel matrices
   BLAS/LAPACK       :  OpenBLAS 0.3.15  USE64BITINT DYNAMIC_ARCH NO_AFFINITY SkylakeX SINGLE_THREADED
        Core in use  :  SkylakeX
   Copyright (c) 2011-2014, The OpenBLAS Project




***************************************
The coordinates will be read from file: opt.xyz
***************************************


================================================================================

----- Orbital basis set information -----
Your calculation utilizes the basis: cc-pVDZ 
       H, B-Ne : Obtained from the ccRepo (grant-hill.group.shef.ac.uk/ccrepo) Feb. 2017
                 T. H. Dunning, Jr., J. Chem. Phys. 90, 1007 (1989)
            He : Obtained from the ccRepo (grant-hill.group.shef.ac.uk/ccrepo) Feb. 2017
                 D. E. Woon, T. H. Dunning, Jr., J. Chem. Phys. 100, 2975 (1994)
  Li-Be, Na-Mg : Obtained from the ccRepo (grant-hill.group.shef.ac.uk/ccrepo) Feb. 2017
                 B. P. Prascher, D. E. Woon, K. A. Peterson, T. H. Dunning, Jr., A. K. Wilson, Theor. Chem. Acc. 128, 69 (2011)
         Al-Ar : Obtained from the ccRepo (grant-hill.group.shef.ac.uk/ccrepo) Feb. 2017
                 D. E. Woon, T. H. Dunning, Jr., J. Chem. Phys. 98, 1358 (1993)
            Ca : Obtained from the Peterson Research Group Website (tyr0.chem.wsu.edu/~kipeters) Feb. 2017
                 J. Koput, K. A. Peterson, J. Phys. Chem. 106, 9595 (2002)
         Sc-Zn : Obtained from the ccRepo (grant-hill.group.shef.ac.uk/ccrepo) Feb. 2017
                 N. B. Balabanov, K. A. Peterson, J. Chem. Phys. 123, 064107 (2005)
                 N. B. Balabanov, K. A. Peterson, J. Chem. Phys. 125, 074110 (2006)
         Ga-Kr : Obtained from the ccRepo (grant-hill.group.shef.ac.uk/ccrepo) Feb. 2017
                 A. K. Wilson, D. E. Woon, K. A. Peterson, T. H. Dunning, Jr., J. Chem. Phys. 110, 7667 (1999)

----- AuxJ basis set information -----
Your calculation utilizes the AutoAux generation procedure.
  G. L. Stoychev, A. A. Auer, F. Neese, J. Chem. Theory Comput. 13, 554 (2017)

----- AuxC basis set information -----
Your calculation utilizes the AutoAux generation procedure.
  G. L. Stoychev, A. A. Auer, F. Neese, J. Chem. Theory Comput. 13, 554 (2017)

----- AuxJK basis set information -----
Your calculation utilizes the AutoAux generation procedure.
  G. L. Stoychev, A. A. Auer, F. Neese, J. Chem. Theory Comput. 13, 554 (2017)

================================================================================
                                        WARNINGS
                       Please study these warnings very carefully!
================================================================================

WARNING: Old DensityContainer found on disk!
         Will remove this file - 
         If you want to keep old densities, please start your calculation with a different basename. 


WARNING: your system is open-shell and RHF/RKS was chosen
  ===> : WILL SWITCH to UHF/UKS


INFO   : the flag for use of the SHARK integral package has been found!

================================================================================
                                       INPUT FILE
================================================================================
NAME = cc-pVDZ.inp
|  1> ! B3LYP cc-pVDZ AUTOAUX
|  2> %pal nprocs 16 end
|  3> *XYZFile 0 2 opt.xyz
|  4> %EPRNMR
|  5>         GTENSOR   TRUE
|  6>         NUCLEI    = ALL H {SHIFT, AISO, ADIP, AORB}
|  7> END
|  8> 
|  9>                          ****END OF INPUT****
================================================================================

                       ****************************
                       * Single Point Calculation *
                       ****************************

---------------------------------
CARTESIAN COORDINATES (ANGSTROEM)
---------------------------------
  C     12.367468   -0.026690   -0.004521
  C     11.143536   -0.068421   -0.003249
  C      5.470105   -0.000456   -0.000953
  C      9.724522   -0.088645   -0.002867
  C      8.990628   -1.335024   -0.006403
  C      7.570759   -1.236349   -0.005487
  C      6.897637   -0.011889   -0.001450
  C      7.634424    1.217416    0.002056
  C      9.026112    1.135702    0.001259
  H      6.974675   -2.149130   -0.008114
  H      9.619812    2.049654    0.003881
  C      9.646865   -2.583921   -0.010645
  H     10.739981   -2.573932   -0.011197
  C      8.960510   -3.917165   -0.014594
  H      8.287887   -4.000132    0.864048
  H      8.286468   -3.994223   -0.892681
  C      9.932017   -5.104805   -0.019413
  H     10.591664   -5.026394   -0.902868
  H     10.593459   -5.032110    0.863189
  C      9.223189   -6.460465   -0.023106
  H      8.579052   -6.573687   -0.912248
  H      8.580972   -6.579530    0.866660
  C      6.888617    2.535280    0.006628
  H      6.209492    2.550134   -0.866458
  H      6.212355    2.545704    0.882021
  C      7.733771    3.811741    0.008515
  H      8.398339    3.820953    0.891977
  H      8.396097    3.824967   -0.876584
  C      6.878227    5.084572    0.012531
  H      6.210709    5.076758   -0.869130
  H      6.212980    5.072748    0.895865
  C      7.710095    6.369491    0.014397
  H      8.360072    6.427193   -0.875761
  H      8.362497    6.423053    0.903036
  C      4.247577    0.004948    0.000113
  H      9.945336   -7.292652   -0.026626
  H      7.068970    7.265890    0.017359
  C      2.821946    0.006500    0.000494
  C      2.097893   -1.206838   -0.000235
  C      0.707780   -1.204952    0.000050
  C     -0.010741    0.009504    0.001091
  C      0.710352    1.222515    0.001864
  C      2.100373    1.221345    0.001582
  H     -3.729592    0.014614    0.001756
  H      0.163384    2.167010    0.002651
  H      2.643820   -2.151876   -0.001021
  H      2.647986    2.165427    0.002150
  H      0.158864   -2.148310   -0.000515
  C     13.789722    0.031477   -0.005118
  C     14.565302   -1.150711   -0.007168
  C     15.953740   -1.090712   -0.007603
  C     16.621353    0.152770   -0.006014
  C     15.849687    1.334610   -0.003972
  C     14.461312    1.275873   -0.003524
  H     20.336530    0.314151   -0.006977
  H     16.356949    2.301040   -0.002743
  H     14.060641   -2.118439   -0.008361
  H     13.874663    2.196192   -0.001939
  H     16.541337   -2.010509   -0.009127
  C     18.050568    0.214344   -0.006425
  C     19.265095    0.266906   -0.006700
  C     -1.441545    0.011220    0.001350
  C     -2.657087    0.013045    0.001570

----------------------------
CARTESIAN COORDINATES (A.U.)
----------------------------
  NO LB      ZA    FRAG     MASS         X           Y           Z
   0 C     6.0000    0    12.011   23.371127   -0.050437   -0.008544
   1 C     6.0000    0    12.011   21.058231   -0.129298   -0.006139
   2 C     6.0000    0    12.011   10.337001   -0.000863   -0.001801
   3 C     6.0000    0    12.011   18.376683   -0.167515   -0.005419
   4 C     6.0000    0    12.011   16.989825   -2.522829   -0.012100
   5 C     6.0000    0    12.011   14.306661   -2.336361   -0.010368
   6 C     6.0000    0    12.011   13.034644   -0.022466   -0.002740
   7 C     6.0000    0    12.011   14.426971    2.300582    0.003886
   8 C     6.0000    0    12.011   17.056879    2.146165    0.002380
   9 H     1.0000    0     1.008   13.180226   -4.061267   -0.015334
  10 H     1.0000    0     1.008   18.178810    3.873284    0.007333
  11 C     6.0000    0    12.011   18.229932   -4.882903   -0.020115
  12 H     1.0000    0     1.008   20.295623   -4.864027   -0.021159
  13 C     6.0000    0    12.011   16.932910   -7.402370   -0.027579
  14 H     1.0000    0     1.008   15.661837   -7.559153    1.632815
  15 H     1.0000    0     1.008   15.659155   -7.547987   -1.686923
  16 C     6.0000    0    12.011   18.768793   -9.646684   -0.036684
  17 H     1.0000    0     1.008   20.015344   -9.498508   -1.706173
  18 H     1.0000    0     1.008   20.018735   -9.509311    1.631190
  19 C     6.0000    0    12.011   17.429302  -12.208509   -0.043665
  20 H     1.0000    0     1.008   16.212060  -12.422469   -1.723899
  21 H     1.0000    0     1.008   16.215687  -12.433511    1.637751
  22 C     6.0000    0    12.011   13.017600    4.790985    0.012525
  23 H     1.0000    0     1.008   11.734239    4.819054   -1.637369
  24 H     1.0000    0     1.008   11.739649    4.810684    1.666779
  25 C     6.0000    0    12.011   14.614710    7.203147    0.016092
  26 H     1.0000    0     1.008   15.870560    7.220554    1.685593
  27 H     1.0000    0     1.008   15.866324    7.228139   -1.656504
  28 C     6.0000    0    12.011   12.997964    9.608448    0.023680
  29 H     1.0000    0     1.008   11.736539    9.593681   -1.642418
  30 H     1.0000    0     1.008   11.740831    9.586104    1.692939
  31 C     6.0000    0    12.011   14.569969   12.036594    0.027206
  32 H     1.0000    0     1.008   15.798247   12.145635   -1.654948
  33 H     1.0000    0     1.008   15.802829   12.137812    1.706491
  34 C     6.0000    0    12.011    8.026758    0.009350    0.000214
  35 H     1.0000    0     1.008   18.793961  -13.781115   -0.050315
  36 H     1.0000    0     1.008   13.358418   13.730542    0.032803
  37 C     6.0000    0    12.011    5.332705    0.012283    0.000934
  38 C     6.0000    0    12.011    3.964444   -2.280593   -0.000445
  39 C     6.0000    0    12.011    1.337511   -2.277030    0.000095
  40 C     6.0000    0    12.011   -0.020297    0.017959    0.002061
  41 C     6.0000    0    12.011    1.342371    2.310219    0.003522
  42 C     6.0000    0    12.011    3.969130    2.308007    0.002990
  43 H     1.0000    0     1.008   -7.047908    0.027617    0.003319
  44 H     1.0000    0     1.008    0.308752    4.095056    0.005010
  45 H     1.0000    0     1.008    4.996095   -4.066456   -0.001929
  46 H     1.0000    0     1.008    5.003968    4.092065    0.004063
  47 H     1.0000    0     1.008    0.300210   -4.059718   -0.000974
  48 C     6.0000    0    12.011   26.058799    0.059483   -0.009671
  49 C     6.0000    0    12.011   27.524432   -2.174528   -0.013545
  50 C     6.0000    0    12.011   30.148200   -2.061147   -0.014368
  51 C     6.0000    0    12.011   31.409804    0.288694   -0.011365
  52 C     6.0000    0    12.011   29.951568    2.522047   -0.007506
  53 C     6.0000    0    12.011   27.327919    2.411051   -0.006659
  54 H     1.0000    0     1.008   38.430472    0.593660   -0.013185
  55 H     1.0000    0     1.008   30.910154    4.348335   -0.005184
  56 H     1.0000    0     1.008   26.570761   -4.003270   -0.015800
  57 H     1.0000    0     1.008   26.219314    4.150201   -0.003664
  58 H     1.0000    0     1.008   31.258597   -3.799311   -0.017248
  59 C     6.0000    0    12.011   34.110630    0.405052   -0.012142
  60 C     6.0000    0    12.011   36.405754    0.504380   -0.012661
  61 C     6.0000    0    12.011   -2.724125    0.021203    0.002552
  62 C     6.0000    0    12.011   -5.021166    0.024652    0.002966

--------------------------------
INTERNAL COORDINATES (ANGSTROEM)
--------------------------------
 C      0   0   0     0.000000000000     0.00000000     0.00000000
 C      1   0   0     1.224643686925     0.00000000     0.00000000
 C      2   1   0     5.673838187034   177.36060450     0.00000000
 C      2   1   3     1.419158494039   178.86285161     1.43629221
 C      4   2   1     1.446399644311   121.30681375   177.60152958
 C      5   4   2     1.423294321543   116.51483908   179.99210644
 C      6   5   4     1.397287531006   122.77429484     0.00000000
 C      7   6   5     1.433198517079   120.26481045     0.00000000
 C      8   7   6     1.394084566035   117.57601089     0.00000000
 H      6   5   4     1.090179668029   119.17055408   179.99617110
 H      9   8   7     1.089860143609   119.64710359   180.00196681
 C      5   4   2     1.410818582802   121.78998178     0.00000000
 H     12   5   4     1.093162195291   117.19618834     0.00000000
 C     12   5   4     1.499546135283   125.04101924   180.00552152
 H     14  12   5     1.109647473993   109.98868380   302.58882704
 H     14  12   5     1.109643094317   109.99004089    57.36111334
 C     14  12   5     1.534385319986   113.47720849   179.97395482
 H     17  14  12     1.105339216581   108.99338697   302.32673172
 H     17  14  12     1.105338729230   108.99421469    57.64500523
 C     17  14  12     1.529791696594   113.11306921   179.98724071
 H     20  17  14     1.103768414177   111.29981852    59.86793690
 H     20  17  14     1.103768376503   111.29944896   300.12115275
 C      8   7   6     1.514270525983   119.55729967   180.00950784
 H     23   8   7     1.106215238962   108.15986336   303.79724306
 H     23   8   7     1.106233928275   108.16030722    56.34969821
 C     23   8   7     1.530895836122   116.98482842   180.07184101
 H     26  23   8     1.105549548081   109.86405072   301.71437730
 H     26  23   8     1.105554571414   109.86002791    58.23506451
 C     26  23   8     1.533646095360   112.58388640   179.97493976
 H     29  26  23     1.105878174063   109.19422307   302.33229829
 H     29  26  23     1.105880647345   109.19562080    57.67282599
 C     29  26  23     1.530695104949   113.17331240   180.00234725
 H     32  29  26     1.103711805866   111.28120814    59.86478310
 H     32  29  26     1.103710395030   111.28184043   300.14489270
 C      3   2   1     1.222540304866   179.56611388   182.74903413
 H     20  17  14     1.101836114026   111.44632692   179.99430315
 H     32  29  26     1.102080221280   111.50748578   180.00470852
 C     35   3   7     1.425632241984   179.80597194   341.40060638
 C     38  35   3     1.412955207351   120.76401976    10.24474190
 C     39  38  35     1.390114262744   120.74868183   180.00412331
 C     40  39  38     1.411090737373   120.68797962     0.00000000
 C     41  40  39     1.411160347010   118.65974881     0.00000000
 C     42  41  40     1.390021364183   120.68173392     0.00000000
 H     41  40  39     3.718855155409   120.68900025   179.99822411
 H     42  41  40     1.091441798284   119.19437651   179.99883027
 H     39  38  35     1.091390276831   119.15957648     0.00000000
 H     43  42  41     1.091408165689   120.06748905   179.99779105
 H     40  39  38     1.091436344236   120.11630269   180.00025693
 C      1   2   4     1.423443597639   179.60920788     7.44143248
 C     49   1   2     1.413893907784   120.92509249   174.86520633
 C     50  49   1     1.389733854762   120.79266478   180.00683349
 C     51  50  49     1.411366850357   120.70523686     0.00000000
 C     52  51  50     1.411458844567   118.62720706     0.00000000
 C     53  52  51     1.389617312832   120.71944660     0.00000000
 H     52  51  50     3.718680648391   120.71811885   179.99640529
 H     53  52  51     1.091468470596   119.16391950   180.00061579
 H     50  49   1     1.091413049417   119.19138329     0.00000000
 H     54  53  52     1.091396032447   120.09260568   179.99998091
 H     51  50  49     1.091466534876   120.09740915   179.99604153
 C     52  51  50     1.430541355691   120.69775201   179.99826963
 C     55  52  51     1.072475526105     0.03755270   359.96619108
 C     41  40  39     1.430805003159   120.67899214   179.99839317
 C     44  41  40     1.072506840651     0.00507994     3.23432183

---------------------------
INTERNAL COORDINATES (A.U.)
---------------------------
 C      0   0   0     0.000000000000     0.00000000     0.00000000
 C      1   0   0     2.314241179924     0.00000000     0.00000000
 C      2   1   0    10.722000301679   177.36060450     0.00000000
 C      2   1   3     2.681820894361   178.86285161     1.43629221
 C      4   2   1     2.733299207949   121.30681375   177.60152958
 C      5   4   2     2.689636475681   116.51483908   179.99210644
 C      6   5   4     2.640490763944   122.77429484     0.00000000
 C      7   6   5     2.708352692821   120.26481045     0.00000000
 C      8   7   6     2.634438037332   117.57601089     0.00000000
 H      6   5   4     2.060141009344   119.17055408   179.99617110
 H      9   8   7     2.059537195697   119.64710359   180.00196681
 C      5   4   2     2.666060746143   121.78998178     0.00000000
 H     12   5   4     2.065777169056   117.19618834     0.00000000
 C     12   5   4     2.833731520865   125.04101924   180.00552152
 H     14  12   5     2.096929831044   109.98868380   302.58882704
 H     14  12   5     2.096921554655   109.99004089    57.36111334
 C     14  12   5     2.899568038683   113.47720849   179.97395482
 H     17  14  12     2.088788404421   108.99338697   302.32673172
 H     17  14  12     2.088787483462   108.99421469    57.64500523
 C     17  14  12     2.890887348510   113.11306921   179.98724071
 H     20  17  14     2.085820018067   111.29981852    59.86793690
 H     20  17  14     2.085819946873   111.29944896   300.12115275
 C      8   7   6     2.861556586777   119.55729967   180.00950784
 H     23   8   7     2.090443846808   108.15986336   303.79724306
 H     23   8   7     2.090479164493   108.16030722    56.34969821
 C     23   8   7     2.892973869831   116.98482842   180.07184101
 H     26  23   8     2.089185873353   109.86405072   301.71437730
 H     26  23   8     2.089195366078   109.86002791    58.23506451
 C     26  23   8     2.898171106589   112.58388640   179.97493976
 H     29  26  23     2.089806886460   109.19422307   302.33229829
 H     29  26  23     2.089811560285   109.19562080    57.67282599
 C     29  26  23     2.892594542888   113.17331240   180.00234725
 H     32  29  26     2.085713043862   111.28120814    59.86478310
 H     32  29  26     2.085710377769   111.28184043   300.14489270
 C      3   2   1     2.310266363877   179.56611388   182.74903413
 H     20  17  14     2.082168499973   111.44632692   179.99430315
 H     32  29  26     2.082629795831   111.50748578   180.00470852
 C     35   3   7     2.694054505037   179.80597194   341.40060638
 C     38  35   3     2.670098381392   120.76401976    10.24474190
 C     39  38  35     2.626935251443   120.74868183   180.00412331
 C     40  39  38     2.666575043749   120.68797962     0.00000000
 C     41  40  39     2.666706586898   118.65974881     0.00000000
 C     42  41  40     2.626759698605   120.68173392     0.00000000
 H     41  40  39     7.027617775444   120.68900025   179.99822411
 H     42  41  40     2.062526089870   119.19437651   179.99883027
 H     39  38  35     2.062428728434   119.15957648     0.00000000
 H     43  42  41     2.062462533477   120.06748905   179.99779105
 H     40  39  38     2.062515783214   120.11630269   180.00025693
 C      1   2   4     2.689918566621   179.60920788     7.44143248
 C     49   1   2     2.671872268132   120.92509249   174.86520633
 C     50  49   1     2.626216384538   120.79266478   180.00683349
 C     51  50  49     2.667096821670   120.70523686     0.00000000
 C     52  51  50     2.667270665532   118.62720706     0.00000000
 C     53  52  51     2.625996152207   120.71944660     0.00000000
 H     52  51  50     7.027288004972   120.71811885   179.99640529
 H     53  52  51     2.062576493237   119.16391950   180.00061579
 H     50  49   1     2.062471762386   119.19138329     0.00000000
 H     54  53  52     2.062439604972   120.09260568   179.99998091
 H     51  50  49     2.062572835256   120.09740915   179.99604153
 C     52  51  50     2.703331385504   120.69775201   179.99826963
 C     55  52  51     2.026685029672     0.03755270   359.96619108
 C     41  40  39     2.703829607015   120.67899214   179.99839317
 C     44  41  40     2.026744205587     0.00507994     3.23432183

---------------------
BASIS SET INFORMATION
---------------------
There are 2 groups of distinct atoms

 Group   1 Type C   : 17s4p1d contracted to 3s2p1d pattern {881/31/1}
 Group   2 Type H   : 4s1p contracted to 2s1p pattern {31/1}

Atom   0C    basis set group =>   1
Atom   1C    basis set group =>   1
Atom   2C    basis set group =>   1
Atom   3C    basis set group =>   1
Atom   4C    basis set group =>   1
Atom   5C    basis set group =>   1
Atom   6C    basis set group =>   1
Atom   7C    basis set group =>   1
Atom   8C    basis set group =>   1
Atom   9H    basis set group =>   2
Atom  10H    basis set group =>   2
Atom  11C    basis set group =>   1
Atom  12H    basis set group =>   2
Atom  13C    basis set group =>   1
Atom  14H    basis set group =>   2
Atom  15H    basis set group =>   2
Atom  16C    basis set group =>   1
Atom  17H    basis set group =>   2
Atom  18H    basis set group =>   2
Atom  19C    basis set group =>   1
Atom  20H    basis set group =>   2
Atom  21H    basis set group =>   2
Atom  22C    basis set group =>   1
Atom  23H    basis set group =>   2
Atom  24H    basis set group =>   2
Atom  25C    basis set group =>   1
Atom  26H    basis set group =>   2
Atom  27H    basis set group =>   2
Atom  28C    basis set group =>   1
Atom  29H    basis set group =>   2
Atom  30H    basis set group =>   2
Atom  31C    basis set group =>   1
Atom  32H    basis set group =>   2
Atom  33H    basis set group =>   2
Atom  34C    basis set group =>   1
Atom  35H    basis set group =>   2
Atom  36H    basis set group =>   2
Atom  37C    basis set group =>   1
Atom  38C    basis set group =>   1
Atom  39C    basis set group =>   1
Atom  40C    basis set group =>   1
Atom  41C    basis set group =>   1
Atom  42C    basis set group =>   1
Atom  43H    basis set group =>   2
Atom  44H    basis set group =>   2
Atom  45H    basis set group =>   2
Atom  46H    basis set group =>   2
Atom  47H    basis set group =>   2
Atom  48C    basis set group =>   1
Atom  49C    basis set group =>   1
Atom  50C    basis set group =>   1
Atom  51C    basis set group =>   1
Atom  52C    basis set group =>   1
Atom  53C    basis set group =>   1
Atom  54H    basis set group =>   2
Atom  55H    basis set group =>   2
Atom  56H    basis set group =>   2
Atom  57H    basis set group =>   2
Atom  58H    basis set group =>   2
Atom  59C    basis set group =>   1
Atom  60C    basis set group =>   1
Atom  61C    basis set group =>   1
Atom  62C    basis set group =>   1
---------------------------------
AUXILIARY/J BASIS SET INFORMATION
---------------------------------
There are 2 groups of distinct atoms

 Group   1 Type C   : 14s11p10d2f contracted to 14s11p10d2f pattern {11111111111111/11111111111/1111111111/11}
 Group   2 Type H   : 9s2p1d contracted to 9s2p1d pattern {111111111/11/1}

Atom   0C    basis set group =>   1
Atom   1C    basis set group =>   1
Atom   2C    basis set group =>   1
Atom   3C    basis set group =>   1
Atom   4C    basis set group =>   1
Atom   5C    basis set group =>   1
Atom   6C    basis set group =>   1
Atom   7C    basis set group =>   1
Atom   8C    basis set group =>   1
Atom   9H    basis set group =>   2
Atom  10H    basis set group =>   2
Atom  11C    basis set group =>   1
Atom  12H    basis set group =>   2
Atom  13C    basis set group =>   1
Atom  14H    basis set group =>   2
Atom  15H    basis set group =>   2
Atom  16C    basis set group =>   1
Atom  17H    basis set group =>   2
Atom  18H    basis set group =>   2
Atom  19C    basis set group =>   1
Atom  20H    basis set group =>   2
Atom  21H    basis set group =>   2
Atom  22C    basis set group =>   1
Atom  23H    basis set group =>   2
Atom  24H    basis set group =>   2
Atom  25C    basis set group =>   1
Atom  26H    basis set group =>   2
Atom  27H    basis set group =>   2
Atom  28C    basis set group =>   1
Atom  29H    basis set group =>   2
Atom  30H    basis set group =>   2
Atom  31C    basis set group =>   1
Atom  32H    basis set group =>   2
Atom  33H    basis set group =>   2
Atom  34C    basis set group =>   1
Atom  35H    basis set group =>   2
Atom  36H    basis set group =>   2
Atom  37C    basis set group =>   1
Atom  38C    basis set group =>   1
Atom  39C    basis set group =>   1
Atom  40C    basis set group =>   1
Atom  41C    basis set group =>   1
Atom  42C    basis set group =>   1
Atom  43H    basis set group =>   2
Atom  44H    basis set group =>   2
Atom  45H    basis set group =>   2
Atom  46H    basis set group =>   2
Atom  47H    basis set group =>   2
Atom  48C    basis set group =>   1
Atom  49C    basis set group =>   1
Atom  50C    basis set group =>   1
Atom  51C    basis set group =>   1
Atom  52C    basis set group =>   1
Atom  53C    basis set group =>   1
Atom  54H    basis set group =>   2
Atom  55H    basis set group =>   2
Atom  56H    basis set group =>   2
Atom  57H    basis set group =>   2
Atom  58H    basis set group =>   2
Atom  59C    basis set group =>   1
Atom  60C    basis set group =>   1
Atom  61C    basis set group =>   1
Atom  62C    basis set group =>   1
---------------------------------
AUXILIARY/C BASIS SET INFORMATION
---------------------------------
There are 2 groups of distinct atoms

 Group   1 Type C   : 14s11p10d2f contracted to 14s11p10d2f pattern {11111111111111/11111111111/1111111111/11}
 Group   2 Type H   : 9s2p1d contracted to 9s2p1d pattern {111111111/11/1}

Atom   0C    basis set group =>   1
Atom   1C    basis set group =>   1
Atom   2C    basis set group =>   1
Atom   3C    basis set group =>   1
Atom   4C    basis set group =>   1
Atom   5C    basis set group =>   1
Atom   6C    basis set group =>   1
Atom   7C    basis set group =>   1
Atom   8C    basis set group =>   1
Atom   9H    basis set group =>   2
Atom  10H    basis set group =>   2
Atom  11C    basis set group =>   1
Atom  12H    basis set group =>   2
Atom  13C    basis set group =>   1
Atom  14H    basis set group =>   2
Atom  15H    basis set group =>   2
Atom  16C    basis set group =>   1
Atom  17H    basis set group =>   2
Atom  18H    basis set group =>   2
Atom  19C    basis set group =>   1
Atom  20H    basis set group =>   2
Atom  21H    basis set group =>   2
Atom  22C    basis set group =>   1
Atom  23H    basis set group =>   2
Atom  24H    basis set group =>   2
Atom  25C    basis set group =>   1
Atom  26H    basis set group =>   2
Atom  27H    basis set group =>   2
Atom  28C    basis set group =>   1
Atom  29H    basis set group =>   2
Atom  30H    basis set group =>   2
Atom  31C    basis set group =>   1
Atom  32H    basis set group =>   2
Atom  33H    basis set group =>   2
Atom  34C    basis set group =>   1
Atom  35H    basis set group =>   2
Atom  36H    basis set group =>   2
Atom  37C    basis set group =>   1
Atom  38C    basis set group =>   1
Atom  39C    basis set group =>   1
Atom  40C    basis set group =>   1
Atom  41C    basis set group =>   1
Atom  42C    basis set group =>   1
Atom  43H    basis set group =>   2
Atom  44H    basis set group =>   2
Atom  45H    basis set group =>   2
Atom  46H    basis set group =>   2
Atom  47H    basis set group =>   2
Atom  48C    basis set group =>   1
Atom  49C    basis set group =>   1
Atom  50C    basis set group =>   1
Atom  51C    basis set group =>   1
Atom  52C    basis set group =>   1
Atom  53C    basis set group =>   1
Atom  54H    basis set group =>   2
Atom  55H    basis set group =>   2
Atom  56H    basis set group =>   2
Atom  57H    basis set group =>   2
Atom  58H    basis set group =>   2
Atom  59C    basis set group =>   1
Atom  60C    basis set group =>   1
Atom  61C    basis set group =>   1
Atom  62C    basis set group =>   1
----------------------------------
AUXILIARY/JK BASIS SET INFORMATION
----------------------------------
There are 2 groups of distinct atoms

 Group   1 Type C   : 14s11p10d2f contracted to 14s11p10d2f pattern {11111111111111/11111111111/1111111111/11}
 Group   2 Type H   : 9s2p1d contracted to 9s2p1d pattern {111111111/11/1}

Atom   0C    basis set group =>   1
Atom   1C    basis set group =>   1
Atom   2C    basis set group =>   1
Atom   3C    basis set group =>   1
Atom   4C    basis set group =>   1
Atom   5C    basis set group =>   1
Atom   6C    basis set group =>   1
Atom   7C    basis set group =>   1
Atom   8C    basis set group =>   1
Atom   9H    basis set group =>   2
Atom  10H    basis set group =>   2
Atom  11C    basis set group =>   1
Atom  12H    basis set group =>   2
Atom  13C    basis set group =>   1
Atom  14H    basis set group =>   2
Atom  15H    basis set group =>   2
Atom  16C    basis set group =>   1
Atom  17H    basis set group =>   2
Atom  18H    basis set group =>   2
Atom  19C    basis set group =>   1
Atom  20H    basis set group =>   2
Atom  21H    basis set group =>   2
Atom  22C    basis set group =>   1
Atom  23H    basis set group =>   2
Atom  24H    basis set group =>   2
Atom  25C    basis set group =>   1
Atom  26H    basis set group =>   2
Atom  27H    basis set group =>   2
Atom  28C    basis set group =>   1
Atom  29H    basis set group =>   2
Atom  30H    basis set group =>   2
Atom  31C    basis set group =>   1
Atom  32H    basis set group =>   2
Atom  33H    basis set group =>   2
Atom  34C    basis set group =>   1
Atom  35H    basis set group =>   2
Atom  36H    basis set group =>   2
Atom  37C    basis set group =>   1
Atom  38C    basis set group =>   1
Atom  39C    basis set group =>   1
Atom  40C    basis set group =>   1
Atom  41C    basis set group =>   1
Atom  42C    basis set group =>   1
Atom  43H    basis set group =>   2
Atom  44H    basis set group =>   2
Atom  45H    basis set group =>   2
Atom  46H    basis set group =>   2
Atom  47H    basis set group =>   2
Atom  48C    basis set group =>   1
Atom  49C    basis set group =>   1
Atom  50C    basis set group =>   1
Atom  51C    basis set group =>   1
Atom  52C    basis set group =>   1
Atom  53C    basis set group =>   1
Atom  54H    basis set group =>   2
Atom  55H    basis set group =>   2
Atom  56H    basis set group =>   2
Atom  57H    basis set group =>   2
Atom  58H    basis set group =>   2
Atom  59C    basis set group =>   1
Atom  60C    basis set group =>   1
Atom  61C    basis set group =>   1
Atom  62C    basis set group =>   1

Checking for AutoStart:
The File: cc-pVDZ.gbw exists
Trying to determine its content:
     ... Fine, the file contains calculation information
     ... Fine, the calculation information was read
     ... Fine, the file contains a basis set
     ... Fine, the basis set was read
     ... Fine, the file contains a geometry
     ... Fine, the geometry was read
     ... Fine, the file contains a set of orbitals
     ... Fine, the orbitals can be read
     => possible old guess file was deleted
     => GBW file was renamed to GES file
     => GES file is set as startup file
     => Guess is set to MORead
     ... now leaving AutoStart



           ************************************************************
           *        Program running with 16 parallel MPI-processes    *
           *              working on a common directory               *
           ************************************************************
------------------------------------------------------------------------------
                           ORCA GTO INTEGRAL CALCULATION
                           -- RI-GTO INTEGRALS CHOSEN --
------------------------------------------------------------------------------
------------------------------------------------------------------------------
                   ___                                                        
                  /   \      - P O W E R E D   B Y -                         
                 /     \                                                     
                 |  |  |   _    _      __       _____    __    __             
                 |  |  |  | |  | |    /  \     |  _  \  |  |  /  |          
                  \  \/   | |  | |   /    \    | | | |  |  | /  /          
                 / \  \   | |__| |  /  /\  \   | |_| |  |  |/  /          
                |  |  |   |  __  | /  /__\  \  |    /   |      \           
                |  |  |   | |  | | |   __   |  |    \   |  |\   \          
                \     /   | |  | | |  |  |  |  | |\  \  |  | \   \       
                 \___/    |_|  |_| |__|  |__|  |_| \__\ |__|  \__/        
                                                                              
                      - O R C A' S   B I G   F R I E N D -                    
                                      &                                       
                       - I N T E G R A L  F E E D E R -                       
                                                                              
 v1 FN, 2020, v2 2021                                                         
------------------------------------------------------------------------------


Reading SHARK input file cc-pVDZ.SHARKINP.tmp ... ok
----------------------
SHARK INTEGRAL PACKAGE
----------------------

Number of atoms                             ...     63
Number of basis functions                   ...    825
Number of shells                            ...    495
Maximum angular momentum                    ...      2
Integral batch strategy                     ... SHARK/LIBINT Hybrid
RI-J (if used) integral strategy            ... SPLIT-RIJ (Revised 2003 algorithm where possible)
Printlevel                                  ...      1
Contraction scheme used                     ... PARTIAL GENERAL contraction
Coulomb Range Separation                    ... NOT USED
Exchange Range Separation                   ... NOT USED
Finite Nucleus Model                        ... NOT USED
Auxiliary Coulomb fitting basis             ... AVAILABLE
   # of basis functions in Aux-J            ...   4354
   # of shells in Aux-J                     ...   1606
   Maximum angular momentum in Aux-J        ...      3
Auxiliary J/K fitting basis                 ... AVAILABLE
   # of basis functions in Aux-JK           ...   4354
   # of shells in Aux-JK                    ...   1606
   Maximum angular momentum in Aux-JK       ...      3
Auxiliary Correlation fitting basis         ... AVAILABLE
   # of basis functions in Aux-C            ...   4354
   # of shells in Aux-C                     ...   1606
   Maximum angular momentum in Aux-C        ...      3
Auxiliary 'external' fitting basis          ... NOT available
Integral threshold                          ...     1.000000e-10
Primitive cut-off                           ...     1.000000e-11
Primitive pair pre-selection threshold      ...     1.000000e-11

Calculating pre-screening integrals         ... done (  0.0 sec) Dimension = 495
Calculating pre-screening integrals (ORCA)  ... done (  0.1 sec) Dimension = 291
Organizing shell pair data                  ... done (  0.2 sec)
Shell pair information
Total number of shell pairs                 ...    122760
Shell pairs after pre-screening             ...     35062
Total number of primitive shell pairs       ...    193320
Primitive shell pairs kept                  ...     46517
          la=0 lb=0:  14912 shell pairs
          la=1 lb=0:  12456 shell pairs
          la=1 lb=1:   2233 shell pairs
          la=2 lb=0:   3830 shell pairs
          la=2 lb=1:   1394 shell pairs
          la=2 lb=2:    237 shell pairs

Calculating one electron integrals          ... done (  0.1 sec)
Calculating RI/J V-Matrix + Cholesky decomp.... done (  1.1 sec)
Calculating RI/JK V-Matrix + Cholesky decomp... done (  1.1 sec)
Calculating RI/C V-Matrix + Cholesky decomp.... done (  1.1 sec)
Calculating Nuclear repulsion               ... done (  0.0 sec) ENN=   2735.916553133097 Eh

SHARK setup successfully completed in   4.3 seconds

Maximum memory used throughout the entire GTOINT-calculation: 65.4 MB


           ************************************************************
           *        Program running with 16 parallel MPI-processes    *
           *              working on a common directory               *
           ************************************************************
-------------------------------------------------------------------------------
                                 ORCA SCF
-------------------------------------------------------------------------------

------------
SCF SETTINGS
------------
Hamiltonian:
 Density Functional     Method          .... DFT(GTOs)
 Exchange Functional    Exchange        .... B88
   X-Alpha parameter    XAlpha          ....  0.666667
   Becke's b parameter  XBeta           ....  0.004200
 Correlation Functional Correlation     .... LYP
 LDA part of GGA corr.  LDAOpt          .... VWN-5
 Gradients option       PostSCFGGA      .... off
 Hybrid DFT is turned on
   Fraction HF Exchange ScalHFX         ....  0.200000
   Scaling of DF-GGA-X  ScalDFX         ....  0.720000
   Scaling of DF-GGA-C  ScalDFC         ....  0.810000
   Scaling of DF-LDA-C  ScalLDAC        ....  1.000000
   Perturbative correction              ....  0.000000
   Density functional embedding theory  .... OFF
   NL short-range parameter             ....  4.800000
 RI-approximation to the Coulomb term is turned on
   Number of AuxJ basis functions       .... 4354
   RIJ-COSX (HFX calculated with COS-X)).... on


General Settings:
 Integral files         IntName         .... cc-pVDZ
 Hartree-Fock type      HFTyp           .... UHF
 Total Charge           Charge          ....    0
 Multiplicity           Mult            ....    2
 Number of Electrons    NEL             ....  233
 Basis Dimension        Dim             ....  621
 Nuclear Repulsion      ENuc            ....   2735.9165531331 Eh

Convergence Acceleration:
 DIIS                   CNVDIIS         .... on
   Start iteration      DIISMaxIt       ....    12
   Startup error        DIISStart       ....  0.200000
   # of expansion vecs  DIISMaxEq       ....     5
   Bias factor          DIISBfac        ....   1.050
   Max. coefficient     DIISMaxC        ....  10.000
 Trust-Rad. Augm. Hess. CNVTRAH         .... auto
   Auto Start mean grad. ratio tolernc. ....  1.125000
   Auto Start start iteration           ....     1
   Auto Start num. interpolation iter.  ....    10
   Max. Number of Micro iterations      ....    16
   Max. Number of Macro iterations      .... Maxiter - #DIIS iter
   Number of Davidson start vectors     ....     2
   Converg. threshold I  (grad. norm)   ....   5.000e-05
   Converg. threshold II (energy diff.) ....   1.000e-06
   Grad. Scal. Fac. for Micro threshold ....   0.100
   Minimum threshold for Micro iter.    ....   0.010
   NR start threshold (gradient norm)   ....   0.001
   Initial trust radius                 ....   0.400
   Minimum AH scaling param. (alpha)    ....   1.000
   Maximum AH scaling param. (alpha)    .... 1000.000
   Orbital update algorithm             .... Taylor
   White noise on init. David. guess    .... on
   Maximum white noise                  ....   0.010
   Quad. conv. algorithm                .... NR
 SOSCF                  CNVSOSCF        .... off
 Level Shifting         CNVShift        .... on
   Level shift para.    LevelShift      ....    0.2500
   Turn off err/grad.   ShiftErr        ....    0.0010
 Zerner damping         CNVZerner       .... off
 Static damping         CNVDamp         .... on
   Fraction old density DampFac         ....    0.7000
   Max. Damping (<1)    DampMax         ....    0.9800
   Min. Damping (>=0)   DampMin         ....    0.0000
   Turn off err/grad.   DampErr         ....    0.1000
 Fernandez-Rico         CNVRico         .... off

SCF Procedure:
 Maximum # iterations   MaxIter         ....   125
 SCF integral mode      SCFMode         .... Direct
   Integral package                     .... SHARK and LIBINT hybrid scheme
 Reset frequency        DirectResetFreq ....    20
 Integral Threshold     Thresh          ....  1.000e-10 Eh
 Primitive CutOff       TCut            ....  1.000e-11 Eh

Convergence Tolerance:
 Convergence Check Mode ConvCheckMode   .... Total+1el-Energy
 Convergence forced     ConvForced      .... 0
 Energy Change          TolE            ....  1.000e-06 Eh
 1-El. energy change                    ....  1.000e-03 Eh
 DIIS Error             TolErr          ....  1.000e-06


Diagonalization of the overlap matrix:
Smallest eigenvalue                        ... 4.461e-05
Time for diagonalization                   ...    0.075 sec
Threshold for overlap eigenvalues          ... 1.000e-08
Number of eigenvalues below threshold      ... 0
Time for construction of square roots      ...    0.071 sec
Total time needed                          ...    0.148 sec

---------------------
INITIAL GUESS: MOREAD
---------------------
Guess MOs are being read from file: cc-pVDZ.ges
Input Geometry matches current geometry (good)
Input basis set matches current basis set (good)
MOs were renormalized
MOs were reorthogonalized (Cholesky)
                      ------------------
                      INITIAL GUESS DONE (   0.3 sec)
                      ------------------
-------------------
DFT GRID GENERATION
-------------------

General Integration Accuracy     IntAcc      ... 4.388
Radial Grid Type                 RadialGrid  ... OptM3 with GC (2021)
Angular Grid (max. ang.)         AngularGrid ... 4 (Lebedev-302)
Angular grid pruning method      GridPruning ... 4 (adaptive)
Weight generation scheme         WeightScheme... Becke
Basis function cutoff            BFCut       ... 1.0000e-10
Integration weight cutoff        WCut        ... 1.0000e-14
Angular grids for H and He will be reduced by one unit
Partially contracted basis set               ... off
Rotationally invariant grid construction     ... off

Total number of grid points                  ...   295746
Total number of batches                      ...     4659
Average number of points per batch           ...       63
Average number of grid points per atom       ...     4694
Time for grid setup =    1.970 sec

--------------------
COSX GRID GENERATION
--------------------

GRIDX 1
-------
General Integration Accuracy     IntAcc      ... 3.816
Radial Grid Type                 RadialGrid  ... OptM3 with GC (2021)
Angular Grid (max. ang.)         AngularGrid ... 1 (Lebedev-50)
Angular grid pruning method      GridPruning ... 4 (adaptive)
Weight generation scheme         WeightScheme... Becke
Basis function cutoff            BFCut       ... 1.0000e-10
Integration weight cutoff        WCut        ... 1.0000e-14
Angular grids for H and He will be reduced by one unit
Partially contracted basis set               ... on
Rotationally invariant grid construction     ... off

Total number of grid points                  ...    37650
Total number of batches                      ...      626
Average number of points per batch           ...       60
Average number of grid points per atom       ...      598
UseSFitting                                  ... on

GRIDX 2
-------
General Integration Accuracy     IntAcc      ... 4.020
Radial Grid Type                 RadialGrid  ... OptM3 with GC (2021)
Angular Grid (max. ang.)         AngularGrid ... 2 (Lebedev-110)
Angular grid pruning method      GridPruning ... 4 (adaptive)
Weight generation scheme         WeightScheme... Becke
Basis function cutoff            BFCut       ... 1.0000e-10
Integration weight cutoff        WCut        ... 1.0000e-14
Angular grids for H and He will be reduced by one unit
Partially contracted basis set               ... on
Rotationally invariant grid construction     ... off

Total number of grid points                  ...    81060
Total number of batches                      ...     1297
Average number of points per batch           ...       62
Average number of grid points per atom       ...     1287
UseSFitting                                  ... on

GRIDX 3
-------
General Integration Accuracy     IntAcc      ... 4.338
Radial Grid Type                 RadialGrid  ... OptM3 with GC (2021)
Angular Grid (max. ang.)         AngularGrid ... 3 (Lebedev-194)
Angular grid pruning method      GridPruning ... 4 (adaptive)
Weight generation scheme         WeightScheme... Becke
Basis function cutoff            BFCut       ... 1.0000e-10
Integration weight cutoff        WCut        ... 1.0000e-14
Angular grids for H and He will be reduced by one unit
Partially contracted basis set               ... on
Rotationally invariant grid construction     ... off

Total number of grid points                  ...   177420
Total number of batches                      ...     2807
Average number of points per batch           ...       63
Average number of grid points per atom       ...     2816
UseSFitting                                  ... on

Time for X-Grid setup             =    3.039 sec

 re-compute Schwartz prescreening matrix in partically contracted basis (1) ...done (   0.115 sec)
--------------
SCF ITERATIONS
--------------
ITER       Energy         Delta-E        Max-DP      RMS-DP      [F,P]     Damp
               ***  Starting incremental Fock matrix formation  ***
  0  -1312.0489675131   0.000000000000 0.00008375  0.00000038  0.0000486 0.7000
                 **** Energy Check signals convergence ****

               *****************************************************
               *                     SUCCESS                       *
               *           SCF CONVERGED AFTER   1 CYCLES          *
               *****************************************************

Old exchange energy                            =    -37.268572356 Eh
New exchange energy                            =    -37.268698976 Eh
Exchange energy change after final integration =     -0.000126619 Eh
Total energy after final integration           =  -1312.049093905 Eh
Final COS-X integration done in                =    13.914 sec

----------------
TOTAL SCF ENERGY
----------------

Total Energy       :        -1312.04909390 Eh          -35702.67093 eV

Components:
Nuclear Repulsion  :         2735.91655313 Eh           74448.07428 eV
Electronic Energy  :        -4047.96564704 Eh         -110150.74521 eV
One Electron Energy:        -7208.06607727 Eh         -196141.44960 eV
Two Electron Energy:         3160.10043023 Eh           85990.70439 eV
Max COSX asymmetry :            0.00000079 Eh               0.00002 eV

Virial components:
Potential Energy   :        -2615.24781098 Eh          -71164.51087 eV
Kinetic Energy     :         1303.19871707 Eh           35461.83994 eV
Virial Ratio       :            2.00679127


DFT components:
N(Alpha)           :      117.000158228079 electrons
N(Beta)            :      116.000145296933 electrons
N(Total)           :      233.000303525012 electrons
E(X)               :     -147.897490731137 Eh       
E(C)               :       -9.123532130044 Eh       
E(XC)              :     -157.021022861181 Eh       
DFET-embed. en.    :        0.000000000000 Eh       

---------------
SCF CONVERGENCE
---------------

  Last Energy change         ...    2.2784e-07  Tolerance :   1.0000e-06
  Last MAX-Density change    ...    2.5081e-05  Tolerance :   1.0000e-05
  Last RMS-Density change    ...    1.1504e-07  Tolerance :   1.0000e-06
  Last DIIS Error            ...    3.1821e-05  Tolerance :   1.0000e-06

             **** THE GBW FILE WAS UPDATED (cc-pVDZ.gbw) ****
             **** DENSITY cc-pVDZ.scfp WAS UPDATED ****
             **** ENERGY FILE WAS UPDATED (cc-pVDZ.en.tmp) ****
----------------------
UHF SPIN CONTAMINATION
----------------------

Warning: in a DFT calculation there is little theoretical justification to 
         calculate <S**2> as in Hartree-Fock theory. We will do it anyways
         but you should keep in mind that the values have only limited relevance

Expectation value of <S**2>     :     0.789178
Ideal value S*(S+1) for S=0.5   :     0.750000
Deviation                       :     0.039178

             **** THE GBW FILE WAS UPDATED (cc-pVDZ.gbw) ****
             **** DENSITY cc-pVDZ.scfp WAS UPDATED ****
----------------
ORBITAL ENERGIES
----------------
                 SPIN UP ORBITALS
  NO   OCC          E(Eh)            E(eV) 
   0   1.0000     -10.223863      -278.2055 
   1   1.0000     -10.222800      -278.1765 
   2   1.0000     -10.222210      -278.1605 
   3   1.0000     -10.221276      -278.1351 
   4   1.0000     -10.217901      -278.0432 
   5   1.0000     -10.215729      -277.9841 
   6   1.0000     -10.205906      -277.7168 
   7   1.0000     -10.204406      -277.6760 
   8   1.0000     -10.204340      -277.6742 
   9   1.0000     -10.203714      -277.6572 
  10   1.0000     -10.203612      -277.6544 
  11   1.0000     -10.202836      -277.6333 
  12   1.0000     -10.202708      -277.6298 
  13   1.0000     -10.202329      -277.6195 
  14   1.0000     -10.202171      -277.6152 
  15   1.0000     -10.201885      -277.6074 
  16   1.0000     -10.198283      -277.5094 
  17   1.0000     -10.195985      -277.4469 
  18   1.0000     -10.195761      -277.4408 
  19   1.0000     -10.195158      -277.4244 
  20   1.0000     -10.194363      -277.4027 
  21   1.0000     -10.193973      -277.3921 
  22   1.0000     -10.193456      -277.3780 
  23   1.0000     -10.192971      -277.3648 
  24   1.0000     -10.191946      -277.3369 
  25   1.0000     -10.191153      -277.3154 
  26   1.0000     -10.190906      -277.3087 
  27   1.0000     -10.190051      -277.2854 
  28   1.0000     -10.189578      -277.2725 
  29   1.0000     -10.186631      -277.1923 
  30   1.0000     -10.184443      -277.1328 
  31   1.0000     -10.184153      -277.1249 
  32   1.0000     -10.179296      -276.9927 
  33   1.0000     -10.177583      -276.9461 
  34   1.0000      -0.877869       -23.8880 
  35   1.0000      -0.875347       -23.8194 
  36   1.0000      -0.873888       -23.7797 
  37   1.0000      -0.824136       -22.4259 
  38   1.0000      -0.809050       -22.0154 
  39   1.0000      -0.806165       -21.9369 
  40   1.0000      -0.798929       -21.7400 
  41   1.0000      -0.793144       -21.5825 
  42   1.0000      -0.771002       -20.9800 
  43   1.0000      -0.759724       -20.6732 
  44   1.0000      -0.758696       -20.6452 
  45   1.0000      -0.758396       -20.6370 
  46   1.0000      -0.746277       -20.3072 
  47   1.0000      -0.736975       -20.0541 
  48   1.0000      -0.725977       -19.7548 
  49   1.0000      -0.712941       -19.4001 
  50   1.0000      -0.700417       -19.0593 
  51   1.0000      -0.660757       -17.9801 
  52   1.0000      -0.658105       -17.9079 
  53   1.0000      -0.642344       -17.4791 
  54   1.0000      -0.623387       -16.9632 
  55   1.0000      -0.619258       -16.8509 
  56   1.0000      -0.618611       -16.8333 
  57   1.0000      -0.617685       -16.8081 
  58   1.0000      -0.594916       -16.1885 
  59   1.0000      -0.582818       -15.8593 
  60   1.0000      -0.564751       -15.3677 
  61   1.0000      -0.553278       -15.0555 
  62   1.0000      -0.551988       -15.0204 
  63   1.0000      -0.542790       -14.7701 
  64   1.0000      -0.534275       -14.5384 
  65   1.0000      -0.510465       -13.8905 
  66   1.0000      -0.507338       -13.8054 
  67   1.0000      -0.496983       -13.5236 
  68   1.0000      -0.492467       -13.4007 
  69   1.0000      -0.482323       -13.1247 
  70   1.0000      -0.473382       -12.8814 
  71   1.0000      -0.473234       -12.8773 
  72   1.0000      -0.471550       -12.8315 
  73   1.0000      -0.464978       -12.6527 
  74   1.0000      -0.445680       -12.1276 
  75   1.0000      -0.444087       -12.0842 
  76   1.0000      -0.436316       -11.8728 
  77   1.0000      -0.432697       -11.7743 
  78   1.0000      -0.431224       -11.7342 
  79   1.0000      -0.429805       -11.6956 
  80   1.0000      -0.428850       -11.6696 
  81   1.0000      -0.424745       -11.5579 
  82   1.0000      -0.414385       -11.2760 
  83   1.0000      -0.401929       -10.9370 
  84   1.0000      -0.401782       -10.9330 
  85   1.0000      -0.394759       -10.7420 
  86   1.0000      -0.393809       -10.7161 
  87   1.0000      -0.386291       -10.5115 
  88   1.0000      -0.385275       -10.4839 
  89   1.0000      -0.382112       -10.3978 
  90   1.0000      -0.381600       -10.3839 
  91   1.0000      -0.368069       -10.0157 
  92   1.0000      -0.361214        -9.8291 
  93   1.0000      -0.360252        -9.8030 
  94   1.0000      -0.359113        -9.7720 
  95   1.0000      -0.358219        -9.7476 
  96   1.0000      -0.345065        -9.3897 
  97   1.0000      -0.343147        -9.3375 
  98   1.0000      -0.336077        -9.1451 
  99   1.0000      -0.335336        -9.1249 
 100   1.0000      -0.331356        -9.0167 
 101   1.0000      -0.330321        -8.9885 
 102   1.0000      -0.326968        -8.8973 
 103   1.0000      -0.325719        -8.8633 
 104   1.0000      -0.312125        -8.4934 
 105   1.0000      -0.285662        -7.7733 
 106   1.0000      -0.280204        -7.6247 
 107   1.0000      -0.278865        -7.5883 
 108   1.0000      -0.275155        -7.4874 
 109   1.0000      -0.273425        -7.4403 
 110   1.0000      -0.271738        -7.3944 
 111   1.0000      -0.266772        -7.2592 
 112   1.0000      -0.265966        -7.2373 
 113   1.0000      -0.260233        -7.0813 
 114   1.0000      -0.230397        -6.2694 
 115   1.0000      -0.209792        -5.7087 
 116   1.0000      -0.173921        -4.7326 
 117   0.0000      -0.076337        -2.0772 
 118   0.0000      -0.049428        -1.3450 
 119   0.0000      -0.016635        -0.4527 
 120   0.0000      -0.015477        -0.4211 
 121   0.0000      -0.014426        -0.3925 
 122   0.0000       0.011526         0.3136 
 123   0.0000       0.034680         0.9437 
 124   0.0000       0.039504         1.0750 
 125   0.0000       0.046123         1.2551 
 126   0.0000       0.049257         1.3403 
 127   0.0000       0.049947         1.3591 
 128   0.0000       0.053631         1.4594 
 129   0.0000       0.055897         1.5210 
 130   0.0000       0.061059         1.6615 
 131   0.0000       0.064091         1.7440 
 132   0.0000       0.071547         1.9469 
 133   0.0000       0.076942         2.0937 
 134   0.0000       0.080113         2.1800 
 135   0.0000       0.086242         2.3468 
 136   0.0000       0.087200         2.3728 
 137   0.0000       0.090339         2.4583 
 138   0.0000       0.090738         2.4691 
 139   0.0000       0.092350         2.5130 
 140   0.0000       0.100618         2.7380 
 141   0.0000       0.100714         2.7406 
 142   0.0000       0.104713         2.8494 
 143   0.0000       0.109785         2.9874 
 144   0.0000       0.117785         3.2051 
 145   0.0000       0.119865         3.2617 
 146   0.0000       0.127175         3.4606 
 147   0.0000       0.133006         3.6193 
 148   0.0000       0.139325         3.7912 
 149   0.0000       0.141970         3.8632 
 150   0.0000       0.142891         3.8883 
 151   0.0000       0.150048         4.0830 
 152   0.0000       0.153896         4.1877 
 153   0.0000       0.157304         4.2805 
 154   0.0000       0.157853         4.2954 
 155   0.0000       0.159749         4.3470 
 156   0.0000       0.164637         4.4800 
 157   0.0000       0.169347         4.6082 
 158   0.0000       0.171235         4.6595 
 159   0.0000       0.171660         4.6711 
 160   0.0000       0.179068         4.8727 
 161   0.0000       0.197325         5.3695 
 162   0.0000       0.197760         5.3813 
 163   0.0000       0.198391         5.3985 
 164   0.0000       0.204332         5.5602 
 165   0.0000       0.214204         5.8288 
 166   0.0000       0.214716         5.8427 
 167   0.0000       0.215055         5.8519 
 168   0.0000       0.221437         6.0256 
 169   0.0000       0.240609         6.5473 
 170   0.0000       0.242103         6.5880 
 171   0.0000       0.253521         6.8987 
 172   0.0000       0.255378         6.9492 
 173   0.0000       0.269912         7.3447 
 174   0.0000       0.272737         7.4216 
 175   0.0000       0.277785         7.5589 
 176   0.0000       0.278139         7.5686 
 177   0.0000       0.280901         7.6437 
 178   0.0000       0.287027         7.8104 
 179   0.0000       0.293087         7.9753 
 180   0.0000       0.305257         8.3065 
 181   0.0000       0.309727         8.4281 
 182   0.0000       0.328933         8.9507 
 183   0.0000       0.329463         8.9651 
 184   0.0000       0.343106         9.3364 
 185   0.0000       0.343995         9.3606 
 186   0.0000       0.350166         9.5285 
 187   0.0000       0.352409         9.5895 
 188   0.0000       0.367662        10.0046 
 189   0.0000       0.372018        10.1231 
 190   0.0000       0.376115        10.2346 
 191   0.0000       0.393233        10.7004 
 192   0.0000       0.402308        10.9474 
 193   0.0000       0.407379        11.0854 
 194   0.0000       0.409489        11.1428 
 195   0.0000       0.411027        11.1846 
 196   0.0000       0.414501        11.2792 
 197   0.0000       0.416958        11.3460 
 198   0.0000       0.428890        11.6707 
 199   0.0000       0.431776        11.7492 
 200   0.0000       0.435640        11.8544 
 201   0.0000       0.436976        11.8907 
 202   0.0000       0.439088        11.9482 
 203   0.0000       0.441218        12.0062 
 204   0.0000       0.444818        12.1041 
 205   0.0000       0.445969        12.1354 
 206   0.0000       0.449963        12.2441 
 207   0.0000       0.454237        12.3604 
 208   0.0000       0.456753        12.4289 
 209   0.0000       0.458327        12.4717 
 210   0.0000       0.460111        12.5203 
 211   0.0000       0.461514        12.5584 
 212   0.0000       0.466833        12.7032 
 213   0.0000       0.475213        12.9312 
 214   0.0000       0.475919        12.9504 
 215   0.0000       0.481626        13.1057 
 216   0.0000       0.488563        13.2945 
 217   0.0000       0.491531        13.3752 
 218   0.0000       0.495723        13.4893 
 219   0.0000       0.496192        13.5021 
 220   0.0000       0.499009        13.5787 
 221   0.0000       0.501410        13.6440 
 222   0.0000       0.503867        13.7109 
 223   0.0000       0.506958        13.7950 
 224   0.0000       0.507932        13.8215 
 225   0.0000       0.509610        13.8672 
 226   0.0000       0.510034        13.8787 
 227   0.0000       0.510966        13.9041 
 228   0.0000       0.512509        13.9461 
 229   0.0000       0.514368        13.9967 
 230   0.0000       0.519029        14.1235 
 231   0.0000       0.523841        14.2544 
 232   0.0000       0.530875        14.4458 
 233   0.0000       0.534902        14.5554 
 234   0.0000       0.541221        14.7274 
 235   0.0000       0.546098        14.8601 
 236   0.0000       0.550614        14.9830 
 237   0.0000       0.553588        15.0639 
 238   0.0000       0.561228        15.2718 
 239   0.0000       0.576310        15.6822 
 240   0.0000       0.578506        15.7420 
 241   0.0000       0.580181        15.7875 
 242   0.0000       0.581609        15.8264 
 243   0.0000       0.593755        16.1569 
 244   0.0000       0.593909        16.1611 
 245   0.0000       0.597665        16.2633 
 246   0.0000       0.604101        16.4384 
 247   0.0000       0.612164        16.6578 
 248   0.0000       0.616467        16.7749 
 249   0.0000       0.617016        16.7899 
 250   0.0000       0.617258        16.7965 
 251   0.0000       0.620116        16.8742 
 252   0.0000       0.623876        16.9765 
 253   0.0000       0.628385        17.0992 
 254   0.0000       0.632990        17.2245 
 255   0.0000       0.635820        17.3015 
 256   0.0000       0.639775        17.4092 
 257   0.0000       0.641018        17.4430 
 258   0.0000       0.645334        17.5604 
 259   0.0000       0.647690        17.6245 
 260   0.0000       0.650633        17.7046 
 261   0.0000       0.653762        17.7898 
 262   0.0000       0.656185        17.8557 
 263   0.0000       0.657966        17.9042 
 264   0.0000       0.658607        17.9216 
 265   0.0000       0.660259        17.9666 
 266   0.0000       0.663969        18.0675 
 267   0.0000       0.665400        18.1065 
 268   0.0000       0.665922        18.1207 
 269   0.0000       0.669948        18.2302 
 270   0.0000       0.670688        18.2504 
 271   0.0000       0.672338        18.2952 
 272   0.0000       0.679702        18.4956 
 273   0.0000       0.685301        18.6480 
 274   0.0000       0.686457        18.6794 
 275   0.0000       0.690040        18.7769 
 276   0.0000       0.690833        18.7985 
 277   0.0000       0.691981        18.8298 
 278   0.0000       0.693387        18.8680 
 279   0.0000       0.698566        19.0090 
 280   0.0000       0.700251        19.0548 
 281   0.0000       0.703857        19.1529 
 282   0.0000       0.704690        19.1756 
 283   0.0000       0.708732        19.2856 
 284   0.0000       0.710578        19.3358 
 285   0.0000       0.715503        19.4698 
 286   0.0000       0.718070        19.5397 
 287   0.0000       0.720086        19.5945 
 288   0.0000       0.725720        19.7478 
 289   0.0000       0.727732        19.8026 
 290   0.0000       0.737889        20.0790 
 291   0.0000       0.738046        20.0833 
 292   0.0000       0.745612        20.2891 
 293   0.0000       0.759777        20.6746 
 294   0.0000       0.761280        20.7155 
 295   0.0000       0.774681        21.0801 
 296   0.0000       0.776454        21.1284 
 297   0.0000       0.784958        21.3598 
 298   0.0000       0.791029        21.5250 
 299   0.0000       0.796480        21.6733 
 300   0.0000       0.807021        21.9602 
 301   0.0000       0.809778        22.0352 
 302   0.0000       0.814565        22.1655 
 303   0.0000       0.818522        22.2731 
 304   0.0000       0.830074        22.5875 
 305   0.0000       0.834730        22.7142 
 306   0.0000       0.840772        22.8786 
 307   0.0000       0.841430        22.8965 
 308   0.0000       0.866382        23.5755 
 309   0.0000       0.868182        23.6244 
 310   0.0000       0.878149        23.8957 
 311   0.0000       0.880928        23.9713 
 312   0.0000       0.883021        24.0282 
 313   0.0000       0.886632        24.1265 
 314   0.0000       0.896074        24.3834 
 315   0.0000       0.900188        24.4954 
 316   0.0000       0.907736        24.7007 
 317   0.0000       0.911857        24.8129 
 318   0.0000       0.912034        24.8177 
 319   0.0000       0.922165        25.0934 
 320   0.0000       0.930483        25.3197 
 321   0.0000       0.934127        25.4189 
 322   0.0000       0.934842        25.4383 
 323   0.0000       0.945456        25.7272 
 324   0.0000       0.957444        26.0534 
 325   0.0000       0.964246        26.2385 
 326   0.0000       0.969467        26.3805 
 327   0.0000       0.970037        26.3960 
 328   0.0000       0.975101        26.5339 
 329   0.0000       0.980643        26.6847 
 330   0.0000       0.984310        26.7844 
 331   0.0000       0.989604        26.9285 
 332   0.0000       0.993827        27.0434 
 333   0.0000       0.995153        27.0795 
 334   0.0000       0.996072        27.1045 
 335   0.0000       1.000543        27.2261 
 336   0.0000       1.006579        27.3904 
 337   0.0000       1.010669        27.5017 
 338   0.0000       1.018349        27.7107 
 339   0.0000       1.021058        27.7844 
 340   0.0000       1.029187        28.0056 
 341   0.0000       1.029849        28.0236 
 342   0.0000       1.038087        28.2478 
 343   0.0000       1.045239        28.4424 
 344   0.0000       1.046006        28.4633 
 345   0.0000       1.046771        28.4841 
 346   0.0000       1.050979        28.5986 
 347   0.0000       1.056856        28.7585 
 348   0.0000       1.060709        28.8634 
 349   0.0000       1.065100        28.9829 
 350   0.0000       1.078945        29.3596 
 351   0.0000       1.081898        29.4399 
 352   0.0000       1.085313        29.5329 
 353   0.0000       1.088306        29.6143 
 354   0.0000       1.095658        29.8144 
 355   0.0000       1.103411        30.0253 
 356   0.0000       1.108626        30.1673 
 357   0.0000       1.116483        30.3811 
 358   0.0000       1.128590        30.7105 
 359   0.0000       1.136039        30.9132 
 360   0.0000       1.138388        30.9771 
 361   0.0000       1.152950        31.3734 
 362   0.0000       1.153177        31.3795 
 363   0.0000       1.163593        31.6630 
 364   0.0000       1.174550        31.9611 
 365   0.0000       1.182190        32.1690 
 366   0.0000       1.195504        32.5313 
 367   0.0000       1.203470        32.7481 
 368   0.0000       1.207088        32.8465 
 369   0.0000       1.210913        32.9506 
 370   0.0000       1.215033        33.0627 
 371   0.0000       1.218018        33.1440 
 372   0.0000       1.222796        33.2740 
 373   0.0000       1.224676        33.3251 
 374   0.0000       1.229301        33.4510 
 375   0.0000       1.250382        34.0246 
 376   0.0000       1.259288        34.2670 
 377   0.0000       1.261790        34.3351 
 378   0.0000       1.276578        34.7374 
 379   0.0000       1.279409        34.8145 
 380   0.0000       1.292955        35.1831 
 381   0.0000       1.294084        35.2138 
 382   0.0000       1.297684        35.3118 
 383   0.0000       1.301178        35.4069 
 384   0.0000       1.310120        35.6502 
 385   0.0000       1.315571        35.7985 
 386   0.0000       1.330178        36.1960 
 387   0.0000       1.333569        36.2883 
 388   0.0000       1.337983        36.4084 
 389   0.0000       1.346992        36.6535 
 390   0.0000       1.349298        36.7163 
 391   0.0000       1.372830        37.3566 
 392   0.0000       1.374110        37.3914 
 393   0.0000       1.379471        37.5373 
 394   0.0000       1.379751        37.5449 
 395   0.0000       1.389692        37.8154 
 396   0.0000       1.397078        38.0164 
 397   0.0000       1.398123        38.0449 
 398   0.0000       1.405166        38.2365 
 399   0.0000       1.411754        38.4158 
 400   0.0000       1.418500        38.5994 
 401   0.0000       1.423304        38.7301 
 402   0.0000       1.423685        38.7404 
 403   0.0000       1.424806        38.7709 
 404   0.0000       1.427094        38.8332 
 405   0.0000       1.429021        38.8856 
 406   0.0000       1.439538        39.1718 
 407   0.0000       1.445543        39.3352 
 408   0.0000       1.457015        39.6474 
 409   0.0000       1.459887        39.7255 
 410   0.0000       1.473769        40.1033 
 411   0.0000       1.474053        40.1110 
 412   0.0000       1.479325        40.2545 
 413   0.0000       1.483363        40.3644 
 414   0.0000       1.485261        40.4160 
 415   0.0000       1.486920        40.4611 
 416   0.0000       1.488366        40.5005 
 417   0.0000       1.491625        40.5892 
 418   0.0000       1.492174        40.6041 
 419   0.0000       1.493867        40.6502 
 420   0.0000       1.505174        40.9579 
 421   0.0000       1.515459        41.2377 
 422   0.0000       1.515788        41.2467 
 423   0.0000       1.522528        41.4301 
 424   0.0000       1.529652        41.6239 
 425   0.0000       1.536352        41.8063 
 426   0.0000       1.547043        42.0972 
 427   0.0000       1.568900        42.6919 
 428   0.0000       1.577032        42.9132 
 429   0.0000       1.577739        42.9324 
 430   0.0000       1.581248        43.0279 
 431   0.0000       1.584006        43.1030 
 432   0.0000       1.588553        43.2267 
 433   0.0000       1.592138        43.3243 
 434   0.0000       1.595482        43.4153 
 435   0.0000       1.595941        43.4278 
 436   0.0000       1.604063        43.6488 
 437   0.0000       1.607472        43.7415 
 438   0.0000       1.612335        43.8739 
 439   0.0000       1.614067        43.9210 
 440   0.0000       1.614173        43.9239 
 441   0.0000       1.622638        44.1542 
 442   0.0000       1.625680        44.2370 
 443   0.0000       1.626841        44.2686 
 444   0.0000       1.628871        44.3238 
 445   0.0000       1.634214        44.4692 
 446   0.0000       1.642457        44.6935 
 447   0.0000       1.645715        44.7822 
 448   0.0000       1.646333        44.7990 
 449   0.0000       1.651675        44.9444 
 450   0.0000       1.651785        44.9474 
 451   0.0000       1.655240        45.0414 
 452   0.0000       1.660704        45.1901 
 453   0.0000       1.669401        45.4267 
 454   0.0000       1.671907        45.4949 
 455   0.0000       1.676459        45.6188 
 456   0.0000       1.680643        45.7326 
 457   0.0000       1.681993        45.7694 
 458   0.0000       1.683531        45.8112 
 459   0.0000       1.684652        45.8417 
 460   0.0000       1.688273        45.9403 
 461   0.0000       1.692314        46.0502 
 462   0.0000       1.697917        46.2027 
 463   0.0000       1.699386        46.2426 
 464   0.0000       1.701496        46.3001 
 465   0.0000       1.703087        46.3433 
 466   0.0000       1.712666        46.6040 
 467   0.0000       1.715697        46.6865 
 468   0.0000       1.727200        46.9995 
 469   0.0000       1.730553        47.0907 
 470   0.0000       1.736341        47.2482 
 471   0.0000       1.739631        47.3378 
 472   0.0000       1.752941        47.7000 
 473   0.0000       1.761178        47.9241 
 474   0.0000       1.762372        47.9566 
 475   0.0000       1.763328        47.9826 
 476   0.0000       1.769332        48.1460 
 477   0.0000       1.769922        48.1620 
 478   0.0000       1.775766        48.3210 
 479   0.0000       1.777391        48.3653 
 480   0.0000       1.777904        48.3792 
 481   0.0000       1.784614        48.5618 
 482   0.0000       1.789746        48.7015 
 483   0.0000       1.793402        48.8009 
 484   0.0000       1.796953        48.8976 
 485   0.0000       1.797451        48.9111 
 486   0.0000       1.807661        49.1890 
 487   0.0000       1.809727        49.2452 
 488   0.0000       1.813934        49.3597 
 489   0.0000       1.821354        49.5616 
 490   0.0000       1.827220        49.7212 
 491   0.0000       1.830004        49.7970 
 492   0.0000       1.830115        49.8000 
 493   0.0000       1.833429        49.8901 
 494   0.0000       1.838912        50.0393 
 495   0.0000       1.846841        50.2551 
 496   0.0000       1.851029        50.3691 
 497   0.0000       1.856621        50.5212 
 498   0.0000       1.866557        50.7916 
 499   0.0000       1.883817        51.2613 
 500   0.0000       1.887347        51.3573 
 501   0.0000       1.899313        51.6829 
 502   0.0000       1.906924        51.8901 
 503   0.0000       1.915496        52.1233 
 504   0.0000       1.917779        52.1854 
 505   0.0000       1.919379        52.2289 
 506   0.0000       1.920756        52.2664 
 507   0.0000       1.927156        52.4406 
 508   0.0000       1.932059        52.5740 
 509   0.0000       1.932931        52.5977 
 510   0.0000       1.946697        52.9723 
 511   0.0000       1.948914        53.0327 
 512   0.0000       1.954824        53.1935 
 513   0.0000       1.961375        53.3717 
 514   0.0000       1.969738        53.5993 
 515   0.0000       1.971052        53.6351 
 516   0.0000       1.973915        53.7129 
 517   0.0000       1.988904        54.1208 
 518   0.0000       1.996840        54.3368 
 519   0.0000       2.001307        54.4583 
 520   0.0000       2.013018        54.7770 
 521   0.0000       2.027784        55.1788 
 522   0.0000       2.032113        55.2966 
 523   0.0000       2.034012        55.3483 
 524   0.0000       2.045016        55.6477 
 525   0.0000       2.045226        55.6534 
 526   0.0000       2.055292        55.9273 
 527   0.0000       2.070572        56.3431 
 528   0.0000       2.078773        56.5663 
 529   0.0000       2.080848        56.6228 
 530   0.0000       2.089417        56.8559 
 531   0.0000       2.103962        57.2517 
 532   0.0000       2.122222        57.7486 
 533   0.0000       2.128015        57.9062 
[...]

 -----------------------------------------------------------
 Nucleus  56H : A:ISTP=    1 I=  0.5 P=533.5514 MHz/au**3
                Q:ISTP=    2 I=  1.0 Q=  0.0029 barn     
 -----------------------------------------------------------
 Solving for nuclear perturbation:
Forming RHS of the CP-SCF equations         ... 
Calc. nucleus orbit integrals (SHARK)       ... done

------------------------------------------------------------------------------
                           ORCA CP-SCF CALCULATION
------------------------------------------------------------------------------

Input orbitals are from        ... cc-pVDZ.gbw
Input Perturbation             ... cc-pVDZ.pin.tmp
Wavefunction output            ... cc-pVDZ.pout.tmp
Perturbation mode              ... Imaginary perturbation
Solver                         ... POPLE
Max. number of iterations      ... 64
Convergence tolerance          ... 1.000e-03
Integral handling              ... Direct
DFT GridXC                     ... 1
COSX GridX                     ... 1
COSX IntAccX                   ... 3.067
COSX Algorithm                 ... Auto
Number of perturbations        ... 3
Number of operators            ... 2
Orbital ranges used for CP-SCF:
 Operator 0:  Orbitals   0...116  to 117...620
 Operator 1:  Orbitals   0...115  to 116...620
Variables per perturbation     ... 117548
DFT calculation                         ... on
XC functional terms                     ... off
Hybrid DFT                              ... on
   Exchange mixing (SCF)                ...  0.200
   Exchange mixing (CP-SCF)             ...  0.200
   GGA exch. scaling(SCF)               ...  0.720
   GGA exch. scaling (CP-SCF)           ...  0.720
   GGA corr. scaling (SCF)              ...  0.810
   GGA corr. scaling (CP-SCF)           ...  0.810

CP-SCF GRID
-----------

General Integration Accuracy     IntAcc      ... 3.467
Radial Grid Type                 RadialGrid  ... OptM3 with GC (2021)
Angular Grid (max. ang.)         AngularGrid ... 1 (Lebedev-50)
Angular grid pruning method      GridPruning ... 4 (adaptive)
Weight generation scheme         WeightScheme... Becke
Basis function cutoff            BFCut       ... 1.0000e-10
Integration weight cutoff        WCut        ... 1.0000e-14
Angular grids for H and He will be reduced by one unit
Partially contracted basis set               ... off
Rotationally invariant grid construction     ... off

Total number of grid points                  ...    42736
Total number of batches                      ...      693
Average number of points per batch           ...       61
Average number of grid points per atom       ...      678

CP-SCF GRIDX
------------

General Integration Accuracy     IntAcc      ... 3.067
Radial Grid Type                 RadialGrid  ... OptM3 with GC (2021)
Angular Grid (max. ang.)         AngularGrid ... 1 (Lebedev-50)
Angular grid pruning method      GridPruning ... 4 (adaptive)
Weight generation scheme         WeightScheme... Becke
Basis function cutoff            BFCut       ... 1.0000e-10
Integration weight cutoff        WCut        ... 1.0000e-14
Angular grids for H and He will be reduced by one unit
Partially contracted basis set               ... on
Rotationally invariant grid construction     ... off

Total number of grid points                  ...    19910
Total number of batches                      ...      351
Average number of points per batch           ...       56
Average number of grid points per atom       ...      316

Memory available               ... 821.6 MB
Memory needed per perturbation ...  24.3 MB
Perturbations treated per batch... 3
Number of batches              ... 1
     CP-SCF ITERATION   0:   4.7043e-02 (   3.2 sec   0/  3 done)
     CP-SCF ITERATION   1:   2.2186e-03 (   3.2 sec   0/  3 done)
     CP-SCF ITERATION   2:   1.4974e-04 (   3.2 sec   3/  3 done)
                    *** THE CP-SCF HAS CONVERGED ***

Forming final perturbed densities           ... done
Transforming perturbed density to AO basis  ... done

 Raw HFC matrix (all values in MHz): 
 -----------------------------------
                -1.0835               0.5887               0.0014
                 0.5885              -1.5596               0.0021
                 0.0014               0.0021              -2.5784

 A(FC)          -1.7409              -1.7409              -1.7409
 A(SD)           1.0536              -0.2163              -0.8373
 A(ORB+DIA)      0.0007               0.0008              -0.0002    A(PC) =   0.0004
 A(ORB)          0.0006               0.0006               0.0000    A(PC) =   0.0004
 A(DIA)          0.0001               0.0001              -0.0002    A(PC) =   0.0000
             ----------           ----------           ----------
 A(Tot)         -0.6866              -1.9564              -2.5784    A(iso)=   -1.7405
 Orientation: 
  X           0.8291026            0.5590965            0.0001807
  Y           0.5590952           -0.8291012            0.0019238
  Z           0.0012254           -0.0014940           -0.9999981

Notes:  (1) The A matrix conforms to the "SAI" spin Hamiltonian convention.
        (2) Tensor is right-handed.

 -----------------------------------------------------------
 Nucleus  57H : A:ISTP=    1 I=  0.5 P=533.5514 MHz/au**3
                Q:ISTP=    2 I=  1.0 Q=  0.0029 barn     
 -----------------------------------------------------------
 Solving for nuclear perturbation:
Forming RHS of the CP-SCF equations         ... 
Calc. nucleus orbit integrals (SHARK)       ... done

------------------------------------------------------------------------------
                           ORCA CP-SCF CALCULATION
------------------------------------------------------------------------------

Input orbitals are from        ... cc-pVDZ.gbw
Input Perturbation             ... cc-pVDZ.pin.tmp
Wavefunction output            ... cc-pVDZ.pout.tmp
Perturbation mode              ... Imaginary perturbation
Solver                         ... POPLE
Max. number of iterations      ... 64
Convergence tolerance          ... 1.000e-03
Integral handling              ... Direct
DFT GridXC                     ... 1
COSX GridX                     ... 1
COSX IntAccX                   ... 3.067
COSX Algorithm                 ... Auto
Number of perturbations        ... 3
Number of operators            ... 2
Orbital ranges used for CP-SCF:
 Operator 0:  Orbitals   0...116  to 117...620
 Operator 1:  Orbitals   0...115  to 116...620
Variables per perturbation     ... 117548
DFT calculation                         ... on
XC functional terms                     ... off
Hybrid DFT                              ... on
   Exchange mixing (SCF)                ...  0.200
   Exchange mixing (CP-SCF)             ...  0.200
   GGA exch. scaling(SCF)               ...  0.720
   GGA exch. scaling (CP-SCF)           ...  0.720
   GGA corr. scaling (SCF)              ...  0.810
   GGA corr. scaling (CP-SCF)           ...  0.810

CP-SCF GRID
-----------

General Integration Accuracy     IntAcc      ... 3.467
Radial Grid Type                 RadialGrid  ... OptM3 with GC (2021)
Angular Grid (max. ang.)         AngularGrid ... 1 (Lebedev-50)
Angular grid pruning method      GridPruning ... 4 (adaptive)
Weight generation scheme         WeightScheme... Becke
Basis function cutoff            BFCut       ... 1.0000e-10
Integration weight cutoff        WCut        ... 1.0000e-14
Angular grids for H and He will be reduced by one unit
Partially contracted basis set               ... off
Rotationally invariant grid construction     ... off

Total number of grid points                  ...    42736
Total number of batches                      ...      693
Average number of points per batch           ...       61
Average number of grid points per atom       ...      678

CP-SCF GRIDX
------------

General Integration Accuracy     IntAcc      ... 3.067
Radial Grid Type                 RadialGrid  ... OptM3 with GC (2021)
Angular Grid (max. ang.)         AngularGrid ... 1 (Lebedev-50)
Angular grid pruning method      GridPruning ... 4 (adaptive)
Weight generation scheme         WeightScheme... Becke
Basis function cutoff            BFCut       ... 1.0000e-10
Integration weight cutoff        WCut        ... 1.0000e-14
Angular grids for H and He will be reduced by one unit
Partially contracted basis set               ... on
Rotationally invariant grid construction     ... off

Total number of grid points                  ...    19910
Total number of batches                      ...      351
Average number of points per batch           ...       56
Average number of grid points per atom       ...      316

Memory available               ... 820.9 MB
Memory needed per perturbation ...  24.3 MB
Perturbations treated per batch... 3
Number of batches              ... 1
     CP-SCF ITERATION   0:   4.6842e-02 (   3.2 sec   0/  3 done)
     CP-SCF ITERATION   1:   2.1004e-03 (   3.1 sec   0/  3 done)
     CP-SCF ITERATION   2:   1.3871e-04 (   3.2 sec   3/  3 done)
                    *** THE CP-SCF HAS CONVERGED ***

Forming final perturbed densities           ... done
Transforming perturbed density to AO basis  ... done

 Raw HFC matrix (all values in MHz): 
 -----------------------------------
                -1.9278              -0.2423              -0.0003
                -0.2417              -1.0230               0.0028
                -0.0003               0.0028              -2.2667

 A(FC)          -1.7395              -1.7395              -1.7395
 A(SD)           0.7770              -0.2499              -0.5271
 A(ORB+DIA)      0.0002               0.0009              -0.0001    A(PC) =   0.0003
 A(ORB)          0.0000               0.0008               0.0000    A(PC) =   0.0003
 A(DIA)          0.0001               0.0001              -0.0001    A(PC) =   0.0001
             ----------           ----------           ----------
 A(Tot)         -0.9623              -1.9885              -2.2667    A(iso)=   -1.7392
 Orientation: 
  X          -0.2433784            0.9699311            0.0007481
  Y           0.9699290            0.2433760            0.0024064
  Z           0.0021520            0.0013113           -0.9999968

Notes:  (1) The A matrix conforms to the "SAI" spin Hamiltonian convention.
        (2) Tensor is right-handed.

 -----------------------------------------------------------
 Nucleus  58H : A:ISTP=    1 I=  0.5 P=533.5514 MHz/au**3
                Q:ISTP=    2 I=  1.0 Q=  0.0029 barn     
 -----------------------------------------------------------
 Solving for nuclear perturbation:
Forming RHS of the CP-SCF equations         ... 
Calc. nucleus orbit integrals (SHARK)       ... done

------------------------------------------------------------------------------
                           ORCA CP-SCF CALCULATION
------------------------------------------------------------------------------

Input orbitals are from        ... cc-pVDZ.gbw
Input Perturbation             ... cc-pVDZ.pin.tmp
Wavefunction output            ... cc-pVDZ.pout.tmp
Perturbation mode              ... Imaginary perturbation
Solver                         ... POPLE
Max. number of iterations      ... 64
Convergence tolerance          ... 1.000e-03
Integral handling              ... Direct
DFT GridXC                     ... 1
COSX GridX                     ... 1
COSX IntAccX                   ... 3.067
COSX Algorithm                 ... Auto
Number of perturbations        ... 3
Number of operators            ... 2
Orbital ranges used for CP-SCF:
 Operator 0:  Orbitals   0...116  to 117...620
 Operator 1:  Orbitals   0...115  to 116...620
Variables per perturbation     ... 117548
DFT calculation                         ... on
XC functional terms                     ... off
Hybrid DFT                              ... on
   Exchange mixing (SCF)                ...  0.200
   Exchange mixing (CP-SCF)             ...  0.200
   GGA exch. scaling(SCF)               ...  0.720
   GGA exch. scaling (CP-SCF)           ...  0.720
   GGA corr. scaling (SCF)              ...  0.810
   GGA corr. scaling (CP-SCF)           ...  0.810

CP-SCF GRID
-----------

General Integration Accuracy     IntAcc      ... 3.467
Radial Grid Type                 RadialGrid  ... OptM3 with GC (2021)
Angular Grid (max. ang.)         AngularGrid ... 1 (Lebedev-50)
Angular grid pruning method      GridPruning ... 4 (adaptive)
Weight generation scheme         WeightScheme... Becke
Basis function cutoff            BFCut       ... 1.0000e-10
Integration weight cutoff        WCut        ... 1.0000e-14
Angular grids for H and He will be reduced by one unit
Partially contracted basis set               ... off
Rotationally invariant grid construction     ... off

Total number of grid points                  ...    42736
Total number of batches                      ...      693
Average number of points per batch           ...       61
Average number of grid points per atom       ...      678

CP-SCF GRIDX
------------

General Integration Accuracy     IntAcc      ... 3.067
Radial Grid Type                 RadialGrid  ... OptM3 with GC (2021)
Angular Grid (max. ang.)         AngularGrid ... 1 (Lebedev-50)
Angular grid pruning method      GridPruning ... 4 (adaptive)
Weight generation scheme         WeightScheme... Becke
Basis function cutoff            BFCut       ... 1.0000e-10
Integration weight cutoff        WCut        ... 1.0000e-14
Angular grids for H and He will be reduced by one unit
Partially contracted basis set               ... on
Rotationally invariant grid construction     ... off

Total number of grid points                  ...    19910
Total number of batches                      ...      351
Average number of points per batch           ...       56
Average number of grid points per atom       ...      316

Memory available               ... 820.1 MB
Memory needed per perturbation ...  24.3 MB
Perturbations treated per batch... 3
Number of batches              ... 1
     CP-SCF ITERATION   0:   4.5312e-02 (   3.5 sec   0/  3 done)
     CP-SCF ITERATION   1:   1.9636e-03 (   3.3 sec   0/  3 done)
     CP-SCF ITERATION   2:   1.2595e-04 (   3.2 sec   3/  3 done)
                    *** THE CP-SCF HAS CONVERGED ***

Forming final perturbed densities           ... done
Transforming perturbed density to AO basis  ... done

 Raw HFC matrix (all values in MHz): 
 -----------------------------------
                 1.5256               0.3179               0.0002
                 0.3179               0.5823               0.0001
                 0.0002               0.0001               0.4484

 A(FC)           0.8522               0.8522               0.8522
 A(SD)          -0.4037              -0.3671               0.7708
 A(ORB+DIA)     -0.0000               0.0001              -0.0002    A(PC) =  -0.0001
 A(ORB)         -0.0000               0.0001              -0.0003    A(PC) =  -0.0001
 A(DIA)          0.0000              -0.0000               0.0000    A(PC) =   0.0000
             ----------           ----------           ----------
 A(Tot)          0.4484               0.4852               1.6228    A(iso)=    0.8521
 Orientation: 
  X           0.0000269           -0.2921821           -0.9563627
  Y          -0.0007832            0.9563624           -0.2921820
  Z           0.9999997            0.0007569           -0.0002031

Notes:  (1) The A matrix conforms to the "SAI" spin Hamiltonian convention.
        (2) Tensor is right-handed.


--------------------------------------------------------------------------------
----------------------------------------------------------------------------
                           ORCA EULER ANGLE PROGRAM
----------------------------------------------------------------------------

Only g-tensor available        -->  using g-tensor as reference tensor

Reference tensor               ...  g

g-tensor ordering              ...  |g_min> --> |gx>
                                    |g_mid> --> |gy>
                                    |g_max> --> |gz>

A- and EFG-tensor ordering     ...  the axes |Ax>, |Qx>, |Ay>, etc. are assigned
                                    such that the Euler rotation is minimal. You
                                    can find the respective eigenvalues as Ax,
                                    EFGx, Ay, etc. in the tables below.
                                    The relation of |Ax>, |Ay>,  etc. to Amin, Amid, etc.
                                    (as printed in the ORCA EPR/NMR CALCULATION Output)
                                    is obtained in the detailed printout.

Euler rotation around          ...  z - y - z
   First rotation              -->  by alpha around z
   Second rotation             -->  by beta around y'
   Third rotation              -->  by gamma around z''
   Positive / Negative angle   -->  clockwise / counterclockwise rotation

Plot EFG-tensors                    (-)
Plot HFC-tensors                    (-)
Detailed Printout                   (-)

-------------------------------------------------------------------------
          Euler rotation of hyperfine tensor to g-tensor
-------------------------------------------------------------------------

-------------------------------------------------------------------
 Atom  |   Alpha    Beta    Gamma   |   Ax       Ay       Az 
       |          [degrees]         |           [MHz]         
-------------------------------------------------------------------
  9H      -89.8      3.9     89.8     -16.03    -7.01   -19.56
 10H      -90.1      0.7     90.2       3.99     4.63     9.30
 12H       90.0     36.2    -90.0     -45.55   -70.21   -17.01
 14H     -164.9     14.3    147.8      56.23    65.67    57.53
 15H      -15.2     14.2     32.4      56.19    65.62    57.49
 17H     -143.3     34.9    115.5      -3.13    -2.97     3.12
 18H      -36.7     34.9     64.6      -3.13    -2.97     3.12
 20H       40.9     44.1    -20.7      -0.10     2.21     0.02
 21H      139.2     44.1   -159.4      -0.10     2.21     0.03
 23H       12.3     19.6     27.5      19.78    20.34    23.39
 24H      167.7     19.7    152.4      19.85    20.41    23.45
 26H       95.7     22.3    -82.8      -0.96     0.96    -0.84
 27H       84.8     22.3    -97.8      -0.96     0.95    -0.84
 29H     -113.5     37.2     75.6      -0.10    -0.15     0.79
 30H      -66.5     37.2    104.3      -0.10    -0.15     0.79
 32H       85.4     35.6    -93.5      -0.12     0.37    -0.10
 33H       94.7     35.6    -86.7      -0.12     0.37    -0.10
 35H       89.8     43.8    -89.7      -0.78     0.75    -0.80
 36H      -90.6     44.6     90.0      -0.13    -0.13     0.24
 43H       89.8     37.1    -90.0       0.42     0.64     0.23
 44H      -89.5      7.5     89.4      -0.31    -0.49    -0.12
 45H      -89.9     41.7     89.8       0.51     1.40     0.10
 46H       89.7     14.8    -89.8       0.55     0.11     1.34
 47H      -89.7     21.1     89.5      -0.32    -0.16    -0.44
 54H       89.9     39.1    -90.0      -1.35    -1.93    -0.42
 55H       89.9     26.4    -89.9       0.51     0.66     1.39
 56H      -89.8     20.3     89.8      -2.58    -0.69    -1.96
 57H      -89.9     40.2     89.9      -2.27    -1.99    -0.96
 58H      -89.8     37.3     89.8       0.45     1.62     0.49
-------------------------------------------------------------------


Maximum memory used throughout the entire EPRNMR-calculation: 333.7 MB

Timings for individual modules:

Sum of individual times         ...    13619.539 sec (= 226.992 min)
GTO integral calculation        ...        6.728 sec (=   0.112 min)   0.0 %
Spin-Orbit-Coupling Matrices    ...       15.205 sec (=   0.253 min)   0.1 %
SCF iterations                  ...       46.215 sec (=   0.770 min)   0.3 %
EPR/NMR calculation             ...    13551.391 sec (= 225.857 min)  99.5 %
                             ****ORCA TERMINATED NORMALLY****
TOTAL RUN TIME: 0 days 3 hours 47 minutes 4 seconds 210 msec
