
                                 *****************
                                 * O   R   C   A *
                                 *****************

                                            #,                                       
                                            ###                                      
                                            ####                                     
                                            #####                                    
                                            ######                                   
                                           ########,                                 
                                     ,,################,,,,,                         
                               ,,#################################,,                 
                          ,,##########################################,,             
                       ,#########################################, ''#####,          
                    ,#############################################,,   '####,        
                  ,##################################################,,,,####,       
                ,###########''''           ''''###############################       
              ,#####''   ,,,,##########,,,,          '''####'''          '####       
            ,##' ,,,,###########################,,,                        '##       
           ' ,,###''''                  '''############,,,                           
         ,,##''                                '''############,,,,        ,,,,,,###''
      ,#''                                            '''#######################'''  
     '                                                          ''''####''''         
             ,#######,   #######,   ,#######,      ##                                
            ,#'     '#,  ##    ##  ,#'     '#,    #''#        ######   ,####,        
            ##       ##  ##   ,#'  ##            #'  '#       #        #'  '#        
            ##       ##  #######   ##           ,######,      #####,   #    #        
            '#,     ,#'  ##    ##  '#,     ,#' ,#      #,         ##   #,  ,#        
             '#######'   ##     ##  '#######'  #'      '#     #####' # '####'        



                  #######################################################
                  #                        -***-                        #
                  #          Department of theory and spectroscopy      #
                  #    Directorship and core code : Frank Neese         #
                  #        Max Planck Institute fuer Kohlenforschung    #
                  #                Kaiser Wilhelm Platz 1               #
                  #                 D-45470 Muelheim/Ruhr               #
                  #                      Germany                        #
                  #                                                     #
                  #                  All rights reserved                #
                  #                        -***-                        #
                  #######################################################


                         Program Version 5.0.4 -  RELEASE  -


 With contributions from (in alphabetic order):
   Daniel Aravena         : Magnetic Suceptibility
   Michael Atanasov       : Ab Initio Ligand Field Theory (pilot matlab implementation)
   Alexander A. Auer      : GIAO ZORA, VPT2 properties, NMR spectrum
   Ute Becker             : Parallelization
   Giovanni Bistoni       : ED, misc. LED, open-shell LED, HFLD
   Martin Brehm           : Molecular dynamics
   Dmytro Bykov           : SCF Hessian
   Vijay G. Chilkuri      : MRCI spin determinant printing, contributions to CSF-ICE
   Dipayan Datta          : RHF DLPNO-CCSD density
   Achintya Kumar Dutta   : EOM-CC, STEOM-CC
   Dmitry Ganyushin       : Spin-Orbit,Spin-Spin,Magnetic field MRCI
   Miquel Garcia          : C-PCM and meta-GGA Hessian, CC/C-PCM, Gaussian charge scheme
   Yang Guo               : DLPNO-NEVPT2, F12-NEVPT2, CIM, IAO-localization
   Andreas Hansen         : Spin unrestricted coupled pair/coupled cluster methods
   Benjamin Helmich-Paris : MC-RPA, TRAH-SCF, COSX integrals
   Lee Huntington         : MR-EOM, pCC
   Robert Izsak           : Overlap fitted RIJCOSX, COSX-SCS-MP3, EOM
   Marcus Kettner         : VPT2
   Christian Kollmar      : KDIIS, OOCD, Brueckner-CCSD(T), CCSD density, CASPT2, CASPT2-K
   Simone Kossmann        : Meta GGA functionals, TD-DFT gradient, OOMP2, MP2 Hessian
   Martin Krupicka        : Initial AUTO-CI
   Lucas Lang             : DCDCAS
   Marvin Lechner         : AUTO-CI (C++ implementation), FIC-MRCC
   Dagmar Lenk            : GEPOL surface, SMD
   Dimitrios Liakos       : Extrapolation schemes; Compound Job, initial MDCI parallelization
   Dimitrios Manganas     : Further ROCIS development; embedding schemes
   Dimitrios Pantazis     : SARC Basis sets
   Anastasios Papadopoulos: AUTO-CI, single reference methods and gradients
   Taras Petrenko         : DFT Hessian,TD-DFT gradient, ASA, ECA, R-Raman, ABS, FL, XAS/XES, NRVS
   Peter Pinski           : DLPNO-MP2, DLPNO-MP2 Gradient
   Christoph Reimann      : Effective Core Potentials
   Marius Retegan         : Local ZFS, SOC
   Christoph Riplinger    : Optimizer, TS searches, QM/MM, DLPNO-CCSD(T), (RO)-DLPNO pert. Triples
   Tobias Risthaus        : Range-separated hybrids, TD-DFT gradient, RPA, STAB
   Michael Roemelt        : Original ROCIS implementation
   Masaaki Saitow         : Open-shell DLPNO-CCSD energy and density
   Barbara Sandhoefer     : DKH picture change effects
   Avijit Sen             : IP-ROCIS
   Kantharuban Sivalingam : CASSCF convergence, NEVPT2, FIC-MRCI
   Bernardo de Souza      : ESD, SOC TD-DFT
   Georgi Stoychev        : AutoAux, RI-MP2 NMR, DLPNO-MP2 response
   Willem Van den Heuvel  : Paramagnetic NMR
   Boris Wezisla          : Elementary symmetry handling
   Frank Wennmohs         : Technical directorship


 We gratefully acknowledge several colleagues who have allowed us to
 interface, adapt or use parts of their codes:
   Stefan Grimme, W. Hujo, H. Kruse, P. Pracht,  : VdW corrections, initial TS optimization,
                  C. Bannwarth, S. Ehlert          DFT functionals, gCP, sTDA/sTD-DF
   Ed Valeev, F. Pavosevic, A. Kumar             : LibInt (2-el integral package), F12 methods
   Garnet Chan, S. Sharma, J. Yang, R. Olivares  : DMRG
   Ulf Ekstrom                                   : XCFun DFT Library
   Mihaly Kallay                                 : mrcc  (arbitrary order and MRCC methods)
   Jiri Pittner, Ondrej Demel                    : Mk-CCSD
   Frank Weinhold                                : gennbo (NPA and NBO analysis)
   Christopher J. Cramer and Donald G. Truhlar   : smd solvation model
   Lars Goerigk                                  : TD-DFT with DH, B97 family of functionals
   V. Asgeirsson, H. Jonsson                     : NEB implementation
   FAccTs GmbH                                   : IRC, NEB, NEB-TS, DLPNO-Multilevel, CI-OPT
                                                   MM, QMMM, 2- and 3-layer-ONIOM, Crystal-QMMM,
                                                   LR-CPCM, SF, NACMEs, symmetry and pop. for TD-DFT,
                                                   nearIR, NL-DFT gradient (VV10), updates on ESD,
                                                   ML-optimized integration grids
   S Lehtola, MJT Oliveira, MAL Marques          : LibXC Library
   Liviu Ungur et al                             : ANISO software


 Your calculation uses the libint2 library for the computation of 2-el integrals
 For citations please refer to: http://libint.valeyev.net

 Your ORCA version has been built with support for libXC version: 5.1.0
 For citations please refer to: https://tddft.org/programs/libxc/

 This ORCA versions uses:
   CBLAS   interface :  Fast vector & matrix operations
   LAPACKE interface :  Fast linear algebra routines
   SCALAPACK package :  Parallel linear algebra routines
   Shared memory     :  Shared parallel matrices
   BLAS/LAPACK       :  OpenBLAS 0.3.15  USE64BITINT DYNAMIC_ARCH NO_AFFINITY SkylakeX SINGLE_THREADED
        Core in use  :  SkylakeX
   Copyright (c) 2011-2014, The OpenBLAS Project




***************************************
The coordinates will be read from file: opt.xyz
***************************************


================================================================================

----- Orbital basis set information -----
Your calculation utilizes the basis: EPR-II
   V. Barone, in Recent Advances in Density Functional Methods, Part 1 (ed. D. P. Chong), World Scientific, Singapore, 1995, p. 287.

----- AuxJ basis set information -----
Your calculation utilizes the AutoAux generation procedure.
  G. L. Stoychev, A. A. Auer, F. Neese, J. Chem. Theory Comput. 13, 554 (2017)

----- AuxC basis set information -----
Your calculation utilizes the AutoAux generation procedure.
  G. L. Stoychev, A. A. Auer, F. Neese, J. Chem. Theory Comput. 13, 554 (2017)

----- AuxJK basis set information -----
Your calculation utilizes the AutoAux generation procedure.
  G. L. Stoychev, A. A. Auer, F. Neese, J. Chem. Theory Comput. 13, 554 (2017)

================================================================================
                                        WARNINGS
                       Please study these warnings very carefully!
================================================================================


WARNING: your system is open-shell and RHF/RKS was chosen
  ===> : WILL SWITCH to UHF/UKS


INFO   : the flag for use of the SHARK integral package has been found!

================================================================================
                                       INPUT FILE
================================================================================
NAME = EPRII.inp
|  1> ! B3LYP EPR-II AUTOAUX
|  2> %pal nprocs 16 end
|  3> *XYZFile 0 2 opt.xyz
|  4> %EPRNMR
|  5>         GTENSOR   TRUE
|  6>         NUCLEI    = ALL H {SHIFT, AISO, ADIP, AORB}
|  7>         ORI       GIAO
|  8> END
|  9> 
| 10>                          ****END OF INPUT****
================================================================================

                       ****************************
                       * Single Point Calculation *
                       ****************************

---------------------------------
CARTESIAN COORDINATES (ANGSTROEM)
---------------------------------
  C     12.367468   -0.026690   -0.004521
  C     11.143536   -0.068421   -0.003249
  C      5.470105   -0.000456   -0.000953
  C      9.724522   -0.088645   -0.002867
  C      8.990628   -1.335024   -0.006403
  C      7.570759   -1.236349   -0.005487
  C      6.897637   -0.011889   -0.001450
  C      7.634424    1.217416    0.002056
  C      9.026112    1.135702    0.001259
  H      6.974675   -2.149130   -0.008114
  H      9.619812    2.049654    0.003881
  C      9.646865   -2.583921   -0.010645
  H     10.739981   -2.573932   -0.011197
  C      8.960510   -3.917165   -0.014594
  H      8.287887   -4.000132    0.864048
  H      8.286468   -3.994223   -0.892681
  C      9.932017   -5.104805   -0.019413
  H     10.591664   -5.026394   -0.902868
  H     10.593459   -5.032110    0.863189
  C      9.223189   -6.460465   -0.023106
  H      8.579052   -6.573687   -0.912248
  H      8.580972   -6.579530    0.866660
  C      6.888617    2.535280    0.006628
  H      6.209492    2.550134   -0.866458
  H      6.212355    2.545704    0.882021
  C      7.733771    3.811741    0.008515
  H      8.398339    3.820953    0.891977
  H      8.396097    3.824967   -0.876584
  C      6.878227    5.084572    0.012531
  H      6.210709    5.076758   -0.869130
  H      6.212980    5.072748    0.895865
  C      7.710095    6.369491    0.014397
  H      8.360072    6.427193   -0.875761
  H      8.362497    6.423053    0.903036
  C      4.247577    0.004948    0.000113
  H      9.945336   -7.292652   -0.026626
  H      7.068970    7.265890    0.017359
  C      2.821946    0.006500    0.000494
  C      2.097893   -1.206838   -0.000235
  C      0.707780   -1.204952    0.000050
  C     -0.010741    0.009504    0.001091
  C      0.710352    1.222515    0.001864
  C      2.100373    1.221345    0.001582
  H     -3.729592    0.014614    0.001756
  H      0.163384    2.167010    0.002651
  H      2.643820   -2.151876   -0.001021
  H      2.647986    2.165427    0.002150
  H      0.158864   -2.148310   -0.000515
  C     13.789722    0.031477   -0.005118
  C     14.565302   -1.150711   -0.007168
  C     15.953740   -1.090712   -0.007603
  C     16.621353    0.152770   -0.006014
  C     15.849687    1.334610   -0.003972
  C     14.461312    1.275873   -0.003524
  H     20.336530    0.314151   -0.006977
  H     16.356949    2.301040   -0.002743
  H     14.060641   -2.118439   -0.008361
  H     13.874663    2.196192   -0.001939
  H     16.541337   -2.010509   -0.009127
  C     18.050568    0.214344   -0.006425
  C     19.265095    0.266906   -0.006700
  C     -1.441545    0.011220    0.001350
  C     -2.657087    0.013045    0.001570

----------------------------
CARTESIAN COORDINATES (A.U.)
----------------------------
  NO LB      ZA    FRAG     MASS         X           Y           Z
   0 C     6.0000    0    12.011   23.371127   -0.050437   -0.008544
   1 C     6.0000    0    12.011   21.058231   -0.129298   -0.006139
   2 C     6.0000    0    12.011   10.337001   -0.000863   -0.001801
   3 C     6.0000    0    12.011   18.376683   -0.167515   -0.005419
   4 C     6.0000    0    12.011   16.989825   -2.522829   -0.012100
   5 C     6.0000    0    12.011   14.306661   -2.336361   -0.010368
   6 C     6.0000    0    12.011   13.034644   -0.022466   -0.002740
   7 C     6.0000    0    12.011   14.426971    2.300582    0.003886
   8 C     6.0000    0    12.011   17.056879    2.146165    0.002380
   9 H     1.0000    0     1.008   13.180226   -4.061267   -0.015334
  10 H     1.0000    0     1.008   18.178810    3.873284    0.007333
  11 C     6.0000    0    12.011   18.229932   -4.882903   -0.020115
  12 H     1.0000    0     1.008   20.295623   -4.864027   -0.021159
  13 C     6.0000    0    12.011   16.932910   -7.402370   -0.027579
  14 H     1.0000    0     1.008   15.661837   -7.559153    1.632815
  15 H     1.0000    0     1.008   15.659155   -7.547987   -1.686923
  16 C     6.0000    0    12.011   18.768793   -9.646684   -0.036684
  17 H     1.0000    0     1.008   20.015344   -9.498508   -1.706173
  18 H     1.0000    0     1.008   20.018735   -9.509311    1.631190
  19 C     6.0000    0    12.011   17.429302  -12.208509   -0.043665
  20 H     1.0000    0     1.008   16.212060  -12.422469   -1.723899
  21 H     1.0000    0     1.008   16.215687  -12.433511    1.637751
  22 C     6.0000    0    12.011   13.017600    4.790985    0.012525
  23 H     1.0000    0     1.008   11.734239    4.819054   -1.637369
  24 H     1.0000    0     1.008   11.739649    4.810684    1.666779
  25 C     6.0000    0    12.011   14.614710    7.203147    0.016092
  26 H     1.0000    0     1.008   15.870560    7.220554    1.685593
  27 H     1.0000    0     1.008   15.866324    7.228139   -1.656504
  28 C     6.0000    0    12.011   12.997964    9.608448    0.023680
  29 H     1.0000    0     1.008   11.736539    9.593681   -1.642418
  30 H     1.0000    0     1.008   11.740831    9.586104    1.692939
  31 C     6.0000    0    12.011   14.569969   12.036594    0.027206
  32 H     1.0000    0     1.008   15.798247   12.145635   -1.654948
  33 H     1.0000    0     1.008   15.802829   12.137812    1.706491
  34 C     6.0000    0    12.011    8.026758    0.009350    0.000214
  35 H     1.0000    0     1.008   18.793961  -13.781115   -0.050315
  36 H     1.0000    0     1.008   13.358418   13.730542    0.032803
  37 C     6.0000    0    12.011    5.332705    0.012283    0.000934
  38 C     6.0000    0    12.011    3.964444   -2.280593   -0.000445
  39 C     6.0000    0    12.011    1.337511   -2.277030    0.000095
  40 C     6.0000    0    12.011   -0.020297    0.017959    0.002061
  41 C     6.0000    0    12.011    1.342371    2.310219    0.003522
  42 C     6.0000    0    12.011    3.969130    2.308007    0.002990
  43 H     1.0000    0     1.008   -7.047908    0.027617    0.003319
  44 H     1.0000    0     1.008    0.308752    4.095056    0.005010
  45 H     1.0000    0     1.008    4.996095   -4.066456   -0.001929
  46 H     1.0000    0     1.008    5.003968    4.092065    0.004063
  47 H     1.0000    0     1.008    0.300210   -4.059718   -0.000974
  48 C     6.0000    0    12.011   26.058799    0.059483   -0.009671
  49 C     6.0000    0    12.011   27.524432   -2.174528   -0.013545
  50 C     6.0000    0    12.011   30.148200   -2.061147   -0.014368
  51 C     6.0000    0    12.011   31.409804    0.288694   -0.011365
  52 C     6.0000    0    12.011   29.951568    2.522047   -0.007506
  53 C     6.0000    0    12.011   27.327919    2.411051   -0.006659
  54 H     1.0000    0     1.008   38.430472    0.593660   -0.013185
  55 H     1.0000    0     1.008   30.910154    4.348335   -0.005184
  56 H     1.0000    0     1.008   26.570761   -4.003270   -0.015800
  57 H     1.0000    0     1.008   26.219314    4.150201   -0.003664
  58 H     1.0000    0     1.008   31.258597   -3.799311   -0.017248
  59 C     6.0000    0    12.011   34.110630    0.405052   -0.012142
  60 C     6.0000    0    12.011   36.405754    0.504380   -0.012661
  61 C     6.0000    0    12.011   -2.724125    0.021203    0.002552
  62 C     6.0000    0    12.011   -5.021166    0.024652    0.002966

--------------------------------
INTERNAL COORDINATES (ANGSTROEM)
--------------------------------
 C      0   0   0     0.000000000000     0.00000000     0.00000000
 C      1   0   0     1.224643686925     0.00000000     0.00000000
 C      2   1   0     5.673838187034   177.36060450     0.00000000
 C      2   1   3     1.419158494039   178.86285161     1.43629221
 C      4   2   1     1.446399644311   121.30681375   177.60152958
 C      5   4   2     1.423294321543   116.51483908   179.99210644
 C      6   5   4     1.397287531006   122.77429484     0.00000000
 C      7   6   5     1.433198517079   120.26481045     0.00000000
 C      8   7   6     1.394084566035   117.57601089     0.00000000
 H      6   5   4     1.090179668029   119.17055408   179.99617110
 H      9   8   7     1.089860143609   119.64710359   180.00196681
 C      5   4   2     1.410818582802   121.78998178     0.00000000
 H     12   5   4     1.093162195291   117.19618834     0.00000000
 C     12   5   4     1.499546135283   125.04101924   180.00552152
 H     14  12   5     1.109647473993   109.98868380   302.58882704
 H     14  12   5     1.109643094317   109.99004089    57.36111334
 C     14  12   5     1.534385319986   113.47720849   179.97395482
 H     17  14  12     1.105339216581   108.99338697   302.32673172
 H     17  14  12     1.105338729230   108.99421469    57.64500523
 C     17  14  12     1.529791696594   113.11306921   179.98724071
 H     20  17  14     1.103768414177   111.29981852    59.86793690
 H     20  17  14     1.103768376503   111.29944896   300.12115275
 C      8   7   6     1.514270525983   119.55729967   180.00950784
 H     23   8   7     1.106215238962   108.15986336   303.79724306
 H     23   8   7     1.106233928275   108.16030722    56.34969821
 C     23   8   7     1.530895836122   116.98482842   180.07184101
 H     26  23   8     1.105549548081   109.86405072   301.71437730
 H     26  23   8     1.105554571414   109.86002791    58.23506451
 C     26  23   8     1.533646095360   112.58388640   179.97493976
 H     29  26  23     1.105878174063   109.19422307   302.33229829
 H     29  26  23     1.105880647345   109.19562080    57.67282599
 C     29  26  23     1.530695104949   113.17331240   180.00234725
 H     32  29  26     1.103711805866   111.28120814    59.86478310
 H     32  29  26     1.103710395030   111.28184043   300.14489270
 C      3   2   1     1.222540304866   179.56611388   182.74903413
 H     20  17  14     1.101836114026   111.44632692   179.99430315
 H     32  29  26     1.102080221280   111.50748578   180.00470852
 C     35   3   7     1.425632241984   179.80597194   341.40060638
 C     38  35   3     1.412955207351   120.76401976    10.24474190
 C     39  38  35     1.390114262744   120.74868183   180.00412331
 C     40  39  38     1.411090737373   120.68797962     0.00000000
 C     41  40  39     1.411160347010   118.65974881     0.00000000
 C     42  41  40     1.390021364183   120.68173392     0.00000000
 H     41  40  39     3.718855155409   120.68900025   179.99822411
 H     42  41  40     1.091441798284   119.19437651   179.99883027
 H     39  38  35     1.091390276831   119.15957648     0.00000000
 H     43  42  41     1.091408165689   120.06748905   179.99779105
 H     40  39  38     1.091436344236   120.11630269   180.00025693
 C      1   2   4     1.423443597639   179.60920788     7.44143248
 C     49   1   2     1.413893907784   120.92509249   174.86520633
 C     50  49   1     1.389733854762   120.79266478   180.00683349
 C     51  50  49     1.411366850357   120.70523686     0.00000000
 C     52  51  50     1.411458844567   118.62720706     0.00000000
 C     53  52  51     1.389617312832   120.71944660     0.00000000
 H     52  51  50     3.718680648391   120.71811885   179.99640529
 H     53  52  51     1.091468470596   119.16391950   180.00061579
 H     50  49   1     1.091413049417   119.19138329     0.00000000
 H     54  53  52     1.091396032447   120.09260568   179.99998091
 H     51  50  49     1.091466534876   120.09740915   179.99604153
 C     52  51  50     1.430541355691   120.69775201   179.99826963
 C     55  52  51     1.072475526105     0.03755270   359.96619108
 C     41  40  39     1.430805003159   120.67899214   179.99839317
 C     44  41  40     1.072506840651     0.00507994     3.23432183

---------------------------
INTERNAL COORDINATES (A.U.)
---------------------------
 C      0   0   0     0.000000000000     0.00000000     0.00000000
 C      1   0   0     2.314241179924     0.00000000     0.00000000
 C      2   1   0    10.722000301679   177.36060450     0.00000000
 C      2   1   3     2.681820894361   178.86285161     1.43629221
 C      4   2   1     2.733299207949   121.30681375   177.60152958
 C      5   4   2     2.689636475681   116.51483908   179.99210644
 C      6   5   4     2.640490763944   122.77429484     0.00000000
 C      7   6   5     2.708352692821   120.26481045     0.00000000
 C      8   7   6     2.634438037332   117.57601089     0.00000000
 H      6   5   4     2.060141009344   119.17055408   179.99617110
 H      9   8   7     2.059537195697   119.64710359   180.00196681
 C      5   4   2     2.666060746143   121.78998178     0.00000000
 H     12   5   4     2.065777169056   117.19618834     0.00000000
 C     12   5   4     2.833731520865   125.04101924   180.00552152
 H     14  12   5     2.096929831044   109.98868380   302.58882704
 H     14  12   5     2.096921554655   109.99004089    57.36111334
 C     14  12   5     2.899568038683   113.47720849   179.97395482
 H     17  14  12     2.088788404421   108.99338697   302.32673172
 H     17  14  12     2.088787483462   108.99421469    57.64500523
 C     17  14  12     2.890887348510   113.11306921   179.98724071
 H     20  17  14     2.085820018067   111.29981852    59.86793690
 H     20  17  14     2.085819946873   111.29944896   300.12115275
 C      8   7   6     2.861556586777   119.55729967   180.00950784
 H     23   8   7     2.090443846808   108.15986336   303.79724306
 H     23   8   7     2.090479164493   108.16030722    56.34969821
 C     23   8   7     2.892973869831   116.98482842   180.07184101
 H     26  23   8     2.089185873353   109.86405072   301.71437730
 H     26  23   8     2.089195366078   109.86002791    58.23506451
 C     26  23   8     2.898171106589   112.58388640   179.97493976
 H     29  26  23     2.089806886460   109.19422307   302.33229829
 H     29  26  23     2.089811560285   109.19562080    57.67282599
 C     29  26  23     2.892594542888   113.17331240   180.00234725
 H     32  29  26     2.085713043862   111.28120814    59.86478310
 H     32  29  26     2.085710377769   111.28184043   300.14489270
 C      3   2   1     2.310266363877   179.56611388   182.74903413
 H     20  17  14     2.082168499973   111.44632692   179.99430315
 H     32  29  26     2.082629795831   111.50748578   180.00470852
 C     35   3   7     2.694054505037   179.80597194   341.40060638
 C     38  35   3     2.670098381392   120.76401976    10.24474190
 C     39  38  35     2.626935251443   120.74868183   180.00412331
 C     40  39  38     2.666575043749   120.68797962     0.00000000
 C     41  40  39     2.666706586898   118.65974881     0.00000000
 C     42  41  40     2.626759698605   120.68173392     0.00000000
 H     41  40  39     7.027617775444   120.68900025   179.99822411
 H     42  41  40     2.062526089870   119.19437651   179.99883027
 H     39  38  35     2.062428728434   119.15957648     0.00000000
 H     43  42  41     2.062462533477   120.06748905   179.99779105
 H     40  39  38     2.062515783214   120.11630269   180.00025693
 C      1   2   4     2.689918566621   179.60920788     7.44143248
 C     49   1   2     2.671872268132   120.92509249   174.86520633
 C     50  49   1     2.626216384538   120.79266478   180.00683349
 C     51  50  49     2.667096821670   120.70523686     0.00000000
 C     52  51  50     2.667270665532   118.62720706     0.00000000
 C     53  52  51     2.625996152207   120.71944660     0.00000000
 H     52  51  50     7.027288004972   120.71811885   179.99640529
 H     53  52  51     2.062576493237   119.16391950   180.00061579
 H     50  49   1     2.062471762386   119.19138329     0.00000000
 H     54  53  52     2.062439604972   120.09260568   179.99998091
 H     51  50  49     2.062572835256   120.09740915   179.99604153
 C     52  51  50     2.703331385504   120.69775201   179.99826963
 C     55  52  51     2.026685029672     0.03755270   359.96619108
 C     41  40  39     2.703829607015   120.67899214   179.99839317
 C     44  41  40     2.026744205587     0.00507994     3.23432183

---------------------
BASIS SET INFORMATION
---------------------
There are 2 groups of distinct atoms

 Group   1 Type C   : 10s5p1d contracted to 6s2p1d pattern {511111/41/1}
 Group   2 Type H   : 6s1p contracted to 4s1p pattern {3111/1}

Atom   0C    basis set group =>   1
Atom   1C    basis set group =>   1
Atom   2C    basis set group =>   1
Atom   3C    basis set group =>   1
Atom   4C    basis set group =>   1
Atom   5C    basis set group =>   1
Atom   6C    basis set group =>   1
Atom   7C    basis set group =>   1
Atom   8C    basis set group =>   1
Atom   9H    basis set group =>   2
Atom  10H    basis set group =>   2
Atom  11C    basis set group =>   1
Atom  12H    basis set group =>   2
Atom  13C    basis set group =>   1
Atom  14H    basis set group =>   2
Atom  15H    basis set group =>   2
Atom  16C    basis set group =>   1
Atom  17H    basis set group =>   2
Atom  18H    basis set group =>   2
Atom  19C    basis set group =>   1
Atom  20H    basis set group =>   2
Atom  21H    basis set group =>   2
Atom  22C    basis set group =>   1
Atom  23H    basis set group =>   2
Atom  24H    basis set group =>   2
Atom  25C    basis set group =>   1
Atom  26H    basis set group =>   2
Atom  27H    basis set group =>   2
Atom  28C    basis set group =>   1
Atom  29H    basis set group =>   2
Atom  30H    basis set group =>   2
Atom  31C    basis set group =>   1
Atom  32H    basis set group =>   2
Atom  33H    basis set group =>   2
Atom  34C    basis set group =>   1
Atom  35H    basis set group =>   2
Atom  36H    basis set group =>   2
Atom  37C    basis set group =>   1
Atom  38C    basis set group =>   1
Atom  39C    basis set group =>   1
Atom  40C    basis set group =>   1
Atom  41C    basis set group =>   1
Atom  42C    basis set group =>   1
Atom  43H    basis set group =>   2
Atom  44H    basis set group =>   2
Atom  45H    basis set group =>   2
Atom  46H    basis set group =>   2
Atom  47H    basis set group =>   2
Atom  48C    basis set group =>   1
Atom  49C    basis set group =>   1
Atom  50C    basis set group =>   1
Atom  51C    basis set group =>   1
Atom  52C    basis set group =>   1
Atom  53C    basis set group =>   1
Atom  54H    basis set group =>   2
Atom  55H    basis set group =>   2
Atom  56H    basis set group =>   2
Atom  57H    basis set group =>   2
Atom  58H    basis set group =>   2
Atom  59C    basis set group =>   1
Atom  60C    basis set group =>   1
Atom  61C    basis set group =>   1
Atom  62C    basis set group =>   1
---------------------------------
AUXILIARY/J BASIS SET INFORMATION
---------------------------------
There are 2 groups of distinct atoms

 Group   1 Type C   : 17s13p12d2f contracted to 17s13p12d2f pattern {11111111111111111/1111111111111/111111111111/11}
 Group   2 Type H   : 15s6p1d contracted to 15s6p1d pattern {111111111111111/111111/1}

Atom   0C    basis set group =>   1
Atom   1C    basis set group =>   1
Atom   2C    basis set group =>   1
Atom   3C    basis set group =>   1
Atom   4C    basis set group =>   1
Atom   5C    basis set group =>   1
Atom   6C    basis set group =>   1
Atom   7C    basis set group =>   1
Atom   8C    basis set group =>   1
Atom   9H    basis set group =>   2
Atom  10H    basis set group =>   2
Atom  11C    basis set group =>   1
Atom  12H    basis set group =>   2
Atom  13C    basis set group =>   1
Atom  14H    basis set group =>   2
Atom  15H    basis set group =>   2
Atom  16C    basis set group =>   1
Atom  17H    basis set group =>   2
Atom  18H    basis set group =>   2
Atom  19C    basis set group =>   1
Atom  20H    basis set group =>   2
Atom  21H    basis set group =>   2
Atom  22C    basis set group =>   1
Atom  23H    basis set group =>   2
Atom  24H    basis set group =>   2
Atom  25C    basis set group =>   1
Atom  26H    basis set group =>   2
Atom  27H    basis set group =>   2
Atom  28C    basis set group =>   1
Atom  29H    basis set group =>   2
Atom  30H    basis set group =>   2
Atom  31C    basis set group =>   1
Atom  32H    basis set group =>   2
Atom  33H    basis set group =>   2
Atom  34C    basis set group =>   1
Atom  35H    basis set group =>   2
Atom  36H    basis set group =>   2
Atom  37C    basis set group =>   1
Atom  38C    basis set group =>   1
Atom  39C    basis set group =>   1
Atom  40C    basis set group =>   1
Atom  41C    basis set group =>   1
Atom  42C    basis set group =>   1
Atom  43H    basis set group =>   2
Atom  44H    basis set group =>   2
Atom  45H    basis set group =>   2
Atom  46H    basis set group =>   2
Atom  47H    basis set group =>   2
Atom  48C    basis set group =>   1
Atom  49C    basis set group =>   1
Atom  50C    basis set group =>   1
Atom  51C    basis set group =>   1
Atom  52C    basis set group =>   1
Atom  53C    basis set group =>   1
Atom  54H    basis set group =>   2
Atom  55H    basis set group =>   2
Atom  56H    basis set group =>   2
Atom  57H    basis set group =>   2
Atom  58H    basis set group =>   2
Atom  59C    basis set group =>   1
Atom  60C    basis set group =>   1
Atom  61C    basis set group =>   1
Atom  62C    basis set group =>   1
---------------------------------
AUXILIARY/C BASIS SET INFORMATION
---------------------------------
There are 2 groups of distinct atoms

 Group   1 Type C   : 17s13p12d2f contracted to 17s13p12d2f pattern {11111111111111111/1111111111111/111111111111/11}
 Group   2 Type H   : 15s6p1d contracted to 15s6p1d pattern {111111111111111/111111/1}

Atom   0C    basis set group =>   1
Atom   1C    basis set group =>   1
Atom   2C    basis set group =>   1
Atom   3C    basis set group =>   1
Atom   4C    basis set group =>   1
Atom   5C    basis set group =>   1
Atom   6C    basis set group =>   1
Atom   7C    basis set group =>   1
Atom   8C    basis set group =>   1
Atom   9H    basis set group =>   2
Atom  10H    basis set group =>   2
Atom  11C    basis set group =>   1
Atom  12H    basis set group =>   2
Atom  13C    basis set group =>   1
Atom  14H    basis set group =>   2
Atom  15H    basis set group =>   2
Atom  16C    basis set group =>   1
Atom  17H    basis set group =>   2
Atom  18H    basis set group =>   2
Atom  19C    basis set group =>   1
Atom  20H    basis set group =>   2
Atom  21H    basis set group =>   2
Atom  22C    basis set group =>   1
Atom  23H    basis set group =>   2
Atom  24H    basis set group =>   2
Atom  25C    basis set group =>   1
Atom  26H    basis set group =>   2
Atom  27H    basis set group =>   2
Atom  28C    basis set group =>   1
Atom  29H    basis set group =>   2
Atom  30H    basis set group =>   2
Atom  31C    basis set group =>   1
Atom  32H    basis set group =>   2
Atom  33H    basis set group =>   2
Atom  34C    basis set group =>   1
Atom  35H    basis set group =>   2
Atom  36H    basis set group =>   2
Atom  37C    basis set group =>   1
Atom  38C    basis set group =>   1
Atom  39C    basis set group =>   1
Atom  40C    basis set group =>   1
Atom  41C    basis set group =>   1
Atom  42C    basis set group =>   1
Atom  43H    basis set group =>   2
Atom  44H    basis set group =>   2
Atom  45H    basis set group =>   2
Atom  46H    basis set group =>   2
Atom  47H    basis set group =>   2
Atom  48C    basis set group =>   1
Atom  49C    basis set group =>   1
Atom  50C    basis set group =>   1
Atom  51C    basis set group =>   1
Atom  52C    basis set group =>   1
Atom  53C    basis set group =>   1
Atom  54H    basis set group =>   2
Atom  55H    basis set group =>   2
Atom  56H    basis set group =>   2
Atom  57H    basis set group =>   2
Atom  58H    basis set group =>   2
Atom  59C    basis set group =>   1
Atom  60C    basis set group =>   1
Atom  61C    basis set group =>   1
Atom  62C    basis set group =>   1
----------------------------------
AUXILIARY/JK BASIS SET INFORMATION
----------------------------------
There are 2 groups of distinct atoms

 Group   1 Type C   : 17s13p12d2f contracted to 17s13p12d2f pattern {11111111111111111/1111111111111/111111111111/11}
 Group   2 Type H   : 15s6p1d contracted to 15s6p1d pattern {111111111111111/111111/1}

Atom   0C    basis set group =>   1
Atom   1C    basis set group =>   1
Atom   2C    basis set group =>   1
Atom   3C    basis set group =>   1
Atom   4C    basis set group =>   1
Atom   5C    basis set group =>   1
Atom   6C    basis set group =>   1
Atom   7C    basis set group =>   1
Atom   8C    basis set group =>   1
Atom   9H    basis set group =>   2
Atom  10H    basis set group =>   2
Atom  11C    basis set group =>   1
Atom  12H    basis set group =>   2
Atom  13C    basis set group =>   1
Atom  14H    basis set group =>   2
Atom  15H    basis set group =>   2
Atom  16C    basis set group =>   1
Atom  17H    basis set group =>   2
Atom  18H    basis set group =>   2
Atom  19C    basis set group =>   1
Atom  20H    basis set group =>   2
Atom  21H    basis set group =>   2
Atom  22C    basis set group =>   1
Atom  23H    basis set group =>   2
Atom  24H    basis set group =>   2
Atom  25C    basis set group =>   1
Atom  26H    basis set group =>   2
Atom  27H    basis set group =>   2
Atom  28C    basis set group =>   1
Atom  29H    basis set group =>   2
Atom  30H    basis set group =>   2
Atom  31C    basis set group =>   1
Atom  32H    basis set group =>   2
Atom  33H    basis set group =>   2
Atom  34C    basis set group =>   1
Atom  35H    basis set group =>   2
Atom  36H    basis set group =>   2
Atom  37C    basis set group =>   1
Atom  38C    basis set group =>   1
Atom  39C    basis set group =>   1
Atom  40C    basis set group =>   1
Atom  41C    basis set group =>   1
Atom  42C    basis set group =>   1
Atom  43H    basis set group =>   2
Atom  44H    basis set group =>   2
Atom  45H    basis set group =>   2
Atom  46H    basis set group =>   2
Atom  47H    basis set group =>   2
Atom  48C    basis set group =>   1
Atom  49C    basis set group =>   1
Atom  50C    basis set group =>   1
Atom  51C    basis set group =>   1
Atom  52C    basis set group =>   1
Atom  53C    basis set group =>   1
Atom  54H    basis set group =>   2
Atom  55H    basis set group =>   2
Atom  56H    basis set group =>   2
Atom  57H    basis set group =>   2
Atom  58H    basis set group =>   2
Atom  59C    basis set group =>   1
Atom  60C    basis set group =>   1
Atom  61C    basis set group =>   1
Atom  62C    basis set group =>   1


           ************************************************************
           *        Program running with 16 parallel MPI-processes    *
           *              working on a common directory               *
           ************************************************************
------------------------------------------------------------------------------
                           ORCA GTO INTEGRAL CALCULATION
                           -- RI-GTO INTEGRALS CHOSEN --
------------------------------------------------------------------------------
------------------------------------------------------------------------------
                   ___                                                        
                  /   \      - P O W E R E D   B Y -                         
                 /     \                                                     
                 |  |  |   _    _      __       _____    __    __             
                 |  |  |  | |  | |    /  \     |  _  \  |  |  /  |          
                  \  \/   | |  | |   /    \    | | | |  |  | /  /          
                 / \  \   | |__| |  /  /\  \   | |_| |  |  |/  /          
                |  |  |   |  __  | /  /__\  \  |    /   |      \           
                |  |  |   | |  | | |   __   |  |    \   |  |\   \          
                \     /   | |  | | |  |  |  |  | |\  \  |  | \   \       
                 \___/    |_|  |_| |__|  |__|  |_| \__\ |__|  \__/        
                                                                              
                      - O R C A' S   B I G   F R I E N D -                    
                                      &                                       
                       - I N T E G R A L  F E E D E R -                       
                                                                              
 v1 FN, 2020, v2 2021                                                         
------------------------------------------------------------------------------


Reading SHARK input file EPRII.SHARKINP.tmp ... ok
----------------------
SHARK INTEGRAL PACKAGE
----------------------

Number of atoms                             ...     63
Number of basis functions                   ...    781
Number of shells                            ...    451
Maximum angular momentum                    ...      2
Integral batch strategy                     ... SHARK/LIBINT Hybrid
RI-J (if used) integral strategy            ... SPLIT-RIJ (Revised 2003 algorithm where possible)
Printlevel                                  ...      1
Contraction scheme used                     ... SEGMENTED contraction
Coulomb Range Separation                    ... NOT USED
Exchange Range Separation                   ... NOT USED
Finite Nucleus Model                        ... NOT USED
Auxiliary Coulomb fitting basis             ... AVAILABLE
   # of basis functions in Aux-J            ...   5522
   # of shells in Aux-J                     ...   2134
   Maximum angular momentum in Aux-J        ...      3
Auxiliary J/K fitting basis                 ... AVAILABLE
   # of basis functions in Aux-JK           ...   5522
   # of shells in Aux-JK                    ...   2134
   Maximum angular momentum in Aux-JK       ...      3
Auxiliary Correlation fitting basis         ... AVAILABLE
   # of basis functions in Aux-C            ...   5522
   # of shells in Aux-C                     ...   2134
   Maximum angular momentum in Aux-C        ...      3
Auxiliary 'external' fitting basis          ... NOT available
Integral threshold                          ...     1.000000e-10
Primitive cut-off                           ...     1.000000e-11
Primitive pair pre-selection threshold      ...     1.000000e-11

Calculating pre-screening integrals         ... done (  0.0 sec) Dimension = 451
Organizing shell pair data                  ... done (  0.3 sec)
Shell pair information
Total number of shell pairs                 ...    101926
Shell pairs after pre-screening             ...     42144
Total number of primitive shell pairs       ...    280009
Primitive shell pairs kept                  ...     78859
          la=0 lb=0:  19299 shell pairs
          la=1 lb=0:  14369 shell pairs
          la=1 lb=1:   2619 shell pairs
          la=2 lb=0:   4080 shell pairs
          la=2 lb=1:   1540 shell pairs
          la=2 lb=2:    237 shell pairs

Calculating one electron integrals          ... done (  0.1 sec)
Calculating RI/J V-Matrix + Cholesky decomp.... done (  1.8 sec)
Calculating RI/JK V-Matrix + Cholesky decomp... done (  1.8 sec)
Calculating RI/C V-Matrix + Cholesky decomp.... done (  1.9 sec)
Calculating Nuclear repulsion               ... done (  0.0 sec) ENN=   2735.916553133097 Eh

SHARK setup successfully completed in   6.3 seconds

Maximum memory used throughout the entire GTOINT-calculation: 95.7 MB


           ************************************************************
           *        Program running with 16 parallel MPI-processes    *
           *              working on a common directory               *
           ************************************************************
-------------------------------------------------------------------------------
                                 ORCA SCF
-------------------------------------------------------------------------------

------------
SCF SETTINGS
------------
Hamiltonian:
 Density Functional     Method          .... DFT(GTOs)
 Exchange Functional    Exchange        .... B88
   X-Alpha parameter    XAlpha          ....  0.666667
   Becke's b parameter  XBeta           ....  0.004200
 Correlation Functional Correlation     .... LYP
 LDA part of GGA corr.  LDAOpt          .... VWN-5
 Gradients option       PostSCFGGA      .... off
 Hybrid DFT is turned on
   Fraction HF Exchange ScalHFX         ....  0.200000
   Scaling of DF-GGA-X  ScalDFX         ....  0.720000
   Scaling of DF-GGA-C  ScalDFC         ....  0.810000
   Scaling of DF-LDA-C  ScalLDAC        ....  1.000000
   Perturbative correction              ....  0.000000
   Density functional embedding theory  .... OFF
   NL short-range parameter             ....  4.800000
 RI-approximation to the Coulomb term is turned on
   Number of AuxJ basis functions       .... 5522
   RIJ-COSX (HFX calculated with COS-X)).... on


General Settings:
 Integral files         IntName         .... EPRII
 Hartree-Fock type      HFTyp           .... UHF
 Total Charge           Charge          ....    0
 Multiplicity           Mult            ....    2
 Number of Electrons    NEL             ....  233
 Basis Dimension        Dim             ....  781
 Nuclear Repulsion      ENuc            ....   2735.9165531331 Eh

Convergence Acceleration:
 DIIS                   CNVDIIS         .... on
   Start iteration      DIISMaxIt       ....    12
   Startup error        DIISStart       ....  0.200000
   # of expansion vecs  DIISMaxEq       ....     5
   Bias factor          DIISBfac        ....   1.050
   Max. coefficient     DIISMaxC        ....  10.000
 Trust-Rad. Augm. Hess. CNVTRAH         .... auto
   Auto Start mean grad. ratio tolernc. ....  1.125000
   Auto Start start iteration           ....    20
   Auto Start num. interpolation iter.  ....    10
   Max. Number of Micro iterations      ....    16
   Max. Number of Macro iterations      .... Maxiter - #DIIS iter
   Number of Davidson start vectors     ....     2
   Converg. threshold I  (grad. norm)   ....   5.000e-05
   Converg. threshold II (energy diff.) ....   1.000e-06
   Grad. Scal. Fac. for Micro threshold ....   0.100
   Minimum threshold for Micro iter.    ....   0.010
   NR start threshold (gradient norm)   ....   0.001
   Initial trust radius                 ....   0.400
   Minimum AH scaling param. (alpha)    ....   1.000
   Maximum AH scaling param. (alpha)    .... 1000.000
   Orbital update algorithm             .... Taylor
   White noise on init. David. guess    .... on
   Maximum white noise                  ....   0.010
   Quad. conv. algorithm                .... NR
 SOSCF                  CNVSOSCF        .... off
 Level Shifting         CNVShift        .... on
   Level shift para.    LevelShift      ....    0.2500
   Turn off err/grad.   ShiftErr        ....    0.0010
 Zerner damping         CNVZerner       .... off
 Static damping         CNVDamp         .... on
   Fraction old density DampFac         ....    0.7000
   Max. Damping (<1)    DampMax         ....    0.9800
   Min. Damping (>=0)   DampMin         ....    0.0000
   Turn off err/grad.   DampErr         ....    0.1000
 Fernandez-Rico         CNVRico         .... off

SCF Procedure:
 Maximum # iterations   MaxIter         ....   125
 SCF integral mode      SCFMode         .... Direct
   Integral package                     .... SHARK and LIBINT hybrid scheme
 Reset frequency        DirectResetFreq ....    20
 Integral Threshold     Thresh          ....  1.000e-10 Eh
 Primitive CutOff       TCut            ....  1.000e-11 Eh

Convergence Tolerance:
 Convergence Check Mode ConvCheckMode   .... Total+1el-Energy
 Convergence forced     ConvForced      .... 0
 Energy Change          TolE            ....  1.000e-06 Eh
 1-El. energy change                    ....  1.000e-03 Eh
 DIIS Error             TolErr          ....  1.000e-06


Diagonalization of the overlap matrix:
Smallest eigenvalue                        ... 3.561e-05
Time for diagonalization                   ...    0.177 sec
Threshold for overlap eigenvalues          ... 1.000e-08
Number of eigenvalues below threshold      ... 0
Time for construction of square roots      ...    0.091 sec
Total time needed                          ...    0.272 sec

Time for model grid setup =    0.468 sec

------------------------------
INITIAL GUESS: MODEL POTENTIAL
------------------------------
Loading Hartree-Fock densities                     ... done
Calculating cut-offs                               ... done
Initializing the effective Hamiltonian             ... done
Setting up the integral package (SHARK)            ... done
Starting the Coulomb interaction                   ... done (   0.5 sec)
Reading the grid                                   ... done
Mapping shells                                     ... done
Starting the XC term evaluation                    ... done (   0.2 sec)
  promolecular density results
     # of electrons  =    232.993599442
     EX              =   -183.185955964
     EC              =     -7.721891378
     EX+EC           =   -190.907847342
Transforming the Hamiltonian                       ... done (   0.1 sec)
Diagonalizing the Hamiltonian                      ... done (   0.1 sec)
Back transforming the eigenvectors                 ... done (   0.0 sec)
Now organizing SCF variables                       ... done
                      ------------------
                      INITIAL GUESS DONE (   1.6 sec)
                      ------------------
-------------------
DFT GRID GENERATION
-------------------

General Integration Accuracy     IntAcc      ... 4.388
Radial Grid Type                 RadialGrid  ... OptM3 with GC (2021)
Angular Grid (max. ang.)         AngularGrid ... 4 (Lebedev-302)
Angular grid pruning method      GridPruning ... 4 (adaptive)
Weight generation scheme         WeightScheme... Becke
Basis function cutoff            BFCut       ... 1.0000e-10
Integration weight cutoff        WCut        ... 1.0000e-14
Angular grids for H and He will be reduced by one unit
Partially contracted basis set               ... off
Rotationally invariant grid construction     ... off

Total number of grid points                  ...   295746
Total number of batches                      ...     4659
Average number of points per batch           ...       63
Average number of grid points per atom       ...     4694
Time for grid setup =    1.967 sec

--------------------
COSX GRID GENERATION
--------------------

GRIDX 1
-------
General Integration Accuracy     IntAcc      ... 3.816
Radial Grid Type                 RadialGrid  ... OptM3 with GC (2021)
Angular Grid (max. ang.)         AngularGrid ... 1 (Lebedev-50)
Angular grid pruning method      GridPruning ... 4 (adaptive)
Weight generation scheme         WeightScheme... Becke
Basis function cutoff            BFCut       ... 1.0000e-10
Integration weight cutoff        WCut        ... 1.0000e-14
Angular grids for H and He will be reduced by one unit
Partially contracted basis set               ... on
Rotationally invariant grid construction     ... off

Total number of grid points                  ...    37650
Total number of batches                      ...      626
Average number of points per batch           ...       60
Average number of grid points per atom       ...      598
UseSFitting                                  ... on

GRIDX 2
-------
General Integration Accuracy     IntAcc      ... 4.020
Radial Grid Type                 RadialGrid  ... OptM3 with GC (2021)
Angular Grid (max. ang.)         AngularGrid ... 2 (Lebedev-110)
Angular grid pruning method      GridPruning ... 4 (adaptive)
Weight generation scheme         WeightScheme... Becke
Basis function cutoff            BFCut       ... 1.0000e-10
Integration weight cutoff        WCut        ... 1.0000e-14
Angular grids for H and He will be reduced by one unit
Partially contracted basis set               ... on
Rotationally invariant grid construction     ... off

Total number of grid points                  ...    81060
Total number of batches                      ...     1297
Average number of points per batch           ...       62
Average number of grid points per atom       ...     1287
UseSFitting                                  ... on

GRIDX 3
-------
General Integration Accuracy     IntAcc      ... 4.338
Radial Grid Type                 RadialGrid  ... OptM3 with GC (2021)
Angular Grid (max. ang.)         AngularGrid ... 3 (Lebedev-194)
Angular grid pruning method      GridPruning ... 4 (adaptive)
Weight generation scheme         WeightScheme... Becke
Basis function cutoff            BFCut       ... 1.0000e-10
Integration weight cutoff        WCut        ... 1.0000e-14
Angular grids for H and He will be reduced by one unit
Partially contracted basis set               ... on
Rotationally invariant grid construction     ... off

Total number of grid points                  ...   177420
Total number of batches                      ...     2807
Average number of points per batch           ...       63
Average number of grid points per atom       ...     2816
UseSFitting                                  ... on

Time for X-Grid setup             =    3.426 sec

--------------
SCF ITERATIONS
--------------
ITER       Energy         Delta-E        Max-DP      RMS-DP      [F,P]     Damp
               ***  Starting incremental Fock matrix formation  ***
  0  -1311.4677105650   0.000000000000 0.22036314  0.00115801  0.0795803 0.7000
  1  -1311.7527687809  -0.285058215916 0.12753978  0.00075037  0.0425830 0.7000
                               ***Turning on DIIS***
  2  -1311.8865558957  -0.133787114782 0.25268183  0.00151425  0.0165094 0.0000
  3  -1312.0766347559  -0.190078860198 0.02763502  0.00029903  0.0233473 0.0000
  4  -1312.1241355063  -0.047500750461 0.02326853  0.00014926  0.0047925 0.0000
  5  -1312.1265484107  -0.002412904379 0.01429466  0.00007185  0.0030778 0.0000
  6  -1312.1269250361  -0.000376625376 0.00611231  0.00003124  0.0023792 0.0000
  7  -1312.1270754517  -0.000150415654 0.00321184  0.00001601  0.0016274 0.0000
  8  -1312.1271648459  -0.000089394139 0.00304883  0.00001121  0.0011449 0.0000
  9  -1312.1272287920  -0.000063946097 0.00437669  0.00001804  0.0006777 0.0000
               *** Restarting incremental Fock matrix formation ***
                                   *** Resetting DIIS ***
 10  -1312.1275803817  -0.000351589768 0.00767394  0.00003497  0.0003280 0.0000
 11  -1312.1275856469  -0.000005265157 0.00050251  0.00000281  0.0003564 0.0000
 12  -1312.1275884213  -0.000002774448 0.00052630  0.00000262  0.0002108 0.0000
 13  -1312.1275899357  -0.000001514332 0.00088883  0.00000358  0.0001758 0.0000
 14  -1312.1275915243  -0.000001588605 0.00068129  0.00000307  0.0000879 0.0000
 15  -1312.1275917736  -0.000000249347 0.00078652  0.00000231  0.0000414 0.0000
                 **** Energy Check signals convergence ****

               *****************************************************
               *                     SUCCESS                       *
               *           SCF CONVERGED AFTER  16 CYCLES          *
               *****************************************************

Old exchange energy                            =    -37.221193025 Eh
New exchange energy                            =    -37.221236875 Eh
Exchange energy change after final integration =     -0.000043850 Eh
Total energy after final integration           =  -1312.127635482 Eh
Final COS-X integration done in                =    18.256 sec

----------------
TOTAL SCF ENERGY
----------------

Total Energy       :        -1312.12763548 Eh          -35704.80816 eV

Components:
Nuclear Repulsion  :         2735.91655313 Eh           74448.07428 eV
Electronic Energy  :        -4048.04418862 Eh         -110152.88244 eV
One Electron Energy:        -7207.64355242 Eh         -196129.95212 eV
Two Electron Energy:         3159.59936380 Eh           85977.06968 eV
Max COSX asymmetry :            0.00000349 Eh               0.00009 eV

Virial components:
Potential Energy   :        -2613.77173161 Eh          -71124.34471 eV
Kinetic Energy     :         1301.64409613 Eh           35419.53655 eV
Virial Ratio       :            2.00805408


DFT components:
N(Alpha)           :      117.000183795163 electrons
N(Beta)            :      116.000167873451 electrons
N(Total)           :      233.000351668614 electrons
E(X)               :     -147.728807531302 Eh       
E(C)               :       -9.124327955280 Eh       
E(XC)              :     -156.853135486581 Eh       
DFET-embed. en.    :        0.000000000000 Eh       

---------------
SCF CONVERGENCE
---------------

  Last Energy change         ...    1.4189e-07  Tolerance :   1.0000e-06
  Last MAX-Density change    ...    0.0000e+00  Tolerance :   1.0000e-05
  Last RMS-Density change    ...    0.0000e+00  Tolerance :   1.0000e-06
  Last DIIS Error            ...    2.5998e-05  Tolerance :   1.0000e-06

             **** THE GBW FILE WAS UPDATED (EPRII.gbw) ****
             **** DENSITY EPRII.scfp WAS UPDATED ****
             **** ENERGY FILE WAS UPDATED (EPRII.en.tmp) ****
----------------------
UHF SPIN CONTAMINATION
----------------------

Warning: in a DFT calculation there is little theoretical justification to 
         calculate <S**2> as in Hartree-Fock theory. We will do it anyways
         but you should keep in mind that the values have only limited relevance

Expectation value of <S**2>     :     0.789412
Ideal value S*(S+1) for S=0.5   :     0.750000
Deviation                       :     0.039412

             **** THE GBW FILE WAS UPDATED (EPRII.gbw) ****
             **** DENSITY EPRII.scfp WAS UPDATED ****
----------------
ORBITAL ENERGIES
----------------
                 SPIN UP ORBITALS
  NO   OCC          E(Eh)            E(eV) 
   0   1.0000     -10.235522      -278.5227 
   1   1.0000     -10.235082      -278.5107 
   2   1.0000     -10.233819      -278.4764 
   3   1.0000     -10.233528      -278.4685 
   4   1.0000     -10.227411      -278.3020 
   5   1.0000     -10.225516      -278.2504 
   6   1.0000     -10.214785      -277.9584 
   7   1.0000     -10.213336      -277.9190 
   8   1.0000     -10.213264      -277.9170 
   9   1.0000     -10.212366      -277.8926 
  10   1.0000     -10.212247      -277.8894 
  11   1.0000     -10.211810      -277.8775 
  12   1.0000     -10.211716      -277.8749 
  13   1.0000     -10.211565      -277.8708 
  14   1.0000     -10.211414      -277.8667 
  15   1.0000     -10.211037      -277.8564 
  16   1.0000     -10.210769      -277.8492 
  17   1.0000     -10.209978      -277.8276 
  18   1.0000     -10.208049      -277.7751 
  19   1.0000     -10.206880      -277.7433 
  20   1.0000     -10.205767      -277.7130 
  21   1.0000     -10.205195      -277.6975 
  22   1.0000     -10.204641      -277.6824 
  23   1.0000     -10.203063      -277.6395 
  24   1.0000     -10.201908      -277.6080 
  25   1.0000     -10.201743      -277.6035 
  26   1.0000     -10.200101      -277.5588 
  27   1.0000     -10.193058      -277.3672 
  28   1.0000     -10.191339      -277.3204 
  29   1.0000     -10.187991      -277.2293 
  30   1.0000     -10.185355      -277.1576 
  31   1.0000     -10.185031      -277.1488 
  32   1.0000     -10.177463      -276.9428 
  33   1.0000     -10.175323      -276.8846 
  34   1.0000      -0.878002       -23.8917 
  35   1.0000      -0.876141       -23.8410 
  36   1.0000      -0.874599       -23.7990 
  37   1.0000      -0.823728       -22.4148 
  38   1.0000      -0.809721       -22.0336 
  39   1.0000      -0.807516       -21.9736 
  40   1.0000      -0.797608       -21.7040 
  41   1.0000      -0.793637       -21.5960 
  42   1.0000      -0.770032       -20.9536 
  43   1.0000      -0.760847       -20.7037 
  44   1.0000      -0.760492       -20.6940 
  45   1.0000      -0.759487       -20.6667 
  46   1.0000      -0.748408       -20.3652 
  47   1.0000      -0.736666       -20.0457 
  48   1.0000      -0.727191       -19.7879 
  49   1.0000      -0.714350       -19.4384 
  50   1.0000      -0.699598       -19.0370 
  51   1.0000      -0.661250       -17.9935 
  52   1.0000      -0.658105       -17.9080 
  53   1.0000      -0.643838       -17.5197 
  54   1.0000      -0.624274       -16.9874 
  55   1.0000      -0.620639       -16.8884 
  56   1.0000      -0.619135       -16.8475 
  57   1.0000      -0.618058       -16.8182 
  58   1.0000      -0.594824       -16.1860 
  59   1.0000      -0.582441       -15.8490 
  60   1.0000      -0.564807       -15.3692 
  61   1.0000      -0.555530       -15.1168 
  62   1.0000      -0.554217       -15.0810 
  63   1.0000      -0.544413       -14.8142 
  64   1.0000      -0.535945       -14.5838 
  65   1.0000      -0.511124       -13.9084 
  66   1.0000      -0.508925       -13.8486 
  67   1.0000      -0.498937       -13.5768 
  68   1.0000      -0.493738       -13.4353 
  69   1.0000      -0.481968       -13.1150 
  70   1.0000      -0.473614       -12.8877 
  71   1.0000      -0.473303       -12.8792 
  72   1.0000      -0.471904       -12.8412 
  73   1.0000      -0.465305       -12.6616 
  74   1.0000      -0.447666       -12.1816 
  75   1.0000      -0.446052       -12.1377 
  76   1.0000      -0.436419       -11.8756 
  77   1.0000      -0.433143       -11.7864 
  78   1.0000      -0.432706       -11.7745 
  79   1.0000      -0.431668       -11.7463 
  80   1.0000      -0.428548       -11.6614 
  81   1.0000      -0.424850       -11.5608 
  82   1.0000      -0.414148       -11.2695 
  83   1.0000      -0.402079       -10.9411 
  84   1.0000      -0.401773       -10.9328 
  85   1.0000      -0.395420       -10.7599 
  86   1.0000      -0.394417       -10.7326 
  87   1.0000      -0.387915       -10.5557 
  88   1.0000      -0.386890       -10.5278 
  89   1.0000      -0.382457       -10.4072 
  90   1.0000      -0.381734       -10.3875 
  91   1.0000      -0.367793       -10.0082 
  92   1.0000      -0.363146        -9.8817 
  93   1.0000      -0.361721        -9.8429 
  94   1.0000      -0.359915        -9.7938 
  95   1.0000      -0.358586        -9.7576 
  96   1.0000      -0.345951        -9.4138 
  97   1.0000      -0.342647        -9.3239 
  98   1.0000      -0.336940        -9.1686 
  99   1.0000      -0.335218        -9.1218 
 100   1.0000      -0.331911        -9.0318 
 101   1.0000      -0.329981        -8.9792 
 102   1.0000      -0.326039        -8.8720 
 103   1.0000      -0.325441        -8.8557 
 104   1.0000      -0.313300        -8.5253 
 105   1.0000      -0.287020        -7.8102 
 106   1.0000      -0.282817        -7.6958 
 107   1.0000      -0.281455        -7.6588 
 108   1.0000      -0.275768        -7.5040 
 109   1.0000      -0.274823        -7.4783 
 110   1.0000      -0.273170        -7.4333 
 111   1.0000      -0.268153        -7.2968 
 112   1.0000      -0.267306        -7.2738 
 113   1.0000      -0.261909        -7.1269 
 114   1.0000      -0.232120        -6.3163 
 115   1.0000      -0.211245        -5.7483 
 116   1.0000      -0.174738        -4.7549 
 117   0.0000      -0.078708        -2.1417 
 118   0.0000      -0.052663        -1.4330 
 119   0.0000      -0.021372        -0.5816 
 120   0.0000      -0.020209        -0.5499 
 121   0.0000      -0.017900        -0.4871 
 122   0.0000       0.009118         0.2481 
 123   0.0000       0.009852         0.2681 
 124   0.0000       0.011572         0.3149 
 125   0.0000       0.018351         0.4994 
 126   0.0000       0.020356         0.5539 
 127   0.0000       0.026269         0.7148 
 128   0.0000       0.027175         0.7395 
 129   0.0000       0.030324         0.8252 
 130   0.0000       0.032948         0.8966 
 131   0.0000       0.033794         0.9196 
 132   0.0000       0.039644         1.0788 
 133   0.0000       0.041198         1.1211 
 134   0.0000       0.042719         1.1624 
 135   0.0000       0.044798         1.2190 
 136   0.0000       0.044850         1.2204 
 137   0.0000       0.047112         1.2820 
 138   0.0000       0.054968         1.4958 
 139   0.0000       0.058055         1.5798 
 140   0.0000       0.061248         1.6666 
 141   0.0000       0.062855         1.7104 
 142   0.0000       0.065065         1.7705 
 143   0.0000       0.068931         1.8757 
 144   0.0000       0.075110         2.0438 
 145   0.0000       0.077318         2.1039 
 146   0.0000       0.080667         2.1951 
 147   0.0000       0.084940         2.3113 
 148   0.0000       0.090615         2.4658 
 149   0.0000       0.096729         2.6321 
 150   0.0000       0.099103         2.6967 
 151   0.0000       0.112157         3.0520 
 152   0.0000       0.112963         3.0739 
 153   0.0000       0.118641         3.2284 
 154   0.0000       0.121874         3.3164 
 155   0.0000       0.129434         3.5221 
 156   0.0000       0.129838         3.5331 
 157   0.0000       0.134090         3.6488 
 158   0.0000       0.149228         4.0607 
 159   0.0000       0.151044         4.1101 
 160   0.0000       0.154249         4.1973 
 161   0.0000       0.157046         4.2734 
 162   0.0000       0.160631         4.3710 
 163   0.0000       0.163606         4.4519 
 164   0.0000       0.168908         4.5962 
 165   0.0000       0.171643         4.6706 
 166   0.0000       0.172724         4.7001 
 167   0.0000       0.177650         4.8341 
 168   0.0000       0.179878         4.8947 
 169   0.0000       0.189857         5.1663 
 170   0.0000       0.191837         5.2202 
 171   0.0000       0.195498         5.3198 
 172   0.0000       0.197944         5.3863 
 173   0.0000       0.198622         5.4048 
 174   0.0000       0.198907         5.4125 
 175   0.0000       0.202995         5.5238 
 176   0.0000       0.207287         5.6406 
 177   0.0000       0.212525         5.7831 
 178   0.0000       0.214620         5.8401 
 179   0.0000       0.215655         5.8683 
 180   0.0000       0.221747         6.0341 
 181   0.0000       0.223561         6.0834 
 182   0.0000       0.225134         6.1262 
 183   0.0000       0.232087         6.3154 
 184   0.0000       0.233494         6.3537 
 185   0.0000       0.238551         6.4913 
 186   0.0000       0.239665         6.5216 
 187   0.0000       0.241922         6.5830 
 188   0.0000       0.245325         6.6756 
 189   0.0000       0.248968         6.7748 
 190   0.0000       0.250493         6.8163 
 191   0.0000       0.258744         7.0408 
 192   0.0000       0.260524         7.0892 
 193   0.0000       0.264545         7.1986 
 194   0.0000       0.268270         7.3000 
 195   0.0000       0.271173         7.3790 
 196   0.0000       0.276446         7.5225 
 197   0.0000       0.277264         7.5447 
 198   0.0000       0.277797         7.5592 
 199   0.0000       0.279962         7.6182 
 200   0.0000       0.280860         7.6426 
 201   0.0000       0.282943         7.6993 
 202   0.0000       0.284289         7.7359 
 203   0.0000       0.285381         7.7656 
 204   0.0000       0.288326         7.8458 
 205   0.0000       0.291986         7.9453 
 206   0.0000       0.294994         8.0272 
 207   0.0000       0.296725         8.0743 
 208   0.0000       0.297470         8.0946 
 209   0.0000       0.299694         8.1551 
 210   0.0000       0.303754         8.2656 
 211   0.0000       0.307487         8.3672 
 212   0.0000       0.310917         8.4605 
 213   0.0000       0.311213         8.4685 
 214   0.0000       0.313263         8.5243 
 215   0.0000       0.313460         8.5297 
 216   0.0000       0.316846         8.6218 
 217   0.0000       0.319320         8.6891 
 218   0.0000       0.319834         8.7031 
 219   0.0000       0.321349         8.7444 
 220   0.0000       0.323951         8.8152 
 221   0.0000       0.329586         8.9685 
 222   0.0000       0.334005         9.0887 
 223   0.0000       0.338090         9.1999 
 224   0.0000       0.338516         9.2115 
 225   0.0000       0.338690         9.2162 
 226   0.0000       0.340290         9.2598 
 227   0.0000       0.341051         9.2805 
 228   0.0000       0.343609         9.3501 
 229   0.0000       0.348696         9.4885 
 230   0.0000       0.351014         9.5516 
 231   0.0000       0.354930         9.6581 
 232   0.0000       0.356498         9.7008 
 233   0.0000       0.359207         9.7745 
 234   0.0000       0.366539         9.9740 
 235   0.0000       0.370477        10.0812 
 236   0.0000       0.371968        10.1218 
 237   0.0000       0.377179        10.2636 
 238   0.0000       0.379806        10.3351 
 239   0.0000       0.382219        10.4007 
 240   0.0000       0.387388        10.5414 
 241   0.0000       0.388654        10.5758 
 242   0.0000       0.393074        10.6961 
 243   0.0000       0.398794        10.8517 
 244   0.0000       0.400911        10.9094 
 245   0.0000       0.406738        11.0679 
 246   0.0000       0.409983        11.1562 
 247   0.0000       0.411176        11.1887 
 248   0.0000       0.412201        11.2166 
 249   0.0000       0.414404        11.2765 
 250   0.0000       0.415619        11.3096 
 251   0.0000       0.417056        11.3487 
 252   0.0000       0.418074        11.3764 
 253   0.0000       0.420963        11.4550 
 254   0.0000       0.425108        11.5678 
 255   0.0000       0.432325        11.7642 
 256   0.0000       0.436908        11.8889 
 257   0.0000       0.439204        11.9514 
 258   0.0000       0.442038        12.0285 
 259   0.0000       0.442756        12.0480 
 260   0.0000       0.449248        12.2247 
 261   0.0000       0.452245        12.3062 
 262   0.0000       0.456292        12.4163 
 263   0.0000       0.456813        12.4305 
 264   0.0000       0.458417        12.4742 
 265   0.0000       0.461948        12.5702 
 266   0.0000       0.462324        12.5805 
 267   0.0000       0.466952        12.7064 
 268   0.0000       0.469455        12.7745 
 269   0.0000       0.473268        12.8783 
 270   0.0000       0.477273        12.9873 
 271   0.0000       0.482818        13.1382 
 272   0.0000       0.483752        13.1636 
 273   0.0000       0.487627        13.2690 
 274   0.0000       0.491331        13.3698 
 275   0.0000       0.499147        13.5825 
 276   0.0000       0.499497        13.5920 
 277   0.0000       0.503369        13.6974 
 278   0.0000       0.506922        13.7940 
 279   0.0000       0.510210        13.8835 
 280   0.0000       0.517122        14.0716 
 281   0.0000       0.526276        14.3207 
 282   0.0000       0.527512        14.3543 
 283   0.0000       0.529502        14.4085 
 284   0.0000       0.533041        14.5048 
 285   0.0000       0.536929        14.6106 
 286   0.0000       0.538323        14.6485 
 287   0.0000       0.540382        14.7045 
 288   0.0000       0.544037        14.8040 
 289   0.0000       0.548489        14.9251 
 290   0.0000       0.550110        14.9692 
 291   0.0000       0.554353        15.0847 
 292   0.0000       0.556116        15.1327 
 293   0.0000       0.560602        15.2548 
 294   0.0000       0.573431        15.6038 
 295   0.0000       0.574702        15.6384 
 296   0.0000       0.579193        15.7606 
 297   0.0000       0.583622        15.8812 
 298   0.0000       0.584161        15.8958 
 299   0.0000       0.592035        16.1101 
 300   0.0000       0.596674        16.2363 
 301   0.0000       0.599991        16.3266 
 302   0.0000       0.609215        16.5776 
 303   0.0000       0.617865        16.8130 
 304   0.0000       0.629778        17.1371 
 305   0.0000       0.630891        17.1674 
 306   0.0000       0.643897        17.5213 
 307   0.0000       0.650903        17.7120 
 308   0.0000       0.653348        17.7785 
 309   0.0000       0.654540        17.8109 
 310   0.0000       0.656913        17.8755 
 311   0.0000       0.665992        18.1226 
 312   0.0000       0.667037        18.1510 
 313   0.0000       0.672316        18.2946 
 314   0.0000       0.689116        18.7518 
 315   0.0000       0.691231        18.8094 
 316   0.0000       0.701926        19.1004 
 317   0.0000       0.714476        19.4419 
 318   0.0000       0.716153        19.4875 
 319   0.0000       0.719690        19.5837 
 320   0.0000       0.739527        20.1235 
 321   0.0000       0.757428        20.6107 
 322   0.0000       0.766949        20.8697 
 323   0.0000       0.768057        20.8999 
 324   0.0000       0.771649        20.9976 
 325   0.0000       0.788527        21.4569 
 326   0.0000       0.790680        21.5155 
 327   0.0000       0.795593        21.6492 
 328   0.0000       0.801158        21.8006 
 329   0.0000       0.812886        22.1198 
 330   0.0000       0.829539        22.5729 
 331   0.0000       0.833264        22.6743 
 332   0.0000       0.838166        22.8077 
 333   0.0000       0.842871        22.9357 
 334   0.0000       0.849643        23.1199 
 335   0.0000       0.851728        23.1767 
 336   0.0000       0.855570        23.2812 
 337   0.0000       0.858816        23.3696 
 338   0.0000       0.858857        23.3707 
 339   0.0000       0.866207        23.5707 
 340   0.0000       0.868590        23.6355 
 341   0.0000       0.873525        23.7698 
 342   0.0000       0.874401        23.7937 
 343   0.0000       0.880302        23.9542 
 344   0.0000       0.880862        23.9695 
 345   0.0000       0.882578        24.0162 
 346   0.0000       0.890151        24.2222 
 347   0.0000       0.892717        24.2921 
 348   0.0000       0.896296        24.3895 
 349   0.0000       0.900845        24.5132 
 350   0.0000       0.902655        24.5625 
 351   0.0000       0.911239        24.7961 
 352   0.0000       0.911386        24.8001 
 353   0.0000       0.921783        25.0830 
 354   0.0000       0.923359        25.1259 
 355   0.0000       0.926923        25.2229 
 356   0.0000       0.927401        25.2359 
 357   0.0000       0.927531        25.2394 
 358   0.0000       0.935118        25.4459 
 359   0.0000       0.942170        25.6378 
 360   0.0000       0.945585        25.7307 
 361   0.0000       0.951446        25.8902 
 362   0.0000       0.954276        25.9672 
 363   0.0000       0.955149        25.9909 
 364   0.0000       0.967747        26.3337 
 365   0.0000       0.967849        26.3365 
 366   0.0000       0.972139        26.4532 
 367   0.0000       0.978520        26.6269 
 368   0.0000       0.980802        26.6890 
 369   0.0000       0.983197        26.7542 
 370   0.0000       0.988516        26.8989 
 371   0.0000       0.989249        26.9188 
 372   0.0000       0.991017        26.9669 
 373   0.0000       0.992191        26.9989 
 374   0.0000       0.994157        27.0524 
 375   0.0000       1.000605        27.2278 
 376   0.0000       1.007367        27.4118 
 377   0.0000       1.008621        27.4460 
 378   0.0000       1.013315        27.5737 
 379   0.0000       1.018117        27.7044 
 380   0.0000       1.021959        27.8089 
 381   0.0000       1.024901        27.8890 
 382   0.0000       1.027314        27.9546 
 383   0.0000       1.027830        27.9687 
 384   0.0000       1.029303        28.0088 
 385   0.0000       1.032832        28.1048 
 386   0.0000       1.035644        28.1813 
 387   0.0000       1.037412        28.2294 
 388   0.0000       1.039837        28.2954 
 389   0.0000       1.044640        28.4261 
 390   0.0000       1.045933        28.4613 
 391   0.0000       1.050139        28.5757 
 392   0.0000       1.060722        28.8637 
 393   0.0000       1.064206        28.9585 
 394   0.0000       1.066508        29.0211 
 395   0.0000       1.067709        29.0538 
 396   0.0000       1.082438        29.4546 
 397   0.0000       1.084516        29.5112 
 398   0.0000       1.093997        29.7692 
 399   0.0000       1.101844        29.9827 
 400   0.0000       1.103901        30.0387 
 401   0.0000       1.108720        30.1698 
 402   0.0000       1.112776        30.2802 
 403   0.0000       1.120069        30.4786 
 404   0.0000       1.131345        30.7855 
 405   0.0000       1.135004        30.8850 
 406   0.0000       1.138691        30.9854 
 407   0.0000       1.139661        31.0118 
 408   0.0000       1.150191        31.2983 
 409   0.0000       1.152314        31.3561 
 410   0.0000       1.165277        31.7088 
 411   0.0000       1.168012        31.7832 
 412   0.0000       1.169284        31.8178 
 413   0.0000       1.176362        32.0104 
 414   0.0000       1.181749        32.1570 
 415   0.0000       1.186545        32.2875 
 416   0.0000       1.189471        32.3671 
 417   0.0000       1.200270        32.6610 
 418   0.0000       1.204473        32.7754 
 419   0.0000       1.210116        32.9289 
 420   0.0000       1.214283        33.0423 
 421   0.0000       1.220314        33.2064 
 422   0.0000       1.230402        33.4809 
 423   0.0000       1.234103        33.5816 
 424   0.0000       1.234947        33.6046 
 425   0.0000       1.246848        33.9285 
 426   0.0000       1.252306        34.0770 
 427   0.0000       1.253452        34.1082 
 428   0.0000       1.253743        34.1161 
 429   0.0000       1.264052        34.3966 
 430   0.0000       1.269118        34.5344 
 431   0.0000       1.271437        34.5976 
 432   0.0000       1.281730        34.8777 
 433   0.0000       1.285136        34.9703 
 434   0.0000       1.299990        35.3745 
 435   0.0000       1.300538        35.3894 
 436   0.0000       1.306163        35.5425 
 437   0.0000       1.313602        35.7449 
 438   0.0000       1.321552        35.9613 
 439   0.0000       1.327733        36.1295 
 440   0.0000       1.329159        36.1683 
 441   0.0000       1.334240        36.3065 
 442   0.0000       1.345081        36.6015 
 443   0.0000       1.346344        36.6359 
 444   0.0000       1.354056        36.8457 
 445   0.0000       1.361656        37.0525 
 446   0.0000       1.367861        37.2214 
 447   0.0000       1.369479        37.2654 
 448   0.0000       1.379655        37.5423 
 449   0.0000       1.383712        37.6527 
 450   0.0000       1.387317        37.7508 
 451   0.0000       1.389258        37.8036 
 452   0.0000       1.398710        38.0608 
 453   0.0000       1.400653        38.1137 
 454   0.0000       1.407659        38.3044 
 455   0.0000       1.416575        38.5470 
 456   0.0000       1.424186        38.7541 
 457   0.0000       1.424927        38.7742 
 458   0.0000       1.425218        38.7822 
 459   0.0000       1.431634        38.9567 
 460   0.0000       1.434900        39.0456 
 461   0.0000       1.449095        39.4319 
 462   0.0000       1.449967        39.4556 
 463   0.0000       1.455824        39.6150 
 464   0.0000       1.456817        39.6420 
 465   0.0000       1.458095        39.6768 
 466   0.0000       1.468308        39.9547 
 467   0.0000       1.468741        39.9665 
 468   0.0000       1.472057        40.0567 
 469   0.0000       1.473844        40.1053 
 470   0.0000       1.485980        40.4356 
 471   0.0000       1.491089        40.5746 
 472   0.0000       1.503305        40.9070 
 473   0.0000       1.507305        41.0158 
 474   0.0000       1.509319        41.0707 
 475   0.0000       1.510271        41.0966 
 476   0.0000       1.516585        41.2684 
 477   0.0000       1.526270        41.5319 
 478   0.0000       1.541339        41.9420 
 479   0.0000       1.545094        42.0442 
 480   0.0000       1.554416        42.2978 
 481   0.0000       1.558674        42.4137 
 482   0.0000       1.558941        42.4209 
 483   0.0000       1.559995        42.4496 
 484   0.0000       1.568801        42.6892 
 485   0.0000       1.580538        43.0086 
 486   0.0000       1.581375        43.0314 
 487   0.0000       1.585051        43.1314 
 488   0.0000       1.586164        43.1617 
 489   0.0000       1.592959        43.3466 
 490   0.0000       1.596782        43.4506 
 491   0.0000       1.600953        43.5642 
 492   0.0000       1.604763        43.6678 
 493   0.0000       1.608139        43.7597 
 494   0.0000       1.617081        44.0030 
 495   0.0000       1.617403        44.0118 
 496   0.0000       1.623810        44.1861 
 497   0.0000       1.638842        44.5951 
 498   0.0000       1.642240        44.6876 
 499   0.0000       1.645300        44.7709 
 500   0.0000       1.648185        44.8494 
 501   0.0000       1.650368        44.9088 
 502   0.0000       1.651191        44.9312 
 503   0.0000       1.657369        45.0993 
 504   0.0000       1.663701        45.2716 
 505   0.0000       1.666086        45.3365 
 506   0.0000       1.671882        45.4942 
 507   0.0000       1.679805        45.7098 
 508   0.0000       1.682301        45.7777 
 509   0.0000       1.684099        45.8267 
 510   0.0000       1.684604        45.8404 
 511   0.0000       1.686742        45.8986 
 512   0.0000       1.691113        46.0175 
 513   0.0000       1.692282        46.0493 
 514   0.0000       1.698833        46.2276 
 515   0.0000       1.700673        46.2777 
 516   0.0000       1.701512        46.3005 
 517   0.0000       1.704780        46.3894 
 518   0.0000       1.714177        46.6451 
 519   0.0000       1.724344        46.9218 
 520   0.0000       1.730446        47.0878 
 521   0.0000       1.735591        47.2278 
 522   0.0000       1.739188        47.3257 
 523   0.0000       1.759008        47.8651 
 524   0.0000       1.762296        47.9545 
 525   0.0000       1.764246        48.0076 
 526   0.0000       1.768222        48.1158 
 527   0.0000       1.781879        48.4874 
 528   0.0000       1.789890        48.7054 
 529   0.0000       1.790030        48.7092 
 530   0.0000       1.790701        48.7275 
 531   0.0000       1.796258        48.8787 
[...]

 -----------------------------------------------------------
 Nucleus  56H : A:ISTP=    1 I=  0.5 P=533.5514 MHz/au**3
                Q:ISTP=    2 I=  1.0 Q=  0.0029 barn     
 -----------------------------------------------------------
 Solving for nuclear perturbation:
Forming RHS of the CP-SCF equations         ... 
Calc. nucleus orbit integrals (SHARK)       ... done

------------------------------------------------------------------------------
                           ORCA CP-SCF CALCULATION
------------------------------------------------------------------------------

Input orbitals are from        ... EPRII.gbw
Input Perturbation             ... EPRII.pin.tmp
Wavefunction output            ... EPRII.pout.tmp
Perturbation mode              ... Imaginary perturbation
Solver                         ... POPLE
Max. number of iterations      ... 64
Convergence tolerance          ... 1.000e-03
Integral handling              ... Direct
DFT GridXC                     ... 1
COSX GridX                     ... 1
COSX IntAccX                   ... 3.067
COSX Algorithm                 ... Auto
Number of perturbations        ... 3
Number of operators            ... 2
Orbital ranges used for CP-SCF:
 Operator 0:  Orbitals   0...116  to 117...780
 Operator 1:  Orbitals   0...115  to 116...780
Variables per perturbation     ... 154828
DFT calculation                         ... on
XC functional terms                     ... off
Hybrid DFT                              ... on
   Exchange mixing (SCF)                ...  0.200
   Exchange mixing (CP-SCF)             ...  0.200
   GGA exch. scaling(SCF)               ...  0.720
   GGA exch. scaling (CP-SCF)           ...  0.720
   GGA corr. scaling (SCF)              ...  0.810
   GGA corr. scaling (CP-SCF)           ...  0.810

CP-SCF GRID
-----------

General Integration Accuracy     IntAcc      ... 3.467
Radial Grid Type                 RadialGrid  ... OptM3 with GC (2021)
Angular Grid (max. ang.)         AngularGrid ... 1 (Lebedev-50)
Angular grid pruning method      GridPruning ... 4 (adaptive)
Weight generation scheme         WeightScheme... Becke
Basis function cutoff            BFCut       ... 1.0000e-10
Integration weight cutoff        WCut        ... 1.0000e-14
Angular grids for H and He will be reduced by one unit
Partially contracted basis set               ... off
Rotationally invariant grid construction     ... off

Total number of grid points                  ...    42736
Total number of batches                      ...      693
Average number of points per batch           ...       61
Average number of grid points per atom       ...      678

CP-SCF GRIDX
------------

General Integration Accuracy     IntAcc      ... 3.067
Radial Grid Type                 RadialGrid  ... OptM3 with GC (2021)
Angular Grid (max. ang.)         AngularGrid ... 1 (Lebedev-50)
Angular grid pruning method      GridPruning ... 4 (adaptive)
Weight generation scheme         WeightScheme... Becke
Basis function cutoff            BFCut       ... 1.0000e-10
Integration weight cutoff        WCut        ... 1.0000e-14
Angular grids for H and He will be reduced by one unit
Partially contracted basis set               ... on
Rotationally invariant grid construction     ... off

Total number of grid points                  ...    19910
Total number of batches                      ...      351
Average number of points per batch           ...       56
Average number of grid points per atom       ...      316

Memory available               ... 773.8 MB
Memory needed per perturbation ...  35.9 MB
Perturbations treated per batch... 3
Number of batches              ... 1
     CP-SCF ITERATION   0:   4.7297e-02 (   3.7 sec   0/  3 done)
     CP-SCF ITERATION   1:   2.2431e-03 (   3.9 sec   0/  3 done)
     CP-SCF ITERATION   2:   1.5513e-04 (   4.0 sec   3/  3 done)
                    *** THE CP-SCF HAS CONVERGED ***

Forming final perturbed densities           ... done
Transforming perturbed density to AO basis  ... done

 Raw HFC matrix (all values in MHz): 
 -----------------------------------
                -1.2397               0.5986               0.0014
                 0.5982              -1.7217               0.0020
                 0.0014               0.0020              -2.7543

 A(FC)          -1.9057              -1.9057              -1.9057
 A(SD)           1.0694              -0.2209              -0.8485
 A(ORB+DIA)      0.0008               0.0008              -0.0002    A(PC) =   0.0005
 A(ORB)          0.0006               0.0007               0.0000    A(PC) =   0.0005
 A(DIA)          0.0001               0.0001              -0.0002    A(PC) =   0.0000
             ----------           ----------           ----------
 A(Tot)         -0.8356              -2.1258              -2.7543    A(iso)=   -1.9052
 Orientation: 
  X           0.8287143            0.5596718            0.0001903
  Y           0.5596706           -0.8287131            0.0018433
  Z           0.0011893           -0.0014211           -0.9999983

Notes:  (1) The A matrix conforms to the "SAI" spin Hamiltonian convention.
        (2) Tensor is right-handed.

 -----------------------------------------------------------
 Nucleus  57H : A:ISTP=    1 I=  0.5 P=533.5514 MHz/au**3
                Q:ISTP=    2 I=  1.0 Q=  0.0029 barn     
 -----------------------------------------------------------
 Solving for nuclear perturbation:
Forming RHS of the CP-SCF equations         ... 
Calc. nucleus orbit integrals (SHARK)       ... done

------------------------------------------------------------------------------
                           ORCA CP-SCF CALCULATION
------------------------------------------------------------------------------

Input orbitals are from        ... EPRII.gbw
Input Perturbation             ... EPRII.pin.tmp
Wavefunction output            ... EPRII.pout.tmp
Perturbation mode              ... Imaginary perturbation
Solver                         ... POPLE
Max. number of iterations      ... 64
Convergence tolerance          ... 1.000e-03
Integral handling              ... Direct
DFT GridXC                     ... 1
COSX GridX                     ... 1
COSX IntAccX                   ... 3.067
COSX Algorithm                 ... Auto
Number of perturbations        ... 3
Number of operators            ... 2
Orbital ranges used for CP-SCF:
 Operator 0:  Orbitals   0...116  to 117...780
 Operator 1:  Orbitals   0...115  to 116...780
Variables per perturbation     ... 154828
DFT calculation                         ... on
XC functional terms                     ... off
Hybrid DFT                              ... on
   Exchange mixing (SCF)                ...  0.200
   Exchange mixing (CP-SCF)             ...  0.200
   GGA exch. scaling(SCF)               ...  0.720
   GGA exch. scaling (CP-SCF)           ...  0.720
   GGA corr. scaling (SCF)              ...  0.810
   GGA corr. scaling (CP-SCF)           ...  0.810

CP-SCF GRID
-----------

General Integration Accuracy     IntAcc      ... 3.467
Radial Grid Type                 RadialGrid  ... OptM3 with GC (2021)
Angular Grid (max. ang.)         AngularGrid ... 1 (Lebedev-50)
Angular grid pruning method      GridPruning ... 4 (adaptive)
Weight generation scheme         WeightScheme... Becke
Basis function cutoff            BFCut       ... 1.0000e-10
Integration weight cutoff        WCut        ... 1.0000e-14
Angular grids for H and He will be reduced by one unit
Partially contracted basis set               ... off
Rotationally invariant grid construction     ... off

Total number of grid points                  ...    42736
Total number of batches                      ...      693
Average number of points per batch           ...       61
Average number of grid points per atom       ...      678

CP-SCF GRIDX
------------

General Integration Accuracy     IntAcc      ... 3.067
Radial Grid Type                 RadialGrid  ... OptM3 with GC (2021)
Angular Grid (max. ang.)         AngularGrid ... 1 (Lebedev-50)
Angular grid pruning method      GridPruning ... 4 (adaptive)
Weight generation scheme         WeightScheme... Becke
Basis function cutoff            BFCut       ... 1.0000e-10
Integration weight cutoff        WCut        ... 1.0000e-14
Angular grids for H and He will be reduced by one unit
Partially contracted basis set               ... on
Rotationally invariant grid construction     ... off

Total number of grid points                  ...    19910
Total number of batches                      ...      351
Average number of points per batch           ...       56
Average number of grid points per atom       ...      316

Memory available               ... 772.7 MB
Memory needed per perturbation ...  35.9 MB
Perturbations treated per batch... 3
Number of batches              ... 1
     CP-SCF ITERATION   0:   4.7115e-02 (   3.9 sec   0/  3 done)
     CP-SCF ITERATION   1:   2.1225e-03 (   4.0 sec   0/  3 done)
     CP-SCF ITERATION   2:   1.3842e-04 (   4.0 sec   3/  3 done)
                    *** THE CP-SCF HAS CONVERGED ***

Forming final perturbed densities           ... done
Transforming perturbed density to AO basis  ... done

 Raw HFC matrix (all values in MHz): 
 -----------------------------------
                -2.1001              -0.2513              -0.0004
                -0.2507              -1.1962               0.0028
                -0.0004               0.0028              -2.4483

 A(FC)          -1.9152              -1.9152              -1.9152
 A(SD)           0.7839              -0.2508              -0.5330
 A(ORB+DIA)      0.0002               0.0009              -0.0001    A(PC) =   0.0003
 A(ORB)          0.0000               0.0008               0.0000    A(PC) =   0.0003
 A(DIA)          0.0001               0.0001              -0.0001    A(PC) =   0.0001
             ----------           ----------           ----------
 A(Tot)         -1.1312              -2.1651              -2.4483    A(iso)=   -1.9149
 Orientation: 
  X          -0.2510223            0.9679811            0.0007101
  Y           0.9679789            0.2510200            0.0023962
  Z           0.0021412            0.0012889           -0.9999969

Notes:  (1) The A matrix conforms to the "SAI" spin Hamiltonian convention.
        (2) Tensor is right-handed.

 -----------------------------------------------------------
 Nucleus  58H : A:ISTP=    1 I=  0.5 P=533.5514 MHz/au**3
                Q:ISTP=    2 I=  1.0 Q=  0.0029 barn     
 -----------------------------------------------------------
 Solving for nuclear perturbation:
Forming RHS of the CP-SCF equations         ... 
Calc. nucleus orbit integrals (SHARK)       ... done

------------------------------------------------------------------------------
                           ORCA CP-SCF CALCULATION
------------------------------------------------------------------------------

Input orbitals are from        ... EPRII.gbw
Input Perturbation             ... EPRII.pin.tmp
Wavefunction output            ... EPRII.pout.tmp
Perturbation mode              ... Imaginary perturbation
Solver                         ... POPLE
Max. number of iterations      ... 64
Convergence tolerance          ... 1.000e-03
Integral handling              ... Direct
DFT GridXC                     ... 1
COSX GridX                     ... 1
COSX IntAccX                   ... 3.067
COSX Algorithm                 ... Auto
Number of perturbations        ... 3
Number of operators            ... 2
Orbital ranges used for CP-SCF:
 Operator 0:  Orbitals   0...116  to 117...780
 Operator 1:  Orbitals   0...115  to 116...780
Variables per perturbation     ... 154828
DFT calculation                         ... on
XC functional terms                     ... off
Hybrid DFT                              ... on
   Exchange mixing (SCF)                ...  0.200
   Exchange mixing (CP-SCF)             ...  0.200
   GGA exch. scaling(SCF)               ...  0.720
   GGA exch. scaling (CP-SCF)           ...  0.720
   GGA corr. scaling (SCF)              ...  0.810
   GGA corr. scaling (CP-SCF)           ...  0.810

CP-SCF GRID
-----------

General Integration Accuracy     IntAcc      ... 3.467
Radial Grid Type                 RadialGrid  ... OptM3 with GC (2021)
Angular Grid (max. ang.)         AngularGrid ... 1 (Lebedev-50)
Angular grid pruning method      GridPruning ... 4 (adaptive)
Weight generation scheme         WeightScheme... Becke
Basis function cutoff            BFCut       ... 1.0000e-10
Integration weight cutoff        WCut        ... 1.0000e-14
Angular grids for H and He will be reduced by one unit
Partially contracted basis set               ... off
Rotationally invariant grid construction     ... off

Total number of grid points                  ...    42736
Total number of batches                      ...      693
Average number of points per batch           ...       61
Average number of grid points per atom       ...      678

CP-SCF GRIDX
------------

General Integration Accuracy     IntAcc      ... 3.067
Radial Grid Type                 RadialGrid  ... OptM3 with GC (2021)
Angular Grid (max. ang.)         AngularGrid ... 1 (Lebedev-50)
Angular grid pruning method      GridPruning ... 4 (adaptive)
Weight generation scheme         WeightScheme... Becke
Basis function cutoff            BFCut       ... 1.0000e-10
Integration weight cutoff        WCut        ... 1.0000e-14
Angular grids for H and He will be reduced by one unit
Partially contracted basis set               ... on
Rotationally invariant grid construction     ... off

Total number of grid points                  ...    19910
Total number of batches                      ...      351
Average number of points per batch           ...       56
Average number of grid points per atom       ...      316

Memory available               ... 771.7 MB
Memory needed per perturbation ...  35.9 MB
Perturbations treated per batch... 3
Number of batches              ... 1
     CP-SCF ITERATION   0:   4.5601e-02 (   3.8 sec   0/  3 done)
     CP-SCF ITERATION   1:   1.9832e-03 (   3.9 sec   0/  3 done)
     CP-SCF ITERATION   2:   1.2891e-04 (   3.8 sec   3/  3 done)
                    *** THE CP-SCF HAS CONVERGED ***

Forming final perturbed densities           ... done
Transforming perturbed density to AO basis  ... done

 Raw HFC matrix (all values in MHz): 
 -----------------------------------
                 1.6191               0.3203               0.0002
                 0.3204               0.6717               0.0001
                 0.0002               0.0001               0.5412

 A(FC)           0.9440               0.9440               0.9440
 A(SD)          -0.4028              -0.3706               0.7734
 A(ORB+DIA)     -0.0000               0.0001              -0.0002    A(PC) =  -0.0000
 A(ORB)         -0.0000               0.0001              -0.0003    A(PC) =  -0.0001
 A(DIA)          0.0000              -0.0000               0.0000    A(PC) =   0.0000
             ----------           ----------           ----------
 A(Tot)          0.5412               0.5736               1.7172    A(iso)=    0.9440
 Orientation: 
  X          -0.0000416           -0.2929426           -0.9561300
  Y          -0.0005795            0.9561299           -0.2929425
  Z           0.9999998            0.0005419           -0.0002095

Notes:  (1) The A matrix conforms to the "SAI" spin Hamiltonian convention.
        (2) Tensor is right-handed.


--------------------------------------------------------------------------------
----------------------------------------------------------------------------
                           ORCA EULER ANGLE PROGRAM
----------------------------------------------------------------------------

Only g-tensor available        -->  using g-tensor as reference tensor

Reference tensor               ...  g

g-tensor ordering              ...  |g_min> --> |gx>
                                    |g_mid> --> |gy>
                                    |g_max> --> |gz>

A- and EFG-tensor ordering     ...  the axes |Ax>, |Qx>, |Ay>, etc. are assigned
                                    such that the Euler rotation is minimal. You
                                    can find the respective eigenvalues as Ax,
                                    EFGx, Ay, etc. in the tables below.
                                    The relation of |Ax>, |Ay>,  etc. to Amin, Amid, etc.
                                    (as printed in the ORCA EPR/NMR CALCULATION Output)
                                    is obtained in the detailed printout.

Euler rotation around          ...  z - y - z
   First rotation              -->  by alpha around z
   Second rotation             -->  by beta around y'
   Third rotation              -->  by gamma around z''
   Positive / Negative angle   -->  clockwise / counterclockwise rotation

Plot EFG-tensors                    (-)
Plot HFC-tensors                    (-)
Detailed Printout                   (-)

-------------------------------------------------------------------------
          Euler rotation of hyperfine tensor to g-tensor
-------------------------------------------------------------------------

-------------------------------------------------------------------
 Atom  |   Alpha    Beta    Gamma   |   Ax       Ay       Az 
       |          [degrees]         |           [MHz]         
-------------------------------------------------------------------
  9H       89.7      2.8    -89.7     -17.33    -8.12   -20.87
 10H       90.0      6.0    -90.0       4.57     5.19     9.92
 12H       90.0     42.6    -90.0     -48.41   -73.20   -19.98
 14H      170.8     13.1    171.2      67.97    77.46    69.48
 15H        9.2     13.1      8.8      67.91    77.41    69.42
 17H     -151.6     29.3    120.1      -3.30    -3.14     2.93
 18H      -28.4     29.2     59.9      -3.30    -3.14     2.93
 20H       48.7     47.0    -25.8      -0.01     2.30     0.10
 21H      131.3     47.1   -154.3      -0.01     2.30     0.10
 23H       29.9     17.7      8.0      23.99    24.60    27.65
 24H      150.1     17.7    171.8      24.07    24.68    27.72
 26H       99.9     29.0    -87.3      -1.03     0.90    -0.91
 27H       80.4     29.0    -93.2      -1.03     0.90    -0.91
 29H     -106.6     31.0     72.9      -0.09    -0.13     0.82
 30H      -73.3     31.1    106.9      -0.09    -0.13     0.82
 32H       84.8     42.0    -93.0      -0.12     0.38    -0.09
 33H       95.3     42.0    -87.2      -0.12     0.38    -0.10
 35H      -89.8     39.9     90.0      -0.83    -0.84     0.70
 36H      -90.5     38.1     89.9      -0.13    -0.13     0.24
 43H       89.8     43.6    -90.0       0.52     0.74     0.32
 44H      -87.2      1.6     87.1      -0.36    -0.55    -0.17
 45H      -89.9     34.8     89.8       0.60     1.50     0.18
 46H       89.8     21.1    -89.9       0.65     0.19     1.44
 47H      -89.3     13.1     89.2      -0.37    -0.21    -0.50
 54H      -89.9     44.4     89.8      -1.57    -0.63    -2.14
 55H       89.9     32.7    -90.0       0.60     0.75     1.49
 56H      -89.7     13.7     89.6      -2.75    -0.84    -2.13
 57H      -89.9     33.2     89.9      -2.45    -2.17    -1.13
 58H      -89.8     30.7     89.7       0.54     1.72     0.57
-------------------------------------------------------------------


Maximum memory used throughout the entire EPRNMR-calculation: 486.8 MB

Timings for individual modules:

Sum of individual times         ...    15331.948 sec (= 255.532 min)
GTO integral calculation        ...        8.624 sec (=   0.144 min)   0.1 %
Spin-Orbit-Coupling Matrices    ...       26.434 sec (=   0.441 min)   0.2 %
SCF iterations                  ...      215.409 sec (=   3.590 min)   1.4 %
EPR/NMR calculation             ...    15081.482 sec (= 251.358 min)  98.4 %
                             ****ORCA TERMINATED NORMALLY****
TOTAL RUN TIME: 0 days 4 hours 15 minutes 36 seconds 240 msec
