
                                 *****************
                                 * O   R   C   A *
                                 *****************

                                            #,                                       
                                            ###                                      
                                            ####                                     
                                            #####                                    
                                            ######                                   
                                           ########,                                 
                                     ,,################,,,,,                         
                               ,,#################################,,                 
                          ,,##########################################,,             
                       ,#########################################, ''#####,          
                    ,#############################################,,   '####,        
                  ,##################################################,,,,####,       
                ,###########''''           ''''###############################       
              ,#####''   ,,,,##########,,,,          '''####'''          '####       
            ,##' ,,,,###########################,,,                        '##       
           ' ,,###''''                  '''############,,,                           
         ,,##''                                '''############,,,,        ,,,,,,###''
      ,#''                                            '''#######################'''  
     '                                                          ''''####''''         
             ,#######,   #######,   ,#######,      ##                                
            ,#'     '#,  ##    ##  ,#'     '#,    #''#        ######   ,####,        
            ##       ##  ##   ,#'  ##            #'  '#       #        #'  '#        
            ##       ##  #######   ##           ,######,      #####,   #    #        
            '#,     ,#'  ##    ##  '#,     ,#' ,#      #,         ##   #,  ,#        
             '#######'   ##     ##  '#######'  #'      '#     #####' # '####'        



                  #######################################################
                  #                        -***-                        #
                  #          Department of theory and spectroscopy      #
                  #    Directorship and core code : Frank Neese         #
                  #        Max Planck Institute fuer Kohlenforschung    #
                  #                Kaiser Wilhelm Platz 1               #
                  #                 D-45470 Muelheim/Ruhr               #
                  #                      Germany                        #
                  #                                                     #
                  #                  All rights reserved                #
                  #                        -***-                        #
                  #######################################################


                         Program Version 5.0.4 -  RELEASE  -


 With contributions from (in alphabetic order):
   Daniel Aravena         : Magnetic Suceptibility
   Michael Atanasov       : Ab Initio Ligand Field Theory (pilot matlab implementation)
   Alexander A. Auer      : GIAO ZORA, VPT2 properties, NMR spectrum
   Ute Becker             : Parallelization
   Giovanni Bistoni       : ED, misc. LED, open-shell LED, HFLD
   Martin Brehm           : Molecular dynamics
   Dmytro Bykov           : SCF Hessian
   Vijay G. Chilkuri      : MRCI spin determinant printing, contributions to CSF-ICE
   Dipayan Datta          : RHF DLPNO-CCSD density
   Achintya Kumar Dutta   : EOM-CC, STEOM-CC
   Dmitry Ganyushin       : Spin-Orbit,Spin-Spin,Magnetic field MRCI
   Miquel Garcia          : C-PCM and meta-GGA Hessian, CC/C-PCM, Gaussian charge scheme
   Yang Guo               : DLPNO-NEVPT2, F12-NEVPT2, CIM, IAO-localization
   Andreas Hansen         : Spin unrestricted coupled pair/coupled cluster methods
   Benjamin Helmich-Paris : MC-RPA, TRAH-SCF, COSX integrals
   Lee Huntington         : MR-EOM, pCC
   Robert Izsak           : Overlap fitted RIJCOSX, COSX-SCS-MP3, EOM
   Marcus Kettner         : VPT2
   Christian Kollmar      : KDIIS, OOCD, Brueckner-CCSD(T), CCSD density, CASPT2, CASPT2-K
   Simone Kossmann        : Meta GGA functionals, TD-DFT gradient, OOMP2, MP2 Hessian
   Martin Krupicka        : Initial AUTO-CI
   Lucas Lang             : DCDCAS
   Marvin Lechner         : AUTO-CI (C++ implementation), FIC-MRCC
   Dagmar Lenk            : GEPOL surface, SMD
   Dimitrios Liakos       : Extrapolation schemes; Compound Job, initial MDCI parallelization
   Dimitrios Manganas     : Further ROCIS development; embedding schemes
   Dimitrios Pantazis     : SARC Basis sets
   Anastasios Papadopoulos: AUTO-CI, single reference methods and gradients
   Taras Petrenko         : DFT Hessian,TD-DFT gradient, ASA, ECA, R-Raman, ABS, FL, XAS/XES, NRVS
   Peter Pinski           : DLPNO-MP2, DLPNO-MP2 Gradient
   Christoph Reimann      : Effective Core Potentials
   Marius Retegan         : Local ZFS, SOC
   Christoph Riplinger    : Optimizer, TS searches, QM/MM, DLPNO-CCSD(T), (RO)-DLPNO pert. Triples
   Tobias Risthaus        : Range-separated hybrids, TD-DFT gradient, RPA, STAB
   Michael Roemelt        : Original ROCIS implementation
   Masaaki Saitow         : Open-shell DLPNO-CCSD energy and density
   Barbara Sandhoefer     : DKH picture change effects
   Avijit Sen             : IP-ROCIS
   Kantharuban Sivalingam : CASSCF convergence, NEVPT2, FIC-MRCI
   Bernardo de Souza      : ESD, SOC TD-DFT
   Georgi Stoychev        : AutoAux, RI-MP2 NMR, DLPNO-MP2 response
   Willem Van den Heuvel  : Paramagnetic NMR
   Boris Wezisla          : Elementary symmetry handling
   Frank Wennmohs         : Technical directorship


 We gratefully acknowledge several colleagues who have allowed us to
 interface, adapt or use parts of their codes:
   Stefan Grimme, W. Hujo, H. Kruse, P. Pracht,  : VdW corrections, initial TS optimization,
                  C. Bannwarth, S. Ehlert          DFT functionals, gCP, sTDA/sTD-DF
   Ed Valeev, F. Pavosevic, A. Kumar             : LibInt (2-el integral package), F12 methods
   Garnet Chan, S. Sharma, J. Yang, R. Olivares  : DMRG
   Ulf Ekstrom                                   : XCFun DFT Library
   Mihaly Kallay                                 : mrcc  (arbitrary order and MRCC methods)
   Jiri Pittner, Ondrej Demel                    : Mk-CCSD
   Frank Weinhold                                : gennbo (NPA and NBO analysis)
   Christopher J. Cramer and Donald G. Truhlar   : smd solvation model
   Lars Goerigk                                  : TD-DFT with DH, B97 family of functionals
   V. Asgeirsson, H. Jonsson                     : NEB implementation
   FAccTs GmbH                                   : IRC, NEB, NEB-TS, DLPNO-Multilevel, CI-OPT
                                                   MM, QMMM, 2- and 3-layer-ONIOM, Crystal-QMMM,
                                                   LR-CPCM, SF, NACMEs, symmetry and pop. for TD-DFT,
                                                   nearIR, NL-DFT gradient (VV10), updates on ESD,
                                                   ML-optimized integration grids
   S Lehtola, MJT Oliveira, MAL Marques          : LibXC Library
   Liviu Ungur et al                             : ANISO software


 Your calculation uses the libint2 library for the computation of 2-el integrals
 For citations please refer to: http://libint.valeyev.net

 Your ORCA version has been built with support for libXC version: 5.1.0
 For citations please refer to: https://tddft.org/programs/libxc/

 This ORCA versions uses:
   CBLAS   interface :  Fast vector & matrix operations
   LAPACKE interface :  Fast linear algebra routines
   SCALAPACK package :  Parallel linear algebra routines
   Shared memory     :  Shared parallel matrices
   BLAS/LAPACK       :  OpenBLAS 0.3.15  USE64BITINT DYNAMIC_ARCH NO_AFFINITY SkylakeX SINGLE_THREADED
        Core in use  :  SkylakeX
   Copyright (c) 2011-2014, The OpenBLAS Project




***************************************
The coordinates will be read from file: opt_EPRII.xyz
***************************************


================================================================================

----- Orbital basis set information -----
Your calculation utilizes the basis: EPR-II
   V. Barone, in Recent Advances in Density Functional Methods, Part 1 (ed. D. P. Chong), World Scientific, Singapore, 1995, p. 287.

----- AuxJ basis set information -----
Your calculation utilizes the AutoAux generation procedure.
  G. L. Stoychev, A. A. Auer, F. Neese, J. Chem. Theory Comput. 13, 554 (2017)

----- AuxC basis set information -----
Your calculation utilizes the AutoAux generation procedure.
  G. L. Stoychev, A. A. Auer, F. Neese, J. Chem. Theory Comput. 13, 554 (2017)

----- AuxJK basis set information -----
Your calculation utilizes the AutoAux generation procedure.
  G. L. Stoychev, A. A. Auer, F. Neese, J. Chem. Theory Comput. 13, 554 (2017)

================================================================================
                                        WARNINGS
                       Please study these warnings very carefully!
================================================================================

WARNING: Old DensityContainer found on disk!
         Will remove this file - 
         If you want to keep old densities, please start your calculation with a different basename. 


WARNING: your system is open-shell and RHF/RKS was chosen
  ===> : WILL SWITCH to UHF/UKS


INFO   : the flag for use of the SHARK integral package has been found!

================================================================================
                                       INPUT FILE
================================================================================
NAME = EPRII_i.inp
|  1> ! B3LYP EPR-II AUTOAUX
|  2> %pal nprocs 16 end
|  3> *XYZFile 0 2 opt_EPRII.xyz
|  4> %EPRNMR
|  5>         GTENSOR   TRUE
|  6>         NUCLEI    = ALL H {SHIFT, AISO, ADIP, AORB}
|  7>         ORI       GIAO
|  8> END
|  9> 
| 10>                          ****END OF INPUT****
================================================================================

                       ****************************
                       * Single Point Calculation *
                       ****************************

---------------------------------
CARTESIAN COORDINATES (ANGSTROEM)
---------------------------------
  C     12.372489   -0.025694   -0.003889
  C     11.145150   -0.063215   -0.002922
  C      5.462565   -0.006914   -0.000347
  C      9.723233   -0.084547   -0.002710
  C      8.991612   -1.334937   -0.006044
  C      7.568096   -1.243467   -0.004816
  C      6.893004   -0.016325   -0.001072
  C      7.626849    1.217846    0.001815
  C      9.022388    1.141947    0.000985
  H      6.979314   -2.154004   -0.007037
  H      9.609097    2.053376    0.003244
  C      9.656444   -2.584161   -0.010623
  H     10.743169   -2.571699   -0.011790
  C      8.970918   -3.924775   -0.013973
  H      8.311313   -4.012213    0.864083
  H      8.304814   -4.004599   -0.887804
  C      9.953853   -5.110550   -0.022881
  H     10.602571   -5.031957   -0.904622
  H     10.609737   -5.039380    0.854189
  C      9.243243   -6.474227   -0.025747
  H      8.602628   -6.583208   -0.908211
  H      8.610016   -6.590784    0.861075
  C      6.874312    2.537488    0.005734
  H      6.204452    2.553007   -0.865237
  H      6.206907    2.549285    0.878661
  C      7.726669    3.816139    0.007239
  H      8.383786    3.826556    0.887031
  H      8.381500    3.830052   -0.874213
  C      6.866889    5.093260    0.010916
  H      6.207411    5.087681   -0.867152
  H      6.209834    5.084269    0.890772
  C      7.707141    6.382065    0.012271
  H      8.350874    6.433206   -0.873088
  H      8.353723    6.429474    0.895760
  C      4.236866    0.003382    0.000853
  H      9.964186   -7.297992   -0.032279
  H      7.070770    7.273014    0.015172
  C      2.807403    0.008084    0.001450
  C      2.080609   -1.208579    0.000892
  C      0.685809   -1.204208    0.001358
  C     -0.030286    0.016401    0.002394
  C      0.692950    1.232841    0.002976
  C      2.087722    1.228900    0.002522
  H     -3.751620    0.027739    0.003502
  H      0.149364    2.172613    0.003768
  H      2.623629   -2.148642    0.000085
  H      2.635780    2.165988    0.002952
  H      0.136645   -2.140732    0.000917
  C     13.798775    0.029931   -0.004164
  C     14.572713   -1.158310   -0.005597
  C     15.965943   -1.100729   -0.005685
  C     16.635454    0.146381   -0.004361
  C     15.865940    1.334446   -0.002981
  C     14.472741    1.277822   -0.002884
  H     20.353446    0.300448   -0.004355
  H     16.373507    2.294185   -0.001977
  H     14.067080   -2.118971   -0.006570
  H     13.889054    2.193181   -0.001801
  H     16.550261   -2.015759   -0.006746
  C     18.068874    0.205329   -0.004397
  C     19.288394    0.255839   -0.004359
  C     -1.465183    0.020681    0.002826
  C     -2.685611    0.024498    0.003190

----------------------------
CARTESIAN COORDINATES (A.U.)
----------------------------
  NO LB      ZA    FRAG     MASS         X           Y           Z
   0 C     6.0000    0    12.011   23.380616   -0.048554   -0.007348
   1 C     6.0000    0    12.011   21.061281   -0.119458   -0.005522
   2 C     6.0000    0    12.011   10.322752   -0.013066   -0.000657
   3 C     6.0000    0    12.011   18.374248   -0.159771   -0.005120
   4 C     6.0000    0    12.011   16.991685   -2.522665   -0.011421
   5 C     6.0000    0    12.011   14.301629   -2.349813   -0.009101
   6 C     6.0000    0    12.011   13.025890   -0.030849   -0.002026
   7 C     6.0000    0    12.011   14.412655    2.301396    0.003430
   8 C     6.0000    0    12.011   17.049843    2.157967    0.001862
   9 H     1.0000    0     1.008   13.188992   -4.070478   -0.013298
  10 H     1.0000    0     1.008   18.158562    3.880319    0.006131
  11 C     6.0000    0    12.011   18.248035   -4.883356   -0.020075
  12 H     1.0000    0     1.008   20.301648   -4.859807   -0.022280
  13 C     6.0000    0    12.011   16.952577   -7.416750   -0.026405
  14 H     1.0000    0     1.008   15.706105   -7.581984    1.632880
  15 H     1.0000    0     1.008   15.693825   -7.567595   -1.677706
  16 C     6.0000    0    12.011   18.810057   -9.657540   -0.043239
  17 H     1.0000    0     1.008   20.035956   -9.509020   -1.709487
  18 H     1.0000    0     1.008   20.049497   -9.523047    1.614182
  19 C     6.0000    0    12.011   17.467197  -12.234517   -0.048654
  20 H     1.0000    0     1.008   16.256611  -12.440460   -1.716271
  21 H     1.0000    0     1.008   16.270572  -12.454777    1.627196
  22 C     6.0000    0    12.011   12.990568    4.795157    0.010835
  23 H     1.0000    0     1.008   11.724714    4.824484   -1.635061
  24 H     1.0000    0     1.008   11.729354    4.817450    1.660428
  25 C     6.0000    0    12.011   14.601289    7.211458    0.013680
  26 H     1.0000    0     1.008   15.843059    7.231142    1.676245
  27 H     1.0000    0     1.008   15.838739    7.237749   -1.652022
  28 C     6.0000    0    12.011   12.976540    9.624867    0.020629
  29 H     1.0000    0     1.008   11.730307    9.614324   -1.638680
  30 H     1.0000    0     1.008   11.734886    9.607876    1.683314
  31 C     6.0000    0    12.011   14.564386   12.060355    0.023189
  32 H     1.0000    0     1.008   15.780864   12.156998   -1.649898
  33 H     1.0000    0     1.008   15.786248   12.149946    1.692741
  34 C     6.0000    0    12.011    8.006516    0.006391    0.001612
  35 H     1.0000    0     1.008   18.829582  -13.791207   -0.060998
  36 H     1.0000    0     1.008   13.361819   13.744005    0.028671
  37 C     6.0000    0    12.011    5.305222    0.015276    0.002740
  38 C     6.0000    0    12.011    3.931781   -2.283884    0.001685
  39 C     6.0000    0    12.011    1.295991   -2.275624    0.002566
  40 C     6.0000    0    12.011   -0.057233    0.030994    0.004524
  41 C     6.0000    0    12.011    1.309485    2.329733    0.005624
  42 C     6.0000    0    12.011    3.945222    2.322284    0.004766
  43 H     1.0000    0     1.008   -7.089535    0.052420    0.006617
  44 H     1.0000    0     1.008    0.282258    4.105643    0.007121
  45 H     1.0000    0     1.008    4.957939   -4.060344    0.000160
  46 H     1.0000    0     1.008    4.980902    4.093124    0.005578
  47 H     1.0000    0     1.008    0.258222   -4.045398    0.001733
  48 C     6.0000    0    12.011   26.075905    0.056562   -0.007870
  49 C     6.0000    0    12.011   27.538436   -2.188888   -0.010578
  50 C     6.0000    0    12.011   30.171260   -2.080076   -0.010743
  51 C     6.0000    0    12.011   31.436453    0.276620   -0.008240
  52 C     6.0000    0    12.011   29.982281    2.521737   -0.005633
  53 C     6.0000    0    12.011   27.349517    2.414734   -0.005450
  54 H     1.0000    0     1.008   38.462438    0.567764   -0.008229
  55 H     1.0000    0     1.008   30.941445    4.335382   -0.003735
  56 H     1.0000    0     1.008   26.582928   -4.004275   -0.012416
  57 H     1.0000    0     1.008   26.246508    4.144512   -0.003404
  58 H     1.0000    0     1.008   31.275461   -3.809232   -0.012748
  59 C     6.0000    0    12.011   34.145223    0.388016   -0.008309
  60 C     6.0000    0    12.011   36.449782    0.483466   -0.008236
  61 C     6.0000    0    12.011   -2.768794    0.039082    0.005340
  62 C     6.0000    0    12.011   -5.075069    0.046295    0.006028

--------------------------------
INTERNAL COORDINATES (ANGSTROEM)
--------------------------------
 C      0   0   0     0.000000000000     0.00000000     0.00000000
 C      1   0   0     1.227912767391     0.00000000     0.00000000
 C      2   1   0     5.682864433033   177.68124985     0.00000000
 C      2   1   3     1.422077093472   179.10775517     1.87401478
 C      4   2   1     1.448707634415   121.19193217   177.49425788
 C      5   4   2     1.426452344233   116.65576425   179.96848553
 C      6   5   4     1.400586525284   122.49319721     0.00000000
 C      7   6   5     1.435866781473   120.44758551     0.00000000
 C      8   7   6     1.397602452147   117.62271021     0.00000000
 H      6   5   4     1.084318227547   119.21126569   180.01026737
 H      9   8   7     1.083944792932   119.65712250   180.00895784
 C      5   4   2     1.415126525375   121.64599155   359.95332087
 H     12   5   4     1.086797376328   117.36476216     0.00000000
 C     12   5   4     1.505723572999   124.89542897   179.98547355
 H     14  12   5     1.101683286729   109.96701365   302.05615140
 H     14  12   5     1.101655679190   109.97179067    57.61093265
 C     14  12   5     1.540228770886   113.26060913   179.83123705
 H     17  14  12     1.097487037196   109.07078710   301.99937466
 H     17  14  12     1.097497021029   109.07697769    57.95621494
 C     17  14  12     1.537722884458   112.81958984   179.98008794
 H     20  17  14     1.095905109555   111.08923156    59.89344930
 H     20  17  14     1.095908103465   111.08960224   300.08466789
 C      8   7   6     1.519137860278   119.56993383   179.99461603
 H     23   8   7     1.098883343354   108.19144413   303.41754510
 H     23   8   7     1.098895464420   108.19393118    56.69849153
 C     23   8   7     1.536705762744   116.61808093   180.05986731
 H     26  23   8     1.098154302210   109.91218517   301.46117597
 H     26  23   8     1.098159273081   109.90739475    58.51559575
 C     26  23   8     1.539569322596   112.36326737   179.98768142
 H     29  26  23     1.098156316169   109.22303082   302.04919971
 H     29  26  23     1.098156478327   109.22385250    57.96626460
 C     29  26  23     1.538519744460   112.94810444   180.00754569
 H     32  29  26     1.095841712495   111.05131515    59.87488704
 H     32  29  26     1.095841130580   111.05063780   300.15714406
 C      3   2   1     1.225743304695   179.90853548   198.76868439
 H     20  17  14     1.094710051932   111.28450722   179.98928249
 H     32  29  26     1.094882223476   111.36045857   180.01601584
 C     35   3   7     1.429470950296   179.70540466   188.27615973
 C     38  35   3     1.417215046558   120.66421678     6.23023227
 C     39  38  35     1.394806430073   120.67312449   180.00554182
 C     40  39  38     1.415161623955   120.57844044     0.00000000
 C     41  40  39     1.415202079284   118.86746514     0.00000000
 C     42  41  40     1.394777840334   120.57173169     0.00000000
 H     41  40  39     3.721351166990   120.57345392   179.99756471
 H     42  41  40     1.085659175699   119.22028103   179.99981202
 H     39  38  35     1.085628216311   119.13476922     0.00000000
 H     43  42  41     1.085588307442   120.15939645   179.99866667
 H     40  39  38     1.085660291525   120.20717842   179.99953650
 C      1   2   4     1.427369769427   179.51643435     6.37954950
 C     49   1   2     1.418061586658   120.84405264   176.02702975
 C     50  49   1     1.394419644726   120.71081733   180.00854054
 C     51  50  49     1.415460815695   120.59574408     0.00000000
 C     52  51  50     1.415504539450   118.83960176     0.00000000
 C     53  52  51     1.394348990629   120.60388860     0.00000000
 H     52  51  50     3.721182067995   120.60199698   179.99572547
 H     53  52  51     1.085691165019   119.19617448   180.00094204
 H     50  49   1     1.085604334988   119.16301569     0.00000000
 H     54  53  52     1.085621566275   120.19659186   179.99875210
 H     51  50  49     1.085683253221   120.19476352   179.99747120
 C     52  51  50     1.434630901964   120.58403550   179.99750172
 C     55  52  51     1.065985437341     0.02548241     0.20606686
 C     41  40  39     1.434902491007   120.56978502   179.99777742
 C     44  41  40     1.066014425818     0.00048489   141.25071021

---------------------------
INTERNAL COORDINATES (A.U.)
---------------------------
 C      0   0   0     0.000000000000     0.00000000     0.00000000
 C      1   0   0     2.320418846714     0.00000000     0.00000000
 C      2   1   0    10.739057434633   177.68124985     0.00000000
 C      2   1   3     2.687336247985   179.10775517     1.87401478
 C      4   2   1     2.737660677165   121.19193217   177.49425788
 C      5   4   2     2.695604273690   116.65576425   179.96848553
 C      6   5   4     2.646724959647   122.49319721     0.00000000
 C      7   6   5     2.713394981778   120.44758551     0.00000000
 C      8   7   6     2.641085878655   117.62271021     0.00000000
 H      6   5   4     2.049064492082   119.21126569   180.01026737
 H      9   8   7     2.048358802932   119.65712250   180.00895784
 C      5   4   2     2.674201577807   121.64599155   359.95332087
 H     12   5   4     2.053749404324   117.36476216     0.00000000
 C     12   5   4     2.845405186358   124.89542897   179.98547355
 H     14  12   5     2.081879698236   109.96701365   302.05615140
 H     14  12   5     2.081827527548   109.97179067    57.61093265
 C     14  12   5     2.910610560560   113.26060913   179.83123705
 H     17  14  12     2.073949935830   109.07078710   301.99937466
 H     17  14  12     2.073968802539   109.07697769    57.95621494
 C     17  14  12     2.905875121488   112.81958984   179.98008794
 H     20  17  14     2.070960525824   111.08923156    59.89344930
 H     20  17  14     2.070966183493   111.08960224   300.08466789
 C      8   7   6     2.870754515597   119.56993383   179.99461603
 H     23   8   7     2.076588572067   108.19144413   303.41754510
 H     23   8   7     2.076611477563   108.19393118    56.69849153
 C     23   8   7     2.903953040006   116.61808093   180.05986731
 H     26  23   8     2.075210883964   109.91218517   301.46117597
 H     26  23   8     2.075220277550   109.90739475    58.51559575
 C     26  23   8     2.909364383892   112.36326737   179.98768142
 H     29  26  23     2.075214689795   109.22303082   302.04919971
 H     29  26  23     2.075214996229   109.22385250    57.96626460
 C     29  26  23     2.907380968659   112.94810444   180.00754569
 H     32  29  26     2.070840722742   111.05131515    59.87488704
 H     32  29  26     2.070839623083   111.05063780   300.15714406
 C      3   2   1     2.316319156361   179.90853548   198.76868439
 H     20  17  14     2.068702194202   111.28450722   179.98928249
 H     32  29  26     2.069027551269   111.36045857   180.01601584
 C     35   3   7     2.701308612455   179.70540466   188.27615973
 C     38  35   3     2.678148310866   120.66421678     6.23023227
 C     39  38  35     2.635802162671   120.67312449   180.00554182
 C     40  39  38     2.674267904509   120.57844044     0.00000000
 C     41  40  39     2.674344354002   118.86746514     0.00000000
 C     42  41  40     2.635748135893   120.57173169     0.00000000
 H     41  40  39     7.032334553760   120.57345392   179.99756471
 H     42  41  40     2.051598516850   119.22028103   179.99981202
 H     39  38  35     2.051540012084   119.13476922     0.00000000
 H     43  42  41     2.051464595253   120.15939645   179.99866667
 H     40  39  38     2.051600625455   120.20717842   179.99953650
 C      1   2   4     2.697337956055   179.51643435     6.37954950
 C     49   1   2     2.679748039818   120.84405264   176.02702975
 C     50  49   1     2.635071244293   120.71081733   180.00854054
 C     51  50  49     2.674833294961   120.59574408     0.00000000
 C     52  51  50     2.674915920883   118.83960176     0.00000000
 C     53  52  51     2.634937727398   120.60388860     0.00000000
 H     52  51  50     7.032015002969   120.60199698   179.99572547
 H     53  52  51     2.051658967904   119.19617448   180.00094204
 H     50  49   1     2.051494882926   119.16301569     0.00000000
 H     54  53  52     2.051527445338   120.19659186   179.99875210
 H     51  50  49     2.051644016773   120.19476352   179.99747120
 C     52  51  50     2.711059507972   120.58403550   179.99750172
 C     55  52  51     2.014420539324     0.02548241     0.20606686
 C     41  40  39     2.711572736885   120.56978502   179.99777742
 C     44  41  40     2.014475319606     0.00048489   141.25071021

---------------------
BASIS SET INFORMATION
---------------------
There are 2 groups of distinct atoms

 Group   1 Type C   : 10s5p1d contracted to 6s2p1d pattern {511111/41/1}
 Group   2 Type H   : 6s1p contracted to 4s1p pattern {3111/1}

Atom   0C    basis set group =>   1
Atom   1C    basis set group =>   1
Atom   2C    basis set group =>   1
Atom   3C    basis set group =>   1
Atom   4C    basis set group =>   1
Atom   5C    basis set group =>   1
Atom   6C    basis set group =>   1
Atom   7C    basis set group =>   1
Atom   8C    basis set group =>   1
Atom   9H    basis set group =>   2
Atom  10H    basis set group =>   2
Atom  11C    basis set group =>   1
Atom  12H    basis set group =>   2
Atom  13C    basis set group =>   1
Atom  14H    basis set group =>   2
Atom  15H    basis set group =>   2
Atom  16C    basis set group =>   1
Atom  17H    basis set group =>   2
Atom  18H    basis set group =>   2
Atom  19C    basis set group =>   1
Atom  20H    basis set group =>   2
Atom  21H    basis set group =>   2
Atom  22C    basis set group =>   1
Atom  23H    basis set group =>   2
Atom  24H    basis set group =>   2
Atom  25C    basis set group =>   1
Atom  26H    basis set group =>   2
Atom  27H    basis set group =>   2
Atom  28C    basis set group =>   1
Atom  29H    basis set group =>   2
Atom  30H    basis set group =>   2
Atom  31C    basis set group =>   1
Atom  32H    basis set group =>   2
Atom  33H    basis set group =>   2
Atom  34C    basis set group =>   1
Atom  35H    basis set group =>   2
Atom  36H    basis set group =>   2
Atom  37C    basis set group =>   1
Atom  38C    basis set group =>   1
Atom  39C    basis set group =>   1
Atom  40C    basis set group =>   1
Atom  41C    basis set group =>   1
Atom  42C    basis set group =>   1
Atom  43H    basis set group =>   2
Atom  44H    basis set group =>   2
Atom  45H    basis set group =>   2
Atom  46H    basis set group =>   2
Atom  47H    basis set group =>   2
Atom  48C    basis set group =>   1
Atom  49C    basis set group =>   1
Atom  50C    basis set group =>   1
Atom  51C    basis set group =>   1
Atom  52C    basis set group =>   1
Atom  53C    basis set group =>   1
Atom  54H    basis set group =>   2
Atom  55H    basis set group =>   2
Atom  56H    basis set group =>   2
Atom  57H    basis set group =>   2
Atom  58H    basis set group =>   2
Atom  59C    basis set group =>   1
Atom  60C    basis set group =>   1
Atom  61C    basis set group =>   1
Atom  62C    basis set group =>   1
---------------------------------
AUXILIARY/J BASIS SET INFORMATION
---------------------------------
There are 2 groups of distinct atoms

 Group   1 Type C   : 17s13p12d2f contracted to 17s13p12d2f pattern {11111111111111111/1111111111111/111111111111/11}
 Group   2 Type H   : 15s6p1d contracted to 15s6p1d pattern {111111111111111/111111/1}

Atom   0C    basis set group =>   1
Atom   1C    basis set group =>   1
Atom   2C    basis set group =>   1
Atom   3C    basis set group =>   1
Atom   4C    basis set group =>   1
Atom   5C    basis set group =>   1
Atom   6C    basis set group =>   1
Atom   7C    basis set group =>   1
Atom   8C    basis set group =>   1
Atom   9H    basis set group =>   2
Atom  10H    basis set group =>   2
Atom  11C    basis set group =>   1
Atom  12H    basis set group =>   2
Atom  13C    basis set group =>   1
Atom  14H    basis set group =>   2
Atom  15H    basis set group =>   2
Atom  16C    basis set group =>   1
Atom  17H    basis set group =>   2
Atom  18H    basis set group =>   2
Atom  19C    basis set group =>   1
Atom  20H    basis set group =>   2
Atom  21H    basis set group =>   2
Atom  22C    basis set group =>   1
Atom  23H    basis set group =>   2
Atom  24H    basis set group =>   2
Atom  25C    basis set group =>   1
Atom  26H    basis set group =>   2
Atom  27H    basis set group =>   2
Atom  28C    basis set group =>   1
Atom  29H    basis set group =>   2
Atom  30H    basis set group =>   2
Atom  31C    basis set group =>   1
Atom  32H    basis set group =>   2
Atom  33H    basis set group =>   2
Atom  34C    basis set group =>   1
Atom  35H    basis set group =>   2
Atom  36H    basis set group =>   2
Atom  37C    basis set group =>   1
Atom  38C    basis set group =>   1
Atom  39C    basis set group =>   1
Atom  40C    basis set group =>   1
Atom  41C    basis set group =>   1
Atom  42C    basis set group =>   1
Atom  43H    basis set group =>   2
Atom  44H    basis set group =>   2
Atom  45H    basis set group =>   2
Atom  46H    basis set group =>   2
Atom  47H    basis set group =>   2
Atom  48C    basis set group =>   1
Atom  49C    basis set group =>   1
Atom  50C    basis set group =>   1
Atom  51C    basis set group =>   1
Atom  52C    basis set group =>   1
Atom  53C    basis set group =>   1
Atom  54H    basis set group =>   2
Atom  55H    basis set group =>   2
Atom  56H    basis set group =>   2
Atom  57H    basis set group =>   2
Atom  58H    basis set group =>   2
Atom  59C    basis set group =>   1
Atom  60C    basis set group =>   1
Atom  61C    basis set group =>   1
Atom  62C    basis set group =>   1
---------------------------------
AUXILIARY/C BASIS SET INFORMATION
---------------------------------
There are 2 groups of distinct atoms

 Group   1 Type C   : 17s13p12d2f contracted to 17s13p12d2f pattern {11111111111111111/1111111111111/111111111111/11}
 Group   2 Type H   : 15s6p1d contracted to 15s6p1d pattern {111111111111111/111111/1}

Atom   0C    basis set group =>   1
Atom   1C    basis set group =>   1
Atom   2C    basis set group =>   1
Atom   3C    basis set group =>   1
Atom   4C    basis set group =>   1
Atom   5C    basis set group =>   1
Atom   6C    basis set group =>   1
Atom   7C    basis set group =>   1
Atom   8C    basis set group =>   1
Atom   9H    basis set group =>   2
Atom  10H    basis set group =>   2
Atom  11C    basis set group =>   1
Atom  12H    basis set group =>   2
Atom  13C    basis set group =>   1
Atom  14H    basis set group =>   2
Atom  15H    basis set group =>   2
Atom  16C    basis set group =>   1
Atom  17H    basis set group =>   2
Atom  18H    basis set group =>   2
Atom  19C    basis set group =>   1
Atom  20H    basis set group =>   2
Atom  21H    basis set group =>   2
Atom  22C    basis set group =>   1
Atom  23H    basis set group =>   2
Atom  24H    basis set group =>   2
Atom  25C    basis set group =>   1
Atom  26H    basis set group =>   2
Atom  27H    basis set group =>   2
Atom  28C    basis set group =>   1
Atom  29H    basis set group =>   2
Atom  30H    basis set group =>   2
Atom  31C    basis set group =>   1
Atom  32H    basis set group =>   2
Atom  33H    basis set group =>   2
Atom  34C    basis set group =>   1
Atom  35H    basis set group =>   2
Atom  36H    basis set group =>   2
Atom  37C    basis set group =>   1
Atom  38C    basis set group =>   1
Atom  39C    basis set group =>   1
Atom  40C    basis set group =>   1
Atom  41C    basis set group =>   1
Atom  42C    basis set group =>   1
Atom  43H    basis set group =>   2
Atom  44H    basis set group =>   2
Atom  45H    basis set group =>   2
Atom  46H    basis set group =>   2
Atom  47H    basis set group =>   2
Atom  48C    basis set group =>   1
Atom  49C    basis set group =>   1
Atom  50C    basis set group =>   1
Atom  51C    basis set group =>   1
Atom  52C    basis set group =>   1
Atom  53C    basis set group =>   1
Atom  54H    basis set group =>   2
Atom  55H    basis set group =>   2
Atom  56H    basis set group =>   2
Atom  57H    basis set group =>   2
Atom  58H    basis set group =>   2
Atom  59C    basis set group =>   1
Atom  60C    basis set group =>   1
Atom  61C    basis set group =>   1
Atom  62C    basis set group =>   1
----------------------------------
AUXILIARY/JK BASIS SET INFORMATION
----------------------------------
There are 2 groups of distinct atoms

 Group   1 Type C   : 17s13p12d2f contracted to 17s13p12d2f pattern {11111111111111111/1111111111111/111111111111/11}
 Group   2 Type H   : 15s6p1d contracted to 15s6p1d pattern {111111111111111/111111/1}

Atom   0C    basis set group =>   1
Atom   1C    basis set group =>   1
Atom   2C    basis set group =>   1
Atom   3C    basis set group =>   1
Atom   4C    basis set group =>   1
Atom   5C    basis set group =>   1
Atom   6C    basis set group =>   1
Atom   7C    basis set group =>   1
Atom   8C    basis set group =>   1
Atom   9H    basis set group =>   2
Atom  10H    basis set group =>   2
Atom  11C    basis set group =>   1
Atom  12H    basis set group =>   2
Atom  13C    basis set group =>   1
Atom  14H    basis set group =>   2
Atom  15H    basis set group =>   2
Atom  16C    basis set group =>   1
Atom  17H    basis set group =>   2
Atom  18H    basis set group =>   2
Atom  19C    basis set group =>   1
Atom  20H    basis set group =>   2
Atom  21H    basis set group =>   2
Atom  22C    basis set group =>   1
Atom  23H    basis set group =>   2
Atom  24H    basis set group =>   2
Atom  25C    basis set group =>   1
Atom  26H    basis set group =>   2
Atom  27H    basis set group =>   2
Atom  28C    basis set group =>   1
Atom  29H    basis set group =>   2
Atom  30H    basis set group =>   2
Atom  31C    basis set group =>   1
Atom  32H    basis set group =>   2
Atom  33H    basis set group =>   2
Atom  34C    basis set group =>   1
Atom  35H    basis set group =>   2
Atom  36H    basis set group =>   2
Atom  37C    basis set group =>   1
Atom  38C    basis set group =>   1
Atom  39C    basis set group =>   1
Atom  40C    basis set group =>   1
Atom  41C    basis set group =>   1
Atom  42C    basis set group =>   1
Atom  43H    basis set group =>   2
Atom  44H    basis set group =>   2
Atom  45H    basis set group =>   2
Atom  46H    basis set group =>   2
Atom  47H    basis set group =>   2
Atom  48C    basis set group =>   1
Atom  49C    basis set group =>   1
Atom  50C    basis set group =>   1
Atom  51C    basis set group =>   1
Atom  52C    basis set group =>   1
Atom  53C    basis set group =>   1
Atom  54H    basis set group =>   2
Atom  55H    basis set group =>   2
Atom  56H    basis set group =>   2
Atom  57H    basis set group =>   2
Atom  58H    basis set group =>   2
Atom  59C    basis set group =>   1
Atom  60C    basis set group =>   1
Atom  61C    basis set group =>   1
Atom  62C    basis set group =>   1

Checking for AutoStart:
The File: EPRII_i.gbw exists
Trying to determine its content:
     ... Fine, the file contains calculation information
     ... Fine, the calculation information was read
     ... Fine, the file contains a basis set
     ... Fine, the basis set was read
     ... Fine, the file contains a geometry
     ... Fine, the geometry was read
     ... Fine, the file contains a set of orbitals
     ... Fine, the orbitals can be read
     => possible old guess file was deleted
     => GBW file was renamed to GES file
     => GES file is set as startup file
     => Guess is set to MORead
     ... now leaving AutoStart



           ************************************************************
           *        Program running with 16 parallel MPI-processes    *
           *              working on a common directory               *
           ************************************************************
------------------------------------------------------------------------------
                           ORCA GTO INTEGRAL CALCULATION
                           -- RI-GTO INTEGRALS CHOSEN --
------------------------------------------------------------------------------
------------------------------------------------------------------------------
                   ___                                                        
                  /   \      - P O W E R E D   B Y -                         
                 /     \                                                     
                 |  |  |   _    _      __       _____    __    __             
                 |  |  |  | |  | |    /  \     |  _  \  |  |  /  |          
                  \  \/   | |  | |   /    \    | | | |  |  | /  /          
                 / \  \   | |__| |  /  /\  \   | |_| |  |  |/  /          
                |  |  |   |  __  | /  /__\  \  |    /   |      \           
                |  |  |   | |  | | |   __   |  |    \   |  |\   \          
                \     /   | |  | | |  |  |  |  | |\  \  |  | \   \       
                 \___/    |_|  |_| |__|  |__|  |_| \__\ |__|  \__/        
                                                                              
                      - O R C A' S   B I G   F R I E N D -                    
                                      &                                       
                       - I N T E G R A L  F E E D E R -                       
                                                                              
 v1 FN, 2020, v2 2021                                                         
------------------------------------------------------------------------------


Reading SHARK input file EPRII_i.SHARKINP.tmp ... ok
----------------------
SHARK INTEGRAL PACKAGE
----------------------

Number of atoms                             ...     63
Number of basis functions                   ...    781
Number of shells                            ...    451
Maximum angular momentum                    ...      2
Integral batch strategy                     ... SHARK/LIBINT Hybrid
RI-J (if used) integral strategy            ... SPLIT-RIJ (Revised 2003 algorithm where possible)
Printlevel                                  ...      1
Contraction scheme used                     ... SEGMENTED contraction
Coulomb Range Separation                    ... NOT USED
Exchange Range Separation                   ... NOT USED
Finite Nucleus Model                        ... NOT USED
Auxiliary Coulomb fitting basis             ... AVAILABLE
   # of basis functions in Aux-J            ...   5522
   # of shells in Aux-J                     ...   2134
   Maximum angular momentum in Aux-J        ...      3
Auxiliary J/K fitting basis                 ... AVAILABLE
   # of basis functions in Aux-JK           ...   5522
   # of shells in Aux-JK                    ...   2134
   Maximum angular momentum in Aux-JK       ...      3
Auxiliary Correlation fitting basis         ... AVAILABLE
   # of basis functions in Aux-C            ...   5522
   # of shells in Aux-C                     ...   2134
   Maximum angular momentum in Aux-C        ...      3
Auxiliary 'external' fitting basis          ... NOT available
Integral threshold                          ...     1.000000e-10
Primitive cut-off                           ...     1.000000e-11
Primitive pair pre-selection threshold      ...     1.000000e-11

Calculating pre-screening integrals         ... done (  0.1 sec) Dimension = 451
Organizing shell pair data                  ... done (  0.3 sec)
Shell pair information
Total number of shell pairs                 ...    101926
Shell pairs after pre-screening             ...     42083
Total number of primitive shell pairs       ...    280009
Primitive shell pairs kept                  ...     78657
          la=0 lb=0:  19272 shell pairs
          la=1 lb=0:  14345 shell pairs
          la=1 lb=1:   2614 shell pairs
          la=2 lb=0:   4075 shell pairs
          la=2 lb=1:   1540 shell pairs
          la=2 lb=2:    237 shell pairs

Calculating one electron integrals          ... done (  0.1 sec)
Calculating RI/J V-Matrix + Cholesky decomp.... done (  1.8 sec)
Calculating RI/JK V-Matrix + Cholesky decomp... done (  1.8 sec)
Calculating RI/C V-Matrix + Cholesky decomp.... done (  1.8 sec)
Calculating Nuclear repulsion               ... done (  0.0 sec) ENN=   2730.760269062771 Eh

SHARK setup successfully completed in   6.5 seconds

Maximum memory used throughout the entire GTOINT-calculation: 95.7 MB


           ************************************************************
           *        Program running with 16 parallel MPI-processes    *
           *              working on a common directory               *
           ************************************************************
-------------------------------------------------------------------------------
                                 ORCA SCF
-------------------------------------------------------------------------------

------------
SCF SETTINGS
------------
Hamiltonian:
 Density Functional     Method          .... DFT(GTOs)
 Exchange Functional    Exchange        .... B88
   X-Alpha parameter    XAlpha          ....  0.666667
   Becke's b parameter  XBeta           ....  0.004200
 Correlation Functional Correlation     .... LYP
 LDA part of GGA corr.  LDAOpt          .... VWN-5
 Gradients option       PostSCFGGA      .... off
 Hybrid DFT is turned on
   Fraction HF Exchange ScalHFX         ....  0.200000
   Scaling of DF-GGA-X  ScalDFX         ....  0.720000
   Scaling of DF-GGA-C  ScalDFC         ....  0.810000
   Scaling of DF-LDA-C  ScalLDAC        ....  1.000000
   Perturbative correction              ....  0.000000
   Density functional embedding theory  .... OFF
   NL short-range parameter             ....  4.800000
 RI-approximation to the Coulomb term is turned on
   Number of AuxJ basis functions       .... 5522
   RIJ-COSX (HFX calculated with COS-X)).... on


General Settings:
 Integral files         IntName         .... EPRII_i
 Hartree-Fock type      HFTyp           .... UHF
 Total Charge           Charge          ....    0
 Multiplicity           Mult            ....    2
 Number of Electrons    NEL             ....  233
 Basis Dimension        Dim             ....  781
 Nuclear Repulsion      ENuc            ....   2730.7602690628 Eh

Convergence Acceleration:
 DIIS                   CNVDIIS         .... on
   Start iteration      DIISMaxIt       ....    12
   Startup error        DIISStart       ....  0.200000
   # of expansion vecs  DIISMaxEq       ....     5
   Bias factor          DIISBfac        ....   1.050
   Max. coefficient     DIISMaxC        ....  10.000
 Trust-Rad. Augm. Hess. CNVTRAH         .... auto
   Auto Start mean grad. ratio tolernc. ....  1.125000
   Auto Start start iteration           ....     1
   Auto Start num. interpolation iter.  ....    10
   Max. Number of Micro iterations      ....    16
   Max. Number of Macro iterations      .... Maxiter - #DIIS iter
   Number of Davidson start vectors     ....     2
   Converg. threshold I  (grad. norm)   ....   5.000e-05
   Converg. threshold II (energy diff.) ....   1.000e-06
   Grad. Scal. Fac. for Micro threshold ....   0.100
   Minimum threshold for Micro iter.    ....   0.010
   NR start threshold (gradient norm)   ....   0.001
   Initial trust radius                 ....   0.400
   Minimum AH scaling param. (alpha)    ....   1.000
   Maximum AH scaling param. (alpha)    .... 1000.000
   Orbital update algorithm             .... Taylor
   White noise on init. David. guess    .... on
   Maximum white noise                  ....   0.010
   Quad. conv. algorithm                .... NR
 SOSCF                  CNVSOSCF        .... off
 Level Shifting         CNVShift        .... on
   Level shift para.    LevelShift      ....    0.2500
   Turn off err/grad.   ShiftErr        ....    0.0010
 Zerner damping         CNVZerner       .... off
 Static damping         CNVDamp         .... on
   Fraction old density DampFac         ....    0.7000
   Max. Damping (<1)    DampMax         ....    0.9800
   Min. Damping (>=0)   DampMin         ....    0.0000
   Turn off err/grad.   DampErr         ....    0.1000
 Fernandez-Rico         CNVRico         .... off

SCF Procedure:
 Maximum # iterations   MaxIter         ....   125
 SCF integral mode      SCFMode         .... Direct
   Integral package                     .... SHARK and LIBINT hybrid scheme
 Reset frequency        DirectResetFreq ....    20
 Integral Threshold     Thresh          ....  1.000e-10 Eh
 Primitive CutOff       TCut            ....  1.000e-11 Eh

Convergence Tolerance:
 Convergence Check Mode ConvCheckMode   .... Total+1el-Energy
 Convergence forced     ConvForced      .... 0
 Energy Change          TolE            ....  1.000e-06 Eh
 1-El. energy change                    ....  1.000e-03 Eh
 DIIS Error             TolErr          ....  1.000e-06


Diagonalization of the overlap matrix:
Smallest eigenvalue                        ... 3.727e-05
Time for diagonalization                   ...    0.132 sec
Threshold for overlap eigenvalues          ... 1.000e-08
Number of eigenvalues below threshold      ... 0
Time for construction of square roots      ...    0.082 sec
Total time needed                          ...    0.217 sec

---------------------
INITIAL GUESS: MOREAD
---------------------
Guess MOs are being read from file: EPRII_i.ges
Input geometry compatible with but different from current geometry
Input basis set matches current basis set (good)
MOs were renormalized
MOs were reorthogonalized (Cholesky)
                      ------------------
                      INITIAL GUESS DONE (   0.6 sec)
                      ------------------
-------------------
DFT GRID GENERATION
-------------------

General Integration Accuracy     IntAcc      ... 4.388
Radial Grid Type                 RadialGrid  ... OptM3 with GC (2021)
Angular Grid (max. ang.)         AngularGrid ... 4 (Lebedev-302)
Angular grid pruning method      GridPruning ... 4 (adaptive)
Weight generation scheme         WeightScheme... Becke
Basis function cutoff            BFCut       ... 1.0000e-10
Integration weight cutoff        WCut        ... 1.0000e-14
Angular grids for H and He will be reduced by one unit
Partially contracted basis set               ... off
Rotationally invariant grid construction     ... off

Total number of grid points                  ...   295752
Total number of batches                      ...     4652
Average number of points per batch           ...       63
Average number of grid points per atom       ...     4694
Time for grid setup =    1.910 sec

--------------------
COSX GRID GENERATION
--------------------

GRIDX 1
-------
General Integration Accuracy     IntAcc      ... 3.816
Radial Grid Type                 RadialGrid  ... OptM3 with GC (2021)
Angular Grid (max. ang.)         AngularGrid ... 1 (Lebedev-50)
Angular grid pruning method      GridPruning ... 4 (adaptive)
Weight generation scheme         WeightScheme... Becke
Basis function cutoff            BFCut       ... 1.0000e-10
Integration weight cutoff        WCut        ... 1.0000e-14
Angular grids for H and He will be reduced by one unit
Partially contracted basis set               ... on
Rotationally invariant grid construction     ... off

Total number of grid points                  ...    37652
Total number of batches                      ...      626
Average number of points per batch           ...       60
Average number of grid points per atom       ...      598
UseSFitting                                  ... on

GRIDX 2
-------
General Integration Accuracy     IntAcc      ... 4.020
Radial Grid Type                 RadialGrid  ... OptM3 with GC (2021)
Angular Grid (max. ang.)         AngularGrid ... 2 (Lebedev-110)
Angular grid pruning method      GridPruning ... 4 (adaptive)
Weight generation scheme         WeightScheme... Becke
Basis function cutoff            BFCut       ... 1.0000e-10
Integration weight cutoff        WCut        ... 1.0000e-14
Angular grids for H and He will be reduced by one unit
Partially contracted basis set               ... on
Rotationally invariant grid construction     ... off

Total number of grid points                  ...    81075
Total number of batches                      ...     1300
Average number of points per batch           ...       62
Average number of grid points per atom       ...     1287
UseSFitting                                  ... on

GRIDX 3
-------
General Integration Accuracy     IntAcc      ... 4.338
Radial Grid Type                 RadialGrid  ... OptM3 with GC (2021)
Angular Grid (max. ang.)         AngularGrid ... 3 (Lebedev-194)
Angular grid pruning method      GridPruning ... 4 (adaptive)
Weight generation scheme         WeightScheme... Becke
Basis function cutoff            BFCut       ... 1.0000e-10
Integration weight cutoff        WCut        ... 1.0000e-14
Angular grids for H and He will be reduced by one unit
Partially contracted basis set               ... on
Rotationally invariant grid construction     ... off

Total number of grid points                  ...   177442
Total number of batches                      ...     2809
Average number of points per batch           ...       63
Average number of grid points per atom       ...     2817
UseSFitting                                  ... on

Time for X-Grid setup             =    3.392 sec

--------------
SCF ITERATIONS
--------------
ITER       Energy         Delta-E        Max-DP      RMS-DP      [F,P]     Damp
               ***  Starting incremental Fock matrix formation  ***
  0  -1312.1284118018   0.000000000000 0.01629015  0.00007917  0.0021980 0.7000
  1  -1312.1285911820  -0.000179380182 0.01494102  0.00007124  0.0015896 0.7000
                               ***Turning on DIIS***
  2  -1312.1287171830  -0.000126001009 0.03848343  0.00018125  0.0011307 0.0000
  3  -1312.1290077135  -0.000290530539 0.00079178  0.00000857  0.0003330 0.0000
               *** Restarting incremental Fock matrix formation ***
                                   *** Resetting DIIS ***
  4  -1312.1290018861   0.000005827366 0.00090020  0.00000981  0.0003790 0.0000
  5  -1312.1289942592   0.000007626958 0.00055949  0.00000593  0.0005702 0.0000
  6  -1312.1290086112  -0.000014351968 0.00026193  0.00000177  0.0002535 0.0000
  7  -1312.1290094255  -0.000000814349 0.00041047  0.00000202  0.0001065 0.0000
                 **** Energy Check signals convergence ****

               *****************************************************
               *                     SUCCESS                       *
               *           SCF CONVERGED AFTER   8 CYCLES          *
               *****************************************************

Old exchange energy                            =    -37.218465531 Eh
New exchange energy                            =    -37.218509667 Eh
Exchange energy change after final integration =     -0.000044136 Eh
Total energy after final integration           =  -1312.129053756 Eh
Final COS-X integration done in                =    18.903 sec

----------------
TOTAL SCF ENERGY
----------------

Total Energy       :        -1312.12905376 Eh          -35704.84675 eV

Components:
Nuclear Repulsion  :         2730.76026906 Eh           74307.76465 eV
Electronic Energy  :        -4042.88932282 Eh         -110012.61141 eV
One Electron Energy:        -7197.32772505 Eh         -195849.24418 eV
Two Electron Energy:         3154.43840223 Eh           85836.63277 eV
Max COSX asymmetry :            0.00000345 Eh               0.00009 eV

Virial components:
Potential Energy   :        -2613.69526867 Eh          -71122.26405 eV
Kinetic Energy     :         1301.56621491 Eh           35417.41729 eV
Virial Ratio       :            2.00811548


DFT components:
N(Alpha)           :      117.000178847213 electrons
N(Beta)            :      116.000163933521 electrons
N(Total)           :      233.000342780734 electrons
E(X)               :     -147.721047923720 Eh       
E(C)               :       -9.122534270397 Eh       
E(XC)              :     -156.843582194117 Eh       
DFET-embed. en.    :        0.000000000000 Eh       

---------------
SCF CONVERGENCE
---------------

  Last Energy change         ...   -1.9488e-07  Tolerance :   1.0000e-06
  Last MAX-Density change    ...    0.0000e+00  Tolerance :   1.0000e-05
  Last RMS-Density change    ...    0.0000e+00  Tolerance :   1.0000e-06
  Last DIIS Error            ...    3.4570e-05  Tolerance :   1.0000e-06

             **** THE GBW FILE WAS UPDATED (EPRII_i.gbw) ****
             **** DENSITY EPRII_i.scfp WAS UPDATED ****
             **** ENERGY FILE WAS UPDATED (EPRII_i.en.tmp) ****
----------------------
UHF SPIN CONTAMINATION
----------------------

Warning: in a DFT calculation there is little theoretical justification to 
         calculate <S**2> as in Hartree-Fock theory. We will do it anyways
         but you should keep in mind that the values have only limited relevance

Expectation value of <S**2>     :     0.790259
Ideal value S*(S+1) for S=0.5   :     0.750000
Deviation                       :     0.040259

             **** THE GBW FILE WAS UPDATED (EPRII_i.gbw) ****
             **** DENSITY EPRII_i.scfp WAS UPDATED ****
----------------
ORBITAL ENERGIES
----------------
                 SPIN UP ORBITALS
  NO   OCC          E(Eh)            E(eV) 
   0   1.0000     -10.236794      -278.5573 
   1   1.0000     -10.236362      -278.5456 
   2   1.0000     -10.235098      -278.5112 
   3   1.0000     -10.234888      -278.5055 
   4   1.0000     -10.228342      -278.3273 
   5   1.0000     -10.226481      -278.2767 
   6   1.0000     -10.215628      -277.9814 
   7   1.0000     -10.213970      -277.9363 
   8   1.0000     -10.213879      -277.9338 
   9   1.0000     -10.212978      -277.9093 
  10   1.0000     -10.212843      -277.9056 
  11   1.0000     -10.212783      -277.9040 
  12   1.0000     -10.212682      -277.9012 
  13   1.0000     -10.212385      -277.8931 
  14   1.0000     -10.212225      -277.8888 
  15   1.0000     -10.211704      -277.8746 
  16   1.0000     -10.211416      -277.8667 
  17   1.0000     -10.211275      -277.8629 
  18   1.0000     -10.208923      -277.7989 
  19   1.0000     -10.207853      -277.7698 
  20   1.0000     -10.206714      -277.7388 
  21   1.0000     -10.205634      -277.7094 
  22   1.0000     -10.205619      -277.7090 
  23   1.0000     -10.203522      -277.6520 
  24   1.0000     -10.202261      -277.6176 
  25   1.0000     -10.202041      -277.6116 
  26   1.0000     -10.200485      -277.5693 
  27   1.0000     -10.191973      -277.3377 
  28   1.0000     -10.190449      -277.2962 
  29   1.0000     -10.186730      -277.1950 
  30   1.0000     -10.184198      -277.1261 
  31   1.0000     -10.183755      -277.1141 
  32   1.0000     -10.175302      -276.8841 
  33   1.0000     -10.173140      -276.8252 
  34   1.0000      -0.876367       -23.8472 
  35   1.0000      -0.874267       -23.7900 
  36   1.0000      -0.872775       -23.7494 
  37   1.0000      -0.822463       -22.3804 
  38   1.0000      -0.808519       -22.0009 
  39   1.0000      -0.806244       -21.9390 
  40   1.0000      -0.796529       -21.6747 
  41   1.0000      -0.792596       -21.5676 
  42   1.0000      -0.769218       -20.9315 
  43   1.0000      -0.760438       -20.6926 
  44   1.0000      -0.759408       -20.6645 
  45   1.0000      -0.759127       -20.6569 
  46   1.0000      -0.747379       -20.3372 
  47   1.0000      -0.735980       -20.0270 
  48   1.0000      -0.726455       -19.7678 
  49   1.0000      -0.713701       -19.4208 
  50   1.0000      -0.699545       -19.0356 
  51   1.0000      -0.660703       -17.9786 
  52   1.0000      -0.658198       -17.9105 
  53   1.0000      -0.643195       -17.5022 
  54   1.0000      -0.623938       -16.9782 
  55   1.0000      -0.621173       -16.9030 
  56   1.0000      -0.619764       -16.8646 
  57   1.0000      -0.619022       -16.8444 
  58   1.0000      -0.595838       -16.2136 
  59   1.0000      -0.584092       -15.8940 
  60   1.0000      -0.566139       -15.4054 
  61   1.0000      -0.555967       -15.1286 
  62   1.0000      -0.554706       -15.0943 
  63   1.0000      -0.544657       -14.8209 
  64   1.0000      -0.536270       -14.5926 
  65   1.0000      -0.511149       -13.9091 
  66   1.0000      -0.509305       -13.8589 
  67   1.0000      -0.499558       -13.5937 
  68   1.0000      -0.494026       -13.4431 
  69   1.0000      -0.481136       -13.0924 
  70   1.0000      -0.474181       -12.9031 
  71   1.0000      -0.472363       -12.8536 
  72   1.0000      -0.470706       -12.8086 
  73   1.0000      -0.466384       -12.6909 
  74   1.0000      -0.448777       -12.2119 
  75   1.0000      -0.447216       -12.1694 
  76   1.0000      -0.436700       -11.8832 
  77   1.0000      -0.434110       -11.8127 
  78   1.0000      -0.432704       -11.7745 
  79   1.0000      -0.432147       -11.7593 
  80   1.0000      -0.428279       -11.6541 
  81   1.0000      -0.425779       -11.5860 
  82   1.0000      -0.414451       -11.2778 
  83   1.0000      -0.402724       -10.9587 
  84   1.0000      -0.401228       -10.9180 
  85   1.0000      -0.394195       -10.7266 
  86   1.0000      -0.393452       -10.7064 
  87   1.0000      -0.387850       -10.5539 
  88   1.0000      -0.386894       -10.5279 
  89   1.0000      -0.382831       -10.4174 
  90   1.0000      -0.381834       -10.3902 
  91   1.0000      -0.367925       -10.0117 
  92   1.0000      -0.364370        -9.9150 
  93   1.0000      -0.362878        -9.8744 
  94   1.0000      -0.359864        -9.7924 
  95   1.0000      -0.359787        -9.7903 
  96   1.0000      -0.345855        -9.4112 
  97   1.0000      -0.341385        -9.2896 
  98   1.0000      -0.337604        -9.1867 
  99   1.0000      -0.335201        -9.1213 
 100   1.0000      -0.332821        -9.0565 
 101   1.0000      -0.330006        -8.9799 
 102   1.0000      -0.327651        -8.9158 
 103   1.0000      -0.324987        -8.8433 
 104   1.0000      -0.312797        -8.5117 
 105   1.0000      -0.286533        -7.7970 
 106   1.0000      -0.282184        -7.6786 
 107   1.0000      -0.280864        -7.6427 
 108   1.0000      -0.275714        -7.5026 
 109   1.0000      -0.274469        -7.4687 
 110   1.0000      -0.272864        -7.4250 
 111   1.0000      -0.267723        -7.2851 
 112   1.0000      -0.266931        -7.2635 
 113   1.0000      -0.261422        -7.1137 
 114   1.0000      -0.231830        -6.3084 
 115   1.0000      -0.211159        -5.7459 
 116   1.0000      -0.175092        -4.7645 
 117   0.0000      -0.079161        -2.1541 
 118   0.0000      -0.053389        -1.4528 
 119   0.0000      -0.022582        -0.6145 
 120   0.0000      -0.021470        -0.5842 
 121   0.0000      -0.018826        -0.5123 
 122   0.0000       0.008228         0.2239 
 123   0.0000       0.010239         0.2786 
 124   0.0000       0.011714         0.3188 
 125   0.0000       0.018568         0.5053 
 126   0.0000       0.020535         0.5588 
 127   0.0000       0.026434         0.7193 
 128   0.0000       0.027309         0.7431 
 129   0.0000       0.030427         0.8280 
 130   0.0000       0.031827         0.8660 
 131   0.0000       0.032708         0.8900 
 132   0.0000       0.039597         1.0775 
 133   0.0000       0.040816         1.1107 
 134   0.0000       0.042079         1.1450 
 135   0.0000       0.043411         1.1813 
 136   0.0000       0.044943         1.2230 
 137   0.0000       0.046259         1.2588 
 138   0.0000       0.055132         1.5002 
 139   0.0000       0.058306         1.5866 
 140   0.0000       0.061482         1.6730 
 141   0.0000       0.063084         1.7166 
 142   0.0000       0.063547         1.7292 
 143   0.0000       0.069265         1.8848 
 144   0.0000       0.075662         2.0589 
 145   0.0000       0.077749         2.1157 
 146   0.0000       0.080810         2.1990 
 147   0.0000       0.085180         2.3179 
 148   0.0000       0.090718         2.4686 
 149   0.0000       0.096999         2.6395 
 150   0.0000       0.097664         2.6576 
 151   0.0000       0.112358         3.0574 
 152   0.0000       0.113011         3.0752 
 153   0.0000       0.118704         3.2301 
 154   0.0000       0.121999         3.3198 
 155   0.0000       0.127856         3.4791 
 156   0.0000       0.130141         3.5413 
 157   0.0000       0.134474         3.6592 
 158   0.0000       0.147657         4.0179 
 159   0.0000       0.151034         4.1098 
 160   0.0000       0.153851         4.1865 
 161   0.0000       0.156567         4.2604 
 162   0.0000       0.160623         4.3708 
 163   0.0000       0.163525         4.4497 
 164   0.0000       0.168263         4.5787 
 165   0.0000       0.172716         4.6998 
 166   0.0000       0.174462         4.7473 
 167   0.0000       0.177083         4.8187 
 168   0.0000       0.184225         5.0130 
 169   0.0000       0.188846         5.1388 
 170   0.0000       0.191608         5.2139 
 171   0.0000       0.196749         5.3538 
 172   0.0000       0.198615         5.4046 
 173   0.0000       0.199631         5.4322 
 174   0.0000       0.200374         5.4524 
 175   0.0000       0.202138         5.5005 
 176   0.0000       0.207586         5.6487 
 177   0.0000       0.214307         5.8316 
 178   0.0000       0.214445         5.8353 
 179   0.0000       0.215887         5.8746 
 180   0.0000       0.221990         6.0407 
 181   0.0000       0.222730         6.0608 
 182   0.0000       0.223827         6.0907 
 183   0.0000       0.231932         6.3112 
 184   0.0000       0.233023         6.3409 
 185   0.0000       0.238695         6.4952 
 186   0.0000       0.239448         6.5157 
 187   0.0000       0.244888         6.6638 
 188   0.0000       0.245570         6.6823 
 189   0.0000       0.250115         6.8060 
 190   0.0000       0.250821         6.8252 
 191   0.0000       0.258390         7.0311 
 192   0.0000       0.260244         7.0816 
 193   0.0000       0.264143         7.1877 
 194   0.0000       0.267873         7.2892 
 195   0.0000       0.271179         7.3791 
 196   0.0000       0.276082         7.5126 
 197   0.0000       0.277154         7.5418 
 198   0.0000       0.277958         7.5636 
 199   0.0000       0.279714         7.6114 
 200   0.0000       0.280777         7.6403 
 201   0.0000       0.282697         7.6926 
 202   0.0000       0.284048         7.7293 
 203   0.0000       0.285291         7.7632 
 204   0.0000       0.288275         7.8444 
 205   0.0000       0.291154         7.9227 
 206   0.0000       0.294725         8.0199 
 207   0.0000       0.295963         8.0536 
 208   0.0000       0.297508         8.0956 
 209   0.0000       0.298813         8.1311 
 210   0.0000       0.303567         8.2605 
 211   0.0000       0.306930         8.3520 
 212   0.0000       0.309509         8.4222 
 213   0.0000       0.310499         8.4491 
 214   0.0000       0.312581         8.5058 
 215   0.0000       0.312933         8.5153 
 216   0.0000       0.316483         8.6120 
 217   0.0000       0.318975         8.6797 
 218   0.0000       0.319043         8.6816 
 219   0.0000       0.320947         8.7334 
 220   0.0000       0.323336         8.7984 
 221   0.0000       0.328170         8.9300 
 222   0.0000       0.333544         9.0762 
 223   0.0000       0.337547         9.1851 
 224   0.0000       0.337624         9.1872 
 225   0.0000       0.338636         9.2148 
 226   0.0000       0.340568         9.2673 
 227   0.0000       0.341023         9.2797 
 228   0.0000       0.342527         9.3206 
 229   0.0000       0.347877         9.4662 
 230   0.0000       0.350341         9.5333 
 231   0.0000       0.353473         9.6185 
 232   0.0000       0.356070         9.6892 
 233   0.0000       0.358799         9.7634 
 234   0.0000       0.366492         9.9728 
 235   0.0000       0.370446        10.0804 
 236   0.0000       0.371692        10.1142 
 237   0.0000       0.377538        10.2733 
 238   0.0000       0.378373        10.2960 
 239   0.0000       0.382262        10.4019 
 240   0.0000       0.386546        10.5185 
 241   0.0000       0.387695        10.5497 
 242   0.0000       0.392288        10.6747 
 243   0.0000       0.398225        10.8363 
 244   0.0000       0.400073        10.8865 
 245   0.0000       0.406434        11.0596 
 246   0.0000       0.408943        11.1279 
 247   0.0000       0.410529        11.1711 
 248   0.0000       0.411795        11.2055 
 249   0.0000       0.413632        11.2555 
 250   0.0000       0.415360        11.3025 
 251   0.0000       0.416830        11.3425 
 252   0.0000       0.417164        11.3516 
 253   0.0000       0.420640        11.4462 
 254   0.0000       0.424105        11.5405 
 255   0.0000       0.431698        11.7471 
 256   0.0000       0.436510        11.8780 
 257   0.0000       0.438948        11.9444 
 258   0.0000       0.441242        12.0068 
 259   0.0000       0.442037        12.0284 
 260   0.0000       0.447742        12.1837 
 261   0.0000       0.450751        12.2655 
 262   0.0000       0.455659        12.3991 
 263   0.0000       0.456625        12.4254 
 264   0.0000       0.458106        12.4657 
 265   0.0000       0.461079        12.5466 
 266   0.0000       0.461183        12.5494 
 267   0.0000       0.465639        12.6707 
 268   0.0000       0.468151        12.7390 
 269   0.0000       0.472369        12.8538 
 270   0.0000       0.476077        12.9547 
 271   0.0000       0.481409        13.0998 
 272   0.0000       0.482812        13.1380 
 273   0.0000       0.486139        13.2285 
 274   0.0000       0.490645        13.3511 
 275   0.0000       0.498086        13.5536 
 276   0.0000       0.498251        13.5581 
 277   0.0000       0.502298        13.6682 
 278   0.0000       0.506230        13.7752 
 279   0.0000       0.509168        13.8552 
 280   0.0000       0.515980        14.0405 
 281   0.0000       0.525371        14.2961 
 282   0.0000       0.526204        14.3187 
 283   0.0000       0.527888        14.3646 
 284   0.0000       0.531822        14.4716 
 285   0.0000       0.535459        14.5706 
 286   0.0000       0.537628        14.6296 
 287   0.0000       0.539306        14.6753 
 288   0.0000       0.542616        14.7653 
 289   0.0000       0.547876        14.9085 
 290   0.0000       0.549293        14.9470 
 291   0.0000       0.553046        15.0491 
 292   0.0000       0.555419        15.1137 
 293   0.0000       0.560316        15.2470 
 294   0.0000       0.571606        15.5542 
 295   0.0000       0.574540        15.6340 
 296   0.0000       0.577692        15.7198 
 297   0.0000       0.582578        15.8527 
 298   0.0000       0.582776        15.8581 
 299   0.0000       0.590880        16.0787 
 300   0.0000       0.596251        16.2248 
 301   0.0000       0.598438        16.2843 
 302   0.0000       0.606839        16.5129 
 303   0.0000       0.615895        16.7594 
 304   0.0000       0.627625        17.0785 
 305   0.0000       0.629861        17.1394 
 306   0.0000       0.641691        17.4613 
 307   0.0000       0.647849        17.6289 
 308   0.0000       0.649947        17.6860 
 309   0.0000       0.652927        17.7670 
 310   0.0000       0.653424        17.7806 
 311   0.0000       0.664740        18.0885 
 312   0.0000       0.665733        18.1155 
 313   0.0000       0.669431        18.2161 
 314   0.0000       0.687364        18.7041 
 315   0.0000       0.690364        18.7858 
 316   0.0000       0.700004        19.0481 
 317   0.0000       0.712281        19.3821 
 318   0.0000       0.713838        19.4245 
 319   0.0000       0.717249        19.5173 
 320   0.0000       0.737746        20.0751 
 321   0.0000       0.756035        20.5727 
 322   0.0000       0.765836        20.8395 
 323   0.0000       0.769768        20.9464 
 324   0.0000       0.771603        20.9964 
 325   0.0000       0.789303        21.4780 
 326   0.0000       0.792799        21.5732 
 327   0.0000       0.794895        21.6302 
 328   0.0000       0.800124        21.7725 
 329   0.0000       0.811651        22.0861 
 330   0.0000       0.829919        22.5832 
 331   0.0000       0.835924        22.7466 
 332   0.0000       0.838727        22.8229 
 333   0.0000       0.844654        22.9842 
 334   0.0000       0.851658        23.1748 
 335   0.0000       0.852955        23.2101 
 336   0.0000       0.858796        23.3690 
 337   0.0000       0.861071        23.4309 
 338   0.0000       0.861931        23.4543 
 339   0.0000       0.867780        23.6135 
 340   0.0000       0.869243        23.6533 
 341   0.0000       0.873354        23.7652 
 342   0.0000       0.875623        23.8269 
 343   0.0000       0.880025        23.9467 
 344   0.0000       0.880522        23.9602 
 345   0.0000       0.883701        24.0467 
 346   0.0000       0.890872        24.2418 
 347   0.0000       0.893762        24.3205 
 348   0.0000       0.895369        24.3642 
 349   0.0000       0.899015        24.4634 
 350   0.0000       0.902703        24.5638 
 351   0.0000       0.913143        24.8479 
 352   0.0000       0.913174        24.8487 
 353   0.0000       0.923391        25.1268 
 354   0.0000       0.924267        25.1506 
 355   0.0000       0.928297        25.2603 
 356   0.0000       0.928650        25.2699 
 357   0.0000       0.928973        25.2786 
 358   0.0000       0.936889        25.4940 
 359   0.0000       0.944035        25.6885 
 360   0.0000       0.947050        25.7705 
 361   0.0000       0.951695        25.8969 
 362   0.0000       0.954979        25.9863 
 363   0.0000       0.955119        25.9901 
 364   0.0000       0.966239        26.2927 
 365   0.0000       0.969261        26.3749 
 366   0.0000       0.973353        26.4863 
 367   0.0000       0.979851        26.6631 
 368   0.0000       0.981773        26.7154 
 369   0.0000       0.982824        26.7440 
 370   0.0000       0.987681        26.8762 
 371   0.0000       0.988559        26.9001 
 372   0.0000       0.989623        26.9290 
 373   0.0000       0.990566        26.9547 
 374   0.0000       0.993893        27.0452 
 375   0.0000       0.999827        27.2067 
 376   0.0000       1.005046        27.3487 
 377   0.0000       1.008002        27.4291 
 378   0.0000       1.012850        27.5610 
 379   0.0000       1.017010        27.6742 
 380   0.0000       1.020511        27.7695 
 381   0.0000       1.025125        27.8951 
 382   0.0000       1.026021        27.9195 
 383   0.0000       1.027328        27.9550 
 384   0.0000       1.028692        27.9921 
 385   0.0000       1.031766        28.0758 
 386   0.0000       1.035506        28.1775 
 387   0.0000       1.036308        28.1994 
 388   0.0000       1.038991        28.2724 
 389   0.0000       1.042349        28.3637 
 390   0.0000       1.043578        28.3972 
 391   0.0000       1.049907        28.5694 
 392   0.0000       1.060493        28.8575 
 393   0.0000       1.063401        28.9366 
 394   0.0000       1.065635        28.9974 
 395   0.0000       1.067086        29.0369 
 396   0.0000       1.082052        29.4441 
 397   0.0000       1.083997        29.4971 
 398   0.0000       1.092845        29.7378 
 399   0.0000       1.101193        29.9650 
 400   0.0000       1.104316        30.0500 
 401   0.0000       1.108103        30.1530 
 402   0.0000       1.112010        30.2593 
 403   0.0000       1.119953        30.4755 
 404   0.0000       1.131047        30.7773 
 405   0.0000       1.135949        30.9107 
 406   0.0000       1.137808        30.9613 
 407   0.0000       1.138679        30.9850 
 408   0.0000       1.148834        31.2614 
 409   0.0000       1.150988        31.3200 
 410   0.0000       1.164382        31.6845 
 411   0.0000       1.167238        31.7622 
 412   0.0000       1.168097        31.7855 
 413   0.0000       1.177221        32.0338 
 414   0.0000       1.180294        32.1174 
 415   0.0000       1.187210        32.3056 
 416   0.0000       1.188367        32.3371 
 417   0.0000       1.199448        32.6386 
 418   0.0000       1.204498        32.7761 
 419   0.0000       1.209763        32.9193 
 420   0.0000       1.214022        33.0352 
 421   0.0000       1.218538        33.1581 
 422   0.0000       1.229784        33.4641 
 423   0.0000       1.232571        33.5400 
 424   0.0000       1.233691        33.5705 
 425   0.0000       1.245934        33.9036 
 426   0.0000       1.250901        34.0387 
 427   0.0000       1.251972        34.0679 
 428   0.0000       1.252001        34.0687 
 429   0.0000       1.263203        34.3735 
 430   0.0000       1.267224        34.4829 
 431   0.0000       1.270166        34.5630 
 432   0.0000       1.280740        34.8507 
 433   0.0000       1.283250        34.9190 
 434   0.0000       1.298953        35.3463 
 435   0.0000       1.299506        35.3613 
 436   0.0000       1.305362        35.5207 
 437   0.0000       1.312466        35.7140 
 438   0.0000       1.320066        35.9208 
 439   0.0000       1.327679        36.1280 
 440   0.0000       1.327976        36.1361 
 441   0.0000       1.333158        36.2771 
 442   0.0000       1.344677        36.5905 
 443   0.0000       1.345672        36.6176 
 444   0.0000       1.354930        36.8695 
 445   0.0000       1.360640        37.0249 
 446   0.0000       1.366600        37.1871 
 447   0.0000       1.368378        37.2355 
 448   0.0000       1.378175        37.5020 
 449   0.0000       1.382749        37.6265 
 450   0.0000       1.385957        37.7138 
 451   0.0000       1.387979        37.7688 
 452   0.0000       1.397105        38.0172 
 453   0.0000       1.399514        38.0827 
 454   0.0000       1.405892        38.2563 
 455   0.0000       1.415273        38.5115 
 456   0.0000       1.423546        38.7367 
 457   0.0000       1.426742        38.8236 
 458   0.0000       1.428394        38.8686 
 459   0.0000       1.431733        38.9594 
 460   0.0000       1.433290        39.0018 
 461   0.0000       1.448228        39.4083 
 462   0.0000       1.450648        39.4741 
 463   0.0000       1.455260        39.5996 
 464   0.0000       1.456122        39.6231 
 465   0.0000       1.456805        39.6417 
 466   0.0000       1.465921        39.8897 
 467   0.0000       1.466598        39.9081 
 468   0.0000       1.470490        40.0141 
 469   0.0000       1.472881        40.0791 
 470   0.0000       1.484277        40.3892 
 471   0.0000       1.489655        40.5356 
 472   0.0000       1.503272        40.9061 
 473   0.0000       1.505587        40.9691 
 474   0.0000       1.507507        41.0214 
 475   0.0000       1.509097        41.0646 
 476   0.0000       1.516542        41.2672 
 477   0.0000       1.524117        41.4733 
 478   0.0000       1.539430        41.8900 
 479   0.0000       1.542951        41.9858 
 480   0.0000       1.553966        42.2856 
 481   0.0000       1.558332        42.4044 
 482   0.0000       1.559735        42.4425 
 483   0.0000       1.560773        42.4708 
 484   0.0000       1.569072        42.6966 
 485   0.0000       1.579117        42.9700 
 486   0.0000       1.581251        43.0280 
 487   0.0000       1.583940        43.1012 
 488   0.0000       1.586484        43.1704 
 489   0.0000       1.591420        43.3047 
 490   0.0000       1.597369        43.4666 
 491   0.0000       1.601757        43.5860 
 492   0.0000       1.603110        43.6228 
 493   0.0000       1.605063        43.6760 
 494   0.0000       1.614438        43.9311 
 495   0.0000       1.616719        43.9932 
 496   0.0000       1.621945        44.1354 
 497   0.0000       1.637260        44.5521 
 498   0.0000       1.639969        44.6258 
 499   0.0000       1.643112        44.7114 
 500   0.0000       1.648267        44.8516 
 501   0.0000       1.649790        44.8931 
 502   0.0000       1.654183        45.0126 
 503   0.0000       1.655637        45.0522 
 504   0.0000       1.662224        45.2314 
 505   0.0000       1.667404        45.3724 
 506   0.0000       1.669370        45.4259 
 507   0.0000       1.677124        45.6369 
 508   0.0000       1.681499        45.7559 
 509   0.0000       1.684667        45.8421 
 510   0.0000       1.685138        45.8549 
 511   0.0000       1.686437        45.8903 
 512   0.0000       1.690886        46.0114 
 513   0.0000       1.694561        46.1114 
 514   0.0000       1.697219        46.1837 
 515   0.0000       1.701812        46.3087 
 516   0.0000       1.703742        46.3612 
 517   0.0000       1.705673        46.4137 
 518   0.0000       1.711926        46.5839 
 519   0.0000       1.725018        46.9401 
 520   0.0000       1.729454        47.0608 
 521   0.0000       1.737581        47.2820 
 522   0.0000       1.740296        47.3559 
 523   0.0000       1.757644        47.8279 
 524   0.0000       1.758392        47.8483 
 525   0.0000       1.763239        47.9802 
 526   0.0000       1.772078        48.2207 
 527   0.0000       1.783701        48.5370 
 528   0.0000       1.789330        48.6901 
 529   0.0000       1.790394        48.7191 
 530   0.0000       1.790671        48.7266 
 531   0.0000       1.792946        48.7885 
 532   0.0000       1.801090        49.0101 
 533   0.0000       1.811856        49.3031 
 534   0.0000       1.812069        49.3089 
 535   0.0000       1.812459        49.3195 
 536   0.0000       1.823310        49.6148 
 537   0.0000       1.828921        49.7675 
 538   0.0000       1.835200        49.9383 
 539   0.0000       1.845107        50.2079 
 540   0.0000       1.847580        50.2752 
 541   0.0000       1.853879        50.4466 
 542   0.0000       1.856006        50.5045 
 543   0.0000       1.859240        50.5925 
 544   0.0000       1.869769        50.8790 
 545   0.0000       1.877044        51.0770 
[...]

 -----------------------------------------------------------
 Nucleus  56H : A:ISTP=    1 I=  0.5 P=533.5514 MHz/au**3
                Q:ISTP=    2 I=  1.0 Q=  0.0029 barn     
 -----------------------------------------------------------
 Solving for nuclear perturbation:
Forming RHS of the CP-SCF equations         ... 
Calc. nucleus orbit integrals (SHARK)       ... done

------------------------------------------------------------------------------
                           ORCA CP-SCF CALCULATION
------------------------------------------------------------------------------

Input orbitals are from        ... EPRII_i.gbw
Input Perturbation             ... EPRII_i.pin.tmp
Wavefunction output            ... EPRII_i.pout.tmp
Perturbation mode              ... Imaginary perturbation
Solver                         ... POPLE
Max. number of iterations      ... 64
Convergence tolerance          ... 1.000e-03
Integral handling              ... Direct
DFT GridXC                     ... 1
COSX GridX                     ... 1
COSX IntAccX                   ... 3.067
COSX Algorithm                 ... Auto
Number of perturbations        ... 3
Number of operators            ... 2
Orbital ranges used for CP-SCF:
 Operator 0:  Orbitals   0...116  to 117...780
 Operator 1:  Orbitals   0...115  to 116...780
Variables per perturbation     ... 154828
DFT calculation                         ... on
XC functional terms                     ... off
Hybrid DFT                              ... on
   Exchange mixing (SCF)                ...  0.200
   Exchange mixing (CP-SCF)             ...  0.200
   GGA exch. scaling(SCF)               ...  0.720
   GGA exch. scaling (CP-SCF)           ...  0.720
   GGA corr. scaling (SCF)              ...  0.810
   GGA corr. scaling (CP-SCF)           ...  0.810

CP-SCF GRID
-----------

General Integration Accuracy     IntAcc      ... 3.467
Radial Grid Type                 RadialGrid  ... OptM3 with GC (2021)
Angular Grid (max. ang.)         AngularGrid ... 1 (Lebedev-50)
Angular grid pruning method      GridPruning ... 4 (adaptive)
Weight generation scheme         WeightScheme... Becke
Basis function cutoff            BFCut       ... 1.0000e-10
Integration weight cutoff        WCut        ... 1.0000e-14
Angular grids for H and He will be reduced by one unit
Partially contracted basis set               ... off
Rotationally invariant grid construction     ... off

Total number of grid points                  ...    42744
Total number of batches                      ...      692
Average number of points per batch           ...       61
Average number of grid points per atom       ...      678

CP-SCF GRIDX
------------

General Integration Accuracy     IntAcc      ... 3.067
Radial Grid Type                 RadialGrid  ... OptM3 with GC (2021)
Angular Grid (max. ang.)         AngularGrid ... 1 (Lebedev-50)
Angular grid pruning method      GridPruning ... 4 (adaptive)
Weight generation scheme         WeightScheme... Becke
Basis function cutoff            BFCut       ... 1.0000e-10
Integration weight cutoff        WCut        ... 1.0000e-14
Angular grids for H and He will be reduced by one unit
Partially contracted basis set               ... on
Rotationally invariant grid construction     ... off

Total number of grid points                  ...    19910
Total number of batches                      ...      351
Average number of points per batch           ...       56
Average number of grid points per atom       ...      316

Memory available               ... 774.0 MB
Memory needed per perturbation ...  35.9 MB
Perturbations treated per batch... 3
Number of batches              ... 1
     CP-SCF ITERATION   0:   4.7492e-02 (   4.3 sec   0/  3 done)
     CP-SCF ITERATION   1:   2.2649e-03 (   4.0 sec   0/  3 done)
     CP-SCF ITERATION   2:   1.5556e-04 (   4.0 sec   3/  3 done)
                    *** THE CP-SCF HAS CONVERGED ***

Forming final perturbed densities           ... done
Transforming perturbed density to AO basis  ... done

 Raw HFC matrix (all values in MHz): 
 -----------------------------------
                -1.2659               0.6233               0.0018
                 0.6229              -1.7469               0.0019
                 0.0018               0.0019              -2.7762

 A(FC)          -1.9301              -1.9301              -1.9301
 A(SD)           1.0909              -0.2450              -0.8459
 A(ORB+DIA)      0.0008               0.0009              -0.0002    A(PC) =   0.0005
 A(ORB)          0.0006               0.0007               0.0000    A(PC) =   0.0005
 A(DIA)          0.0001               0.0001              -0.0002    A(PC) =   0.0000
             ----------           ----------           ----------
 A(Tot)         -0.8385              -2.1743              -2.7762    A(iso)=   -1.9297
 Orientation: 
  X           0.8246116            0.5656991            0.0005425
  Y           0.5656978           -0.8246112            0.0015271
  Z           0.0013113           -0.0009524           -0.9999987

Notes:  (1) The A matrix conforms to the "SAI" spin Hamiltonian convention.
        (2) Tensor is right-handed.

 -----------------------------------------------------------
 Nucleus  57H : A:ISTP=    1 I=  0.5 P=533.5514 MHz/au**3
                Q:ISTP=    2 I=  1.0 Q=  0.0029 barn     
 -----------------------------------------------------------
 Solving for nuclear perturbation:
Forming RHS of the CP-SCF equations         ... 
Calc. nucleus orbit integrals (SHARK)       ... done

------------------------------------------------------------------------------
                           ORCA CP-SCF CALCULATION
------------------------------------------------------------------------------

Input orbitals are from        ... EPRII_i.gbw
Input Perturbation             ... EPRII_i.pin.tmp
Wavefunction output            ... EPRII_i.pout.tmp
Perturbation mode              ... Imaginary perturbation
Solver                         ... POPLE
Max. number of iterations      ... 64
Convergence tolerance          ... 1.000e-03
Integral handling              ... Direct
DFT GridXC                     ... 1
COSX GridX                     ... 1
COSX IntAccX                   ... 3.067
COSX Algorithm                 ... Auto
Number of perturbations        ... 3
Number of operators            ... 2
Orbital ranges used for CP-SCF:
 Operator 0:  Orbitals   0...116  to 117...780
 Operator 1:  Orbitals   0...115  to 116...780
Variables per perturbation     ... 154828
DFT calculation                         ... on
XC functional terms                     ... off
Hybrid DFT                              ... on
   Exchange mixing (SCF)                ...  0.200
   Exchange mixing (CP-SCF)             ...  0.200
   GGA exch. scaling(SCF)               ...  0.720
   GGA exch. scaling (CP-SCF)           ...  0.720
   GGA corr. scaling (SCF)              ...  0.810
   GGA corr. scaling (CP-SCF)           ...  0.810

CP-SCF GRID
-----------

General Integration Accuracy     IntAcc      ... 3.467
Radial Grid Type                 RadialGrid  ... OptM3 with GC (2021)
Angular Grid (max. ang.)         AngularGrid ... 1 (Lebedev-50)
Angular grid pruning method      GridPruning ... 4 (adaptive)
Weight generation scheme         WeightScheme... Becke
Basis function cutoff            BFCut       ... 1.0000e-10
Integration weight cutoff        WCut        ... 1.0000e-14
Angular grids for H and He will be reduced by one unit
Partially contracted basis set               ... off
Rotationally invariant grid construction     ... off

Total number of grid points                  ...    42744
Total number of batches                      ...      692
Average number of points per batch           ...       61
Average number of grid points per atom       ...      678

CP-SCF GRIDX
------------

General Integration Accuracy     IntAcc      ... 3.067
Radial Grid Type                 RadialGrid  ... OptM3 with GC (2021)
Angular Grid (max. ang.)         AngularGrid ... 1 (Lebedev-50)
Angular grid pruning method      GridPruning ... 4 (adaptive)
Weight generation scheme         WeightScheme... Becke
Basis function cutoff            BFCut       ... 1.0000e-10
Integration weight cutoff        WCut        ... 1.0000e-14
Angular grids for H and He will be reduced by one unit
Partially contracted basis set               ... on
Rotationally invariant grid construction     ... off

Total number of grid points                  ...    19910
Total number of batches                      ...      351
Average number of points per batch           ...       56
Average number of grid points per atom       ...      316

Memory available               ... 772.9 MB
Memory needed per perturbation ...  35.9 MB
Perturbations treated per batch... 3
Number of batches              ... 1
     CP-SCF ITERATION   0:   4.7318e-02 (   4.5 sec   0/  3 done)
     CP-SCF ITERATION   1:   2.1457e-03 (   3.9 sec   0/  3 done)
     CP-SCF ITERATION   2:   1.4217e-04 (   3.8 sec   3/  3 done)
                    *** THE CP-SCF HAS CONVERGED ***

Forming final perturbed densities           ... done
Transforming perturbed density to AO basis  ... done

 Raw HFC matrix (all values in MHz): 
 -----------------------------------
                -2.1368              -0.2709              -0.0002
                -0.2703              -1.2165               0.0023
                -0.0002               0.0023              -2.4671

 A(FC)          -1.9405              -1.9405              -1.9405
 A(SD)           0.7975              -0.2709              -0.5266
 A(ORB+DIA)      0.0001               0.0010              -0.0001    A(PC) =   0.0003
 A(ORB)         -0.0000               0.0009               0.0000    A(PC) =   0.0003
 A(DIA)          0.0002               0.0001              -0.0001    A(PC) =   0.0001
             ----------           ----------           ----------
 A(Tot)         -1.1428              -2.2105              -2.4671    A(iso)=   -1.9401
 Orientation: 
  X          -0.2629014            0.9648220            0.0011511
  Y           0.9648212            0.2628987            0.0020590
  Z           0.0016839            0.0016519           -0.9999972

Notes:  (1) The A matrix conforms to the "SAI" spin Hamiltonian convention.
        (2) Tensor is right-handed.

 -----------------------------------------------------------
 Nucleus  58H : A:ISTP=    1 I=  0.5 P=533.5514 MHz/au**3
                Q:ISTP=    2 I=  1.0 Q=  0.0029 barn     
 -----------------------------------------------------------
 Solving for nuclear perturbation:
Forming RHS of the CP-SCF equations         ... 
Calc. nucleus orbit integrals (SHARK)       ... done

------------------------------------------------------------------------------
                           ORCA CP-SCF CALCULATION
------------------------------------------------------------------------------

Input orbitals are from        ... EPRII_i.gbw
Input Perturbation             ... EPRII_i.pin.tmp
Wavefunction output            ... EPRII_i.pout.tmp
Perturbation mode              ... Imaginary perturbation
Solver                         ... POPLE
Max. number of iterations      ... 64
Convergence tolerance          ... 1.000e-03
Integral handling              ... Direct
DFT GridXC                     ... 1
COSX GridX                     ... 1
COSX IntAccX                   ... 3.067
COSX Algorithm                 ... Auto
Number of perturbations        ... 3
Number of operators            ... 2
Orbital ranges used for CP-SCF:
 Operator 0:  Orbitals   0...116  to 117...780
 Operator 1:  Orbitals   0...115  to 116...780
Variables per perturbation     ... 154828
DFT calculation                         ... on
XC functional terms                     ... off
Hybrid DFT                              ... on
   Exchange mixing (SCF)                ...  0.200
   Exchange mixing (CP-SCF)             ...  0.200
   GGA exch. scaling(SCF)               ...  0.720
   GGA exch. scaling (CP-SCF)           ...  0.720
   GGA corr. scaling (SCF)              ...  0.810
   GGA corr. scaling (CP-SCF)           ...  0.810

CP-SCF GRID
-----------

General Integration Accuracy     IntAcc      ... 3.467
Radial Grid Type                 RadialGrid  ... OptM3 with GC (2021)
Angular Grid (max. ang.)         AngularGrid ... 1 (Lebedev-50)
Angular grid pruning method      GridPruning ... 4 (adaptive)
Weight generation scheme         WeightScheme... Becke
Basis function cutoff            BFCut       ... 1.0000e-10
Integration weight cutoff        WCut        ... 1.0000e-14
Angular grids for H and He will be reduced by one unit
Partially contracted basis set               ... off
Rotationally invariant grid construction     ... off

Total number of grid points                  ...    42744
Total number of batches                      ...      692
Average number of points per batch           ...       61
Average number of grid points per atom       ...      678

CP-SCF GRIDX
------------

General Integration Accuracy     IntAcc      ... 3.067
Radial Grid Type                 RadialGrid  ... OptM3 with GC (2021)
Angular Grid (max. ang.)         AngularGrid ... 1 (Lebedev-50)
Angular grid pruning method      GridPruning ... 4 (adaptive)
Weight generation scheme         WeightScheme... Becke
Basis function cutoff            BFCut       ... 1.0000e-10
Integration weight cutoff        WCut        ... 1.0000e-14
Angular grids for H and He will be reduced by one unit
Partially contracted basis set               ... on
Rotationally invariant grid construction     ... off

Total number of grid points                  ...    19910
Total number of batches                      ...      351
Average number of points per batch           ...       56
Average number of grid points per atom       ...      316

Memory available               ... 771.9 MB
Memory needed per perturbation ...  35.9 MB
Perturbations treated per batch... 3
Number of batches              ... 1
     CP-SCF ITERATION   0:   4.5811e-02 (   4.0 sec   0/  3 done)
     CP-SCF ITERATION   1:   2.0072e-03 (   4.0 sec   0/  3 done)
     CP-SCF ITERATION   2:   1.3311e-04 (   3.9 sec   3/  3 done)
                    *** THE CP-SCF HAS CONVERGED ***

Forming final perturbed densities           ... done
Transforming perturbed density to AO basis  ... done

 Raw HFC matrix (all values in MHz): 
 -----------------------------------
                 1.6574               0.3372               0.0005
                 0.3372               0.6900               0.0001
                 0.0005               0.0001               0.5655

 A(FC)           0.9710               0.9710               0.9710
 A(SD)          -0.4055              -0.3870               0.7925
 A(ORB+DIA)     -0.0000               0.0001              -0.0002    A(PC) =  -0.0001
 A(ORB)         -0.0000               0.0001              -0.0003    A(PC) =  -0.0001
 A(DIA)          0.0000              -0.0000               0.0000    A(PC) =   0.0000
             ----------           ----------           ----------
 A(Tot)          0.5655               0.5841               1.7633    A(iso)=    0.9710
 Orientation: 
  X          -0.0008963            0.2997020            0.9540324
  Y           0.0015615           -0.9540312            0.2997031
  Z           0.9999984            0.0017583            0.0003871

Notes:  (1) The A matrix conforms to the "SAI" spin Hamiltonian convention.
        (2) Tensor is right-handed.


--------------------------------------------------------------------------------
----------------------------------------------------------------------------
                           ORCA EULER ANGLE PROGRAM
----------------------------------------------------------------------------

Only g-tensor available        -->  using g-tensor as reference tensor

Reference tensor               ...  g

g-tensor ordering              ...  |g_min> --> |gx>
                                    |g_mid> --> |gy>
                                    |g_max> --> |gz>

A- and EFG-tensor ordering     ...  the axes |Ax>, |Qx>, |Ay>, etc. are assigned
                                    such that the Euler rotation is minimal. You
                                    can find the respective eigenvalues as Ax,
                                    EFGx, Ay, etc. in the tables below.
                                    The relation of |Ax>, |Ay>,  etc. to Amin, Amid, etc.
                                    (as printed in the ORCA EPR/NMR CALCULATION Output)
                                    is obtained in the detailed printout.

Euler rotation around          ...  z - y - z
   First rotation              -->  by alpha around z
   Second rotation             -->  by beta around y'
   Third rotation              -->  by gamma around z''
   Positive / Negative angle   -->  clockwise / counterclockwise rotation

Plot EFG-tensors                    (-)
Plot HFC-tensors                    (-)
Detailed Printout                   (-)

-------------------------------------------------------------------------
          Euler rotation of hyperfine tensor to g-tensor
-------------------------------------------------------------------------

-------------------------------------------------------------------
 Atom  |   Alpha    Beta    Gamma   |   Ax       Ay       Az 
       |          [degrees]         |           [MHz]         
-------------------------------------------------------------------
  9H       88.9      3.4    -88.9     -17.29    -8.04   -20.98
 10H       90.0      6.5    -90.0       4.60     5.15    10.04
 12H       90.1     42.9    -90.0     -48.21   -73.63   -19.67
 14H      169.7     14.0    172.2      65.93    75.54    67.42
 15H       10.1     13.5      7.9      65.52    75.12    67.02
 17H     -153.2     29.2    120.3      -3.22    -3.06     3.01
 18H      -26.9     29.0     60.1      -3.21    -3.06     3.00
 20H      137.9     55.5   -140.8       0.05     2.25    -0.05
 21H       43.8     53.2    -41.8       0.05     2.25    -0.05
 23H       30.9     17.6      7.7      23.27    23.88    26.95
 24H      149.1     17.7    172.1      23.32    23.93    27.00
 26H       99.4     29.2    -86.8      -1.02     0.91    -0.90
 27H       80.9     29.2    -93.6      -1.02     0.91    -0.90
 29H     -104.7     30.8     72.9      -0.10    -0.14     0.80
 30H      -75.2     30.8    106.9      -0.10    -0.14     0.80
 32H       84.4     42.4    -92.4      -0.12     0.37    -0.10
 33H       95.7     42.4    -87.9      -0.12     0.37    -0.10
 35H      -88.4     39.9     90.2      -0.82    -0.84     0.70
 36H      -90.6     37.9     89.9      -0.13    -0.13     0.23
 43H       89.9     43.6    -90.0       0.58     0.82     0.36
 44H      -88.9      3.2     88.8      -0.41    -0.62    -0.21
 45H      -89.9     34.1     89.8       0.66     1.57     0.22
 46H       89.8     20.9    -89.9       0.71     0.23     1.52
 47H      -89.2      9.9     89.1      -0.42    -0.25    -0.57
 54H      -89.9     44.3     89.9      -1.59    -0.65    -2.18
 55H       89.9     32.0    -89.9       0.63     0.77     1.53
 56H      -89.6     13.1     89.6      -2.78    -0.84    -2.17
 57H      -89.8     32.3     89.9      -2.47    -2.21    -1.14
 58H      -89.5     30.1     89.5       0.57     1.76     0.58
-------------------------------------------------------------------


Maximum memory used throughout the entire EPRNMR-calculation: 487.0 MB

Timings for individual modules:

Sum of individual times         ...    15166.163 sec (= 252.769 min)
GTO integral calculation        ...        8.962 sec (=   0.149 min)   0.1 %
Spin-Orbit-Coupling Matrices    ...       25.842 sec (=   0.431 min)   0.2 %
SCF iterations                  ...      136.974 sec (=   2.283 min)   0.9 %
EPR/NMR calculation             ...    14994.385 sec (= 249.906 min)  98.9 %
                             ****ORCA TERMINATED NORMALLY****
TOTAL RUN TIME: 0 days 4 hours 12 minutes 51 seconds 552 msec
