
                                 *****************
                                 * O   R   C   A *
                                 *****************

           --- An Ab Initio, DFT and Semiempirical electronic structure package ---

                  #######################################################
                  #                        -***-                        #
                  #          Department of theory and spectroscopy      #
                  #               Directorship: Frank Neese             #
                  #        Max Planck Institute fuer Kohlenforschung    #
                  #                Kaiser Wilhelm Platz 1               #
                  #                 D-45470 Muelheim/Ruhr               #
                  #                      Germany                        #
                  #                                                     #
                  #                  All rights reserved                #
                  #                        -***-                        #
                  #######################################################


                         Program Version 4.2.1 -  RELEASE  -


 With contributions from (in alphabetic order):
   Daniel Aravena         : Magnetic Suceptibility
   Michael Atanasov       : Ab Initio Ligand Field Theory (pilot matlab implementation)
   Alexander A. Auer      : GIAO ZORA, VPT2
   Ute Becker             : Parallelization
   Giovanni Bistoni       : ED, misc. LED, open-shell LED, HFLD
   Martin Brehm           : Molecular dynamics
   Dmytro Bykov           : SCF Hessian
   Vijay G. Chilkuri      : MRCI spin determinant printing, contributions to CSF-ICE
   Dipayan Datta          : RHF DLPNO-CCSD density
   Achintya Kumar Dutta   : EOM-CC, STEOM-CC
   Dmitry Ganyushin       : Spin-Orbit,Spin-Spin,Magnetic field MRCI
   Miquel Garcia          : C-PCM Hessian, Gaussian charge scheme
   Yang Guo               : DLPNO-NEVPT2, CIM, IAO-localization
   Andreas Hansen         : Spin unrestricted coupled pair/coupled cluster methods
   Benjamin Helmich-Paris : CASSCF linear response (MC-RPA)
   Lee Huntington         : MR-EOM, pCC
   Robert Izsak           : Overlap fitted RIJCOSX, COSX-SCS-MP3, EOM
   Christian Kollmar      : KDIIS, OOCD, Brueckner-CCSD(T), CCSD density
   Simone Kossmann        : Meta GGA functionals, TD-DFT gradient, OOMP2, MP2 Hessian
   Martin Krupicka        : AUTO-CI
   Lucas Lang             : DCDCAS
   Dagmar Lenk            : GEPOL surface, SMD
   Dimitrios Liakos       : Extrapolation schemes; Compound Job, initial MDCI parallelization
   Dimitrios Manganas     : Further ROCIS development; embedding schemes
   Dimitrios Pantazis     : SARC Basis sets
   Taras Petrenko         : DFT Hessian,TD-DFT gradient, ASA, ECA, R-Raman, ABS, FL, XAS/XES, NRVS
   Peter Pinski           : DLPNO-MP2, DLPNO-MP2 Gradient
   Christoph Reimann      : Effective Core Potentials
   Marius Retegan         : Local ZFS, SOC
   Christoph Riplinger    : Optimizer, TS searches, QM/MM, DLPNO-CCSD(T), (RO)-DLPNO pert. Triples
   Tobias Risthaus        : Range-separated hybrids, TD-DFT gradient, RPA, STAB
   Michael Roemelt        : Original ROCIS implementation
   Masaaki Saitow         : Open-shell DLPNO-CCSD energy and density
   Barbara Sandhoefer     : DKH picture change effects
   Avijit Sen             : IP-ROCIS
   Kantharuban Sivalingam : CASSCF convergence, NEVPT2, FIC-MRCI
   Bernardo de Souza      : ESD, SOC TD-DFT
   Georgi Stoychev        : AutoAux, RI-MP2 NMR
   Willem Van den Heuvel  : Paramagnetic NMR
   Boris Wezisla          : Elementary symmetry handling
   Frank Wennmohs         : Technical directorship


 We gratefully acknowledge several colleagues who have allowed us to
 interface, adapt or use parts of their codes:
   Stefan Grimme, W. Hujo, H. Kruse,             : VdW corrections, initial TS optimization,
                  C. Bannwarth                     DFT functionals, gCP, sTDA/sTD-DF
   Ed Valeev, F. Pavosevic, A. Kumar             : LibInt (2-el integral package), F12 methods
   Garnet Chan, S. Sharma, J. Yang, R. Olivares  : DMRG
   Ulf Ekstrom                                   : XCFun DFT Library
   Mihaly Kallay                                 : mrcc  (arbitrary order and MRCC methods)
   Andreas Klamt, Michael Diedenhofen            : otool_cosmo (COSMO solvation model)
   Jiri Pittner, Ondrej Demel                    : Mk-CCSD
   Frank Weinhold                                : gennbo (NPA and NBO analysis)
   Christopher J. Cramer and Donald G. Truhlar   : smd solvation model
   Lars Goerigk                                  : TD-DFT with DH, B97 family of functionals
   V. Asgeirsson, H. Jonsson                     : NEB implementation
   FAccTs GmbH                                   : IRC, NEB, NEB-TS, Multilevel, MM, QM/MM, CI optimization
   S Lehtola, MJT Oliveira, MAL Marques          : LibXC Library


 Your calculation uses the libint2 library for the computation of 2-el integrals
 For citations please refer to: http://libint.valeyev.net

 Your ORCA version has been built with support for libXC version: 4.2.3
 For citations please refer to: https://tddft.org/programs/libxc/

 This ORCA versions uses:
   CBLAS   interface :  Fast vector & matrix operations
   LAPACKE interface :  Fast linear algebra routines
   SCALAPACK package :  Parallel linear algebra routines




***************************************
The coordinates will be read from file: opt.xyz
***************************************


----- Orbital basis set information -----
Your calculation utilizes the basis: EPR-II
   V. Barone, in Recent Advances in Density Functional Methods, Part 1 (ed. D. P. Chong), World Scientific, Singapore, 1995, p. 287.

----- AuxJ basis set information -----
Your calculation utilizes the AutoAux generation procedure.
  G. L. Stoychev, A. A. Auer, F. Neese, J. Chem. Theory Comput. 13, 554 (2017)

----- AuxC basis set information -----
Your calculation utilizes the AutoAux generation procedure.
  G. L. Stoychev, A. A. Auer, F. Neese, J. Chem. Theory Comput. 13, 554 (2017)

----- AuxJK basis set information -----
Your calculation utilizes the AutoAux generation procedure.
  G. L. Stoychev, A. A. Auer, F. Neese, J. Chem. Theory Comput. 13, 554 (2017)

================================================================================
                                        WARNINGS
                       Please study these warnings very carefully!
================================================================================


WARNING: your system is open-shell and RHF/RKS was chosen
  ===> : WILL SWITCH to UHF/UKS


INFO   : the flag for use of LIBINT has been found!

================================================================================
                                       INPUT FILE
================================================================================
NAME = EPRII.inp
|  1> ! B3LYP EPR-II AUTOAUX
|  2> %pal nprocs 16 end
|  3> *XYZFile 0 2 opt.xyz
|  4> %EPRNMR
|  5>         GTENSOR   TRUE
|  6>         NUCLEI    = ALL H {AISO, ADIP, AORB}
|  7> END
|  8> 
|  9>                          ****END OF INPUT****
================================================================================

                       ****************************
                       * Single Point Calculation *
                       ****************************

---------------------------------
CARTESIAN COORDINATES (ANGSTROEM)
---------------------------------
  C     12.367592   -0.025121   -0.005055
  C     11.143516   -0.065571   -0.003091
  C      5.469965    0.000164   -0.000860
  C      9.724428   -0.085636   -0.001988
  C      8.990947   -1.332264   -0.004597
  C      7.571180   -1.234603   -0.004335
  C      6.897570   -0.010526   -0.001156
  C      7.633835    1.219230    0.001830
  C      9.025636    1.138500    0.001412
  H      6.976365   -2.148083   -0.006442
  H      9.618395    2.053009    0.003336
  C      9.648268   -2.580728   -0.006648
  H     10.741775   -2.570134   -0.006087
  C      8.962822   -3.914226   -0.008547
  H      8.289115   -3.996019    0.869672
  H      8.289579   -3.993943   -0.887314
  C      9.934837   -5.100882   -0.009597
  H     10.595360   -5.023915   -0.892993
  H     10.595356   -5.025429    0.873929
  C      9.227340   -6.456809   -0.010736
  H      8.583968   -6.572870   -0.900262
  H      8.584084   -6.574381    0.878675
  C      6.886556    2.536546    0.004661
  H      6.207286    2.549836   -0.868804
  H      6.210054    2.547844    0.880332
  C      7.730810    3.813338    0.004708
  H      8.395334    3.824131    0.888791
  H      8.393542    3.825194   -0.880701
  C      6.875218    5.085593    0.006284
  H      6.207746    5.076437   -0.875929
  H      6.209688    5.075624    0.889957
  C      7.706740    6.370139    0.005945
  H      8.357126    6.426652   -0.884294
  H      8.359148    6.425867    0.894756
  C      4.247408    0.005293    0.000069
  H      9.950429   -7.288043   -0.011486
  H      7.065522    7.266267    0.007061
  C      2.821725    0.006250    0.000155
  C      2.098345   -1.207100   -0.026231
  C      0.708294   -1.205940   -0.026298
  C     -0.010828    0.007844    0.000149
  C      0.709640    1.220907    0.026632
  C      2.099585    1.220396    0.026604
  H     -3.729805    0.011363    0.000138
  H      0.162122    2.164869    0.047653
  H      2.644831   -2.151614   -0.047263
  H      2.646650    2.164662    0.047708
  H      0.159786   -2.149317   -0.047298
  C     13.789982    0.030865   -0.006241
  C     14.563398   -1.152339   -0.033105
  C     15.951874   -1.094939   -0.034266
  C     16.621636    0.147027   -0.008504
  C     15.852075    1.329913    0.018385
  C     14.463678    1.273734    0.019439
  H     20.337203    0.302453   -0.011733
  H     16.361455    2.295067    0.038832
  H     14.057010   -2.119043   -0.053804
  H     13.878704    2.194834    0.040783
  H     16.537579   -2.015637   -0.055623
  C     18.051053    0.206171   -0.009795
  C     19.265622    0.256760   -0.010806
  C     -1.441726    0.008893    0.000141
  C     -2.657216    0.010219    0.000143

----------------------------
CARTESIAN COORDINATES (A.U.)
----------------------------
  NO LB      ZA    FRAG     MASS         X           Y           Z
   0 C     6.0000    0    12.011   23.371362   -0.047471   -0.009552
   1 C     6.0000    0    12.011   21.058193   -0.123911   -0.005841
   2 C     6.0000    0    12.011   10.336736    0.000310   -0.001625
   3 C     6.0000    0    12.011   18.376506   -0.161828   -0.003756
   4 C     6.0000    0    12.011   16.990427   -2.517614   -0.008686
   5 C     6.0000    0    12.011   14.307457   -2.333061   -0.008192
   6 C     6.0000    0    12.011   13.034519   -0.019890   -0.002184
   7 C     6.0000    0    12.011   14.425857    2.304010    0.003458
   8 C     6.0000    0    12.011   17.055979    2.151452    0.002669
   9 H     1.0000    0     1.008   13.183418   -4.059289   -0.012173
  10 H     1.0000    0     1.008   18.176132    3.879625    0.006305
  11 C     6.0000    0    12.011   18.232585   -4.876869   -0.012562
  12 H     1.0000    0     1.008   20.299013   -4.856849   -0.011503
  13 C     6.0000    0    12.011   16.937280   -7.396815   -0.016151
  14 H     1.0000    0     1.008   15.664156   -7.551381    1.643442
  15 H     1.0000    0     1.008   15.665035   -7.547458   -1.676780
  16 C     6.0000    0    12.011   18.774121   -9.639270   -0.018135
  17 H     1.0000    0     1.008   20.022328   -9.493823   -1.687513
  18 H     1.0000    0     1.008   20.022321   -9.496684    1.651487
  19 C     6.0000    0    12.011   17.437146  -12.201600   -0.020287
  20 H     1.0000    0     1.008   16.221348  -12.420925   -1.701249
  21 H     1.0000    0     1.008   16.221567  -12.423779    1.660455
  22 C     6.0000    0    12.011   13.013705    4.793377    0.008809
  23 H     1.0000    0     1.008   11.730071    4.818492   -1.641801
  24 H     1.0000    0     1.008   11.735301    4.814728    1.663587
  25 C     6.0000    0    12.011   14.609114    7.206164    0.008897
  26 H     1.0000    0     1.008   15.864881    7.226561    1.679572
  27 H     1.0000    0     1.008   15.861495    7.228569   -1.664283
  28 C     6.0000    0    12.011   12.992279    9.610378    0.011874
  29 H     1.0000    0     1.008   11.730940    9.593075   -1.655266
  30 H     1.0000    0     1.008   11.734610    9.591539    1.681775
  31 C     6.0000    0    12.011   14.563628   12.037819    0.011234
  32 H     1.0000    0     1.008   15.792680   12.144612   -1.671073
  33 H     1.0000    0     1.008   15.796500   12.143128    1.690845
  34 C     6.0000    0    12.011    8.026438    0.010002    0.000130
  35 H     1.0000    0     1.008   18.803586  -13.772405   -0.021705
  36 H     1.0000    0     1.008   13.351902   13.731255    0.013343
  37 C     6.0000    0    12.011    5.332288    0.011811    0.000294
  38 C     6.0000    0    12.011    3.965297   -2.281088   -0.049569
  39 C     6.0000    0    12.011    1.338481   -2.278895   -0.049696
  40 C     6.0000    0    12.011   -0.020462    0.014823    0.000282
  41 C     6.0000    0    12.011    1.341026    2.307180    0.050328
  42 C     6.0000    0    12.011    3.967640    2.306215    0.050274
  43 H     1.0000    0     1.008   -7.048309    0.021473    0.000260
  44 H     1.0000    0     1.008    0.306367    4.091009    0.090051
  45 H     1.0000    0     1.008    4.998006   -4.065962   -0.089314
  46 H     1.0000    0     1.008    5.001444    4.090618    0.090156
  47 H     1.0000    0     1.008    0.301951   -4.061620   -0.089381
  48 C     6.0000    0    12.011   26.059289    0.058327   -0.011794
  49 C     6.0000    0    12.011   27.520834   -2.177605   -0.062559
  50 C     6.0000    0    12.011   30.144673   -2.069134   -0.064754
  51 C     6.0000    0    12.011   31.410341    0.277840   -0.016070
  52 C     6.0000    0    12.011   29.956080    2.513171    0.034742
  53 C     6.0000    0    12.011   27.332390    2.407009    0.036735
  54 H     1.0000    0     1.008   38.431745    0.571552   -0.022172
  55 H     1.0000    0     1.008   30.918669    4.337047    0.073382
  56 H     1.0000    0     1.008   26.563899   -4.004411   -0.101676
  57 H     1.0000    0     1.008   26.226949    4.147636    0.077069
  58 H     1.0000    0     1.008   31.251496   -3.809002   -0.105113
  59 C     6.0000    0    12.011   34.111547    0.389607   -0.018509
  60 C     6.0000    0    12.011   36.406749    0.485206   -0.020420
  61 C     6.0000    0    12.011   -2.724467    0.016804    0.000267
  62 C     6.0000    0    12.011   -5.021410    0.019311    0.000270

--------------------------------
INTERNAL COORDINATES (ANGSTROEM)
--------------------------------
 C      0   0   0     0.000000000000     0.00000000     0.00000000
 C      1   0   0     1.224745957891     0.00000000     0.00000000
 C      2   1   0     5.673932187474   177.44255756     0.00000000
 C      2   1   3     1.419230016468   178.91633525     0.95116734
 C      4   2   1     1.446403787017   121.28127283   177.34690187
 C      5   4   2     1.423121441889   116.53630059   180.05151761
 C      6   5   4     1.397184887241   122.75893800   359.97254005
 C      7   6   5     1.433315338501   120.26683998     0.00000000
 C      8   7   6     1.394140055711   117.58953501     0.00000000
 H      6   5   4     1.090071931741   119.13520003   179.98814308
 H      9   8   7     1.089813987112   119.63041169   179.98251657
 C      5   4   2     1.410935125707   121.76171455     0.08094689
 H     12   5   4     1.093558284207   117.21182552     0.00000000
 C     12   5   4     1.499351840827   125.02894282   179.96026277
 H     14  12   5     1.109883348515   110.00128825   302.64339252
 H     14  12   5     1.109883631949   110.01046723    57.42119819
 C     14  12   5     1.533938138315   113.47430760   180.03959354
 H     17  14  12     1.105714340950   108.97987194   302.30500191
 H     17  14  12     1.105710975256   108.97770519    57.63356097
 C     17  14  12     1.529408279507   113.12372701   179.96754281
 H     20  17  14     1.103927564631   111.30984695    59.86476478
 H     20  17  14     1.103926400054   111.30768517   300.13198240
 C      8   7   6     1.514515135056   119.52571167   179.97422192
 H     23   8   7     1.106582672339   108.17063914   303.83578800
 H     23   8   7     1.106608447990   108.17960601    56.40940097
 C     23   8   7     1.530673801407   116.96093755   180.12900104
 H     26  23   8     1.106033786353   109.84941389   301.69019857
 H     26  23   8     1.106030068437   109.84087964    58.20775548
 C     26  23   8     1.533190689614   112.60523723   179.94374157
 H     29  26  23     1.106301027429   109.20825605   302.32540317
 H     29  26  23     1.106303705046   109.21129326    57.70392984
 C     29  26  23     1.530192107677   113.16304059   180.01638374
 H     32  29  26     1.103956721307   111.30281520    59.86589868
 H     32  29  26     1.103960020777   111.30527074   300.13244450
 C      3   2   1     1.222568191076   179.57604189   181.28432800
 H     20  17  14     1.101729533983   111.42539137   179.99925957
 H     32  29  26     1.101910663345   111.49855809   179.99791384
 C     35   3   7     1.425682997822   179.79417030   339.25188791
 C     38  35   3     1.412867227940   120.75822702     9.97605705
 C     39  38  35     1.390051523434   120.74901628   180.00750554
 C     40  39  38     1.411065301303   120.68696321     0.00000000
 C     41  40  39     1.411133785139   118.65966676     0.00000000
 C     42  41  40     1.389944205980   120.68005546     0.00000000
 H     41  40  39     3.718978633115   120.69340533   180.00286211
 H     42  41  40     1.091458530797   119.19037617   180.02716486
 H     39  38  35     1.091419727472   119.15615109   359.97345899
 H     43  42  41     1.091495862177   120.05882902   180.02969477
 H     40  39  38     1.091449981074   120.12110349   179.97050332
 C      1   2   4     1.423491488431   179.63598276     9.47069556
 C     49   1   2     1.413812736343   120.91197202   174.27309968
 C     50  49   1     1.389662654543   120.79874529   179.99696230
 C     51  50  49     1.411284200668   120.69750779     0.00000000
 C     52  51  50     1.411441999179   118.62769180     0.00000000
 C     53  52  51     1.389533331421   120.72487005     0.00000000
 H     52  51  50     3.718817658966   120.72552706   180.00287027
 H     53  52  51     1.091516165510   119.14101731   179.97545654
 H     50  49   1     1.091500871228   119.19411146     0.04019211
 H     54  53  52     1.091364264197   120.09641370   179.97392966
 H     51  50  49     1.091417413007   120.09004746   180.02918214
 C     52  51  50     1.430640334209   120.69951375   180.00447019
 C     55  52  51     1.072555675039     0.04629964   359.02884181
 C     41  40  39     1.430898283939   120.68118385   180.00300651
 C     44  41  40     1.072589613088     0.00687605     2.12526547

---------------------------
INTERNAL COORDINATES (A.U.)
---------------------------
 C      0   0   0     0.000000000000     0.00000000     0.00000000
 C      1   0   0     2.314434444042     0.00000000     0.00000000
 C      2   1   0    10.722177936767   177.44255756     0.00000000
 C      2   1   3     2.681956052166   178.91633525     0.95116734
 C      4   2   1     2.733307036528   121.28127283   177.34690187
 C      5   4   2     2.689309780481   116.53630059   180.05151761
 C      6   5   4     2.640296795340   122.75893800   359.97254005
 C      7   6   5     2.708573453316   120.26683998     0.00000000
 C      8   7   6     2.634542897624   117.58953501     0.00000000
 H      6   5   4     2.059937417265   119.13520003   179.98814308
 H      9   8   7     2.059449972559   119.63041169   179.98251657
 C      5   4   2     2.666280980315   121.76171455     0.08094689
 H     12   5   4     2.066525668632   117.21182552     0.00000000
 C     12   5   4     2.833364357554   125.02894282   179.96026277
 H     14  12   5     2.097375569294   110.00128825   302.64339252
 H     14  12   5     2.097376104906   110.01046723    57.42119819
 C     14  12   5     2.898722987793   113.47430760   180.03959354
 H     17  14  12     2.089497286746   108.97987194   302.30500191
 H     17  14  12     2.089490926505   108.97770519    57.63356097
 C     17  14  12     2.890162795220   113.12372701   179.96754281
 H     20  17  14     2.086120768840   111.30984695    59.86476478
 H     20  17  14     2.086118568108   111.30768517   300.13198240
 C      8   7   6     2.862018830934   119.52571167   179.97422192
 H     23   8   7     2.091138195264   108.17063914   303.83578800
 H     23   8   7     2.091186904185   108.17960601    56.40940097
 C     23   8   7     2.892554285028   116.96093755   180.12900104
 H     26  23   8     2.090100951071   109.84941389   301.69019857
 H     26  23   8     2.090093925229   109.84087964    58.20775548
 C     26  23   8     2.897310514448   112.60523723   179.94374157
 H     29  26  23     2.090605963517   109.20825605   302.32540317
 H     29  26  23     2.090611023478   109.21129326    57.70392984
 C     29  26  23     2.891644015798   113.16304059   180.01638374
 H     32  29  26     2.086175866971   111.30281520    59.86589868
 H     32  29  26     2.086182102067   111.30527074   300.13244450
 C      3   2   1     2.310319061177   179.57604189   181.28432800
 H     20  17  14     2.081967092881   111.42539137   179.99925957
 H     32  29  26     2.082309377770   111.49855809   179.99791384
 C     35   3   7     2.694150419671   179.79417030   339.25188791
 C     38  35   3     2.669932124399   120.75822702     9.97605705
 C     39  38  35     2.626816691331   120.74901628   180.00750554
 C     40  39  38     2.666526976541   120.68696321     0.00000000
 C     41  40  39     2.666656392237   118.65966676     0.00000000
 C     42  41  40     2.626613890732   120.68005546     0.00000000
 H     41  40  39     7.027851114492   120.69340533   180.00286211
 H     42  41  40     2.062557709739   119.19037617   180.02716486
 H     39  38  35     2.062484382081   119.15615109   359.97345899
 H     43  42  41     2.062628255823   120.05882902   180.02969477
 H     40  39  38     2.062541553103   120.12110349   179.97050332
 C      1   2   4     2.690009067103   179.63598276     9.47069556
 C     49   1   2     2.671718876338   120.91197202   174.27309968
 C     50  49   1     2.626081835625   120.79874529   179.99696230
 C     51  50  49     2.666940636393   120.69750779     0.00000000
 C     52  51  50     2.667238832362   118.62769180     0.00000000
 C     53  52  51     2.625837450342   120.72487005     0.00000000
 H     52  51  50     7.027546917437   120.72552706   180.00287027
 H     53  52  51     2.062666623561   119.14101731   179.97545654
 H     50  49   1     2.062637721557   119.19411146     0.04019211
 H     54  53  52     2.062379571681   120.09641370   179.97392966
 H     51  50  49     2.062480008376   120.09004746   180.02918214
 C     52  51  50     2.703518427797   120.69951375   180.00447019
 C     55  52  51     2.026836489206     0.04629964   359.02884181
 C     41  40  39     2.704005882143   120.68118385   180.00300651
 C     44  41  40     2.026900622824     0.00687605     2.12526547

---------------------
BASIS SET INFORMATION
---------------------
There are 2 groups of distinct atoms

 Group   1 Type C   : 10s5p1d contracted to 6s2p1d pattern {511111/41/1}
 Group   2 Type H   : 6s1p contracted to 4s1p pattern {3111/1}

Atom   0C    basis set group =>   1
Atom   1C    basis set group =>   1
Atom   2C    basis set group =>   1
Atom   3C    basis set group =>   1
Atom   4C    basis set group =>   1
Atom   5C    basis set group =>   1
Atom   6C    basis set group =>   1
Atom   7C    basis set group =>   1
Atom   8C    basis set group =>   1
Atom   9H    basis set group =>   2
Atom  10H    basis set group =>   2
Atom  11C    basis set group =>   1
Atom  12H    basis set group =>   2
Atom  13C    basis set group =>   1
Atom  14H    basis set group =>   2
Atom  15H    basis set group =>   2
Atom  16C    basis set group =>   1
Atom  17H    basis set group =>   2
Atom  18H    basis set group =>   2
Atom  19C    basis set group =>   1
Atom  20H    basis set group =>   2
Atom  21H    basis set group =>   2
Atom  22C    basis set group =>   1
Atom  23H    basis set group =>   2
Atom  24H    basis set group =>   2
Atom  25C    basis set group =>   1
Atom  26H    basis set group =>   2
Atom  27H    basis set group =>   2
Atom  28C    basis set group =>   1
Atom  29H    basis set group =>   2
Atom  30H    basis set group =>   2
Atom  31C    basis set group =>   1
Atom  32H    basis set group =>   2
Atom  33H    basis set group =>   2
Atom  34C    basis set group =>   1
Atom  35H    basis set group =>   2
Atom  36H    basis set group =>   2
Atom  37C    basis set group =>   1
Atom  38C    basis set group =>   1
Atom  39C    basis set group =>   1
Atom  40C    basis set group =>   1
Atom  41C    basis set group =>   1
Atom  42C    basis set group =>   1
Atom  43H    basis set group =>   2
Atom  44H    basis set group =>   2
Atom  45H    basis set group =>   2
Atom  46H    basis set group =>   2
Atom  47H    basis set group =>   2
Atom  48C    basis set group =>   1
Atom  49C    basis set group =>   1
Atom  50C    basis set group =>   1
Atom  51C    basis set group =>   1
Atom  52C    basis set group =>   1
Atom  53C    basis set group =>   1
Atom  54H    basis set group =>   2
Atom  55H    basis set group =>   2
Atom  56H    basis set group =>   2
Atom  57H    basis set group =>   2
Atom  58H    basis set group =>   2
Atom  59C    basis set group =>   1
Atom  60C    basis set group =>   1
Atom  61C    basis set group =>   1
Atom  62C    basis set group =>   1
---------------------------------
AUXILIARY/J BASIS SET INFORMATION
---------------------------------
There are 2 groups of distinct atoms

 Group   1 Type C   : 17s13p12d2f contracted to 17s13p12d2f pattern {11111111111111111/1111111111111/111111111111/11}
 Group   2 Type H   : 15s6p1d contracted to 15s6p1d pattern {111111111111111/111111/1}

Atom   0C    basis set group =>   1
Atom   1C    basis set group =>   1
Atom   2C    basis set group =>   1
Atom   3C    basis set group =>   1
Atom   4C    basis set group =>   1
Atom   5C    basis set group =>   1
Atom   6C    basis set group =>   1
Atom   7C    basis set group =>   1
Atom   8C    basis set group =>   1
Atom   9H    basis set group =>   2
Atom  10H    basis set group =>   2
Atom  11C    basis set group =>   1
Atom  12H    basis set group =>   2
Atom  13C    basis set group =>   1
Atom  14H    basis set group =>   2
Atom  15H    basis set group =>   2
Atom  16C    basis set group =>   1
Atom  17H    basis set group =>   2
Atom  18H    basis set group =>   2
Atom  19C    basis set group =>   1
Atom  20H    basis set group =>   2
Atom  21H    basis set group =>   2
Atom  22C    basis set group =>   1
Atom  23H    basis set group =>   2
Atom  24H    basis set group =>   2
Atom  25C    basis set group =>   1
Atom  26H    basis set group =>   2
Atom  27H    basis set group =>   2
Atom  28C    basis set group =>   1
Atom  29H    basis set group =>   2
Atom  30H    basis set group =>   2
Atom  31C    basis set group =>   1
Atom  32H    basis set group =>   2
Atom  33H    basis set group =>   2
Atom  34C    basis set group =>   1
Atom  35H    basis set group =>   2
Atom  36H    basis set group =>   2
Atom  37C    basis set group =>   1
Atom  38C    basis set group =>   1
Atom  39C    basis set group =>   1
Atom  40C    basis set group =>   1
Atom  41C    basis set group =>   1
Atom  42C    basis set group =>   1
Atom  43H    basis set group =>   2
Atom  44H    basis set group =>   2
Atom  45H    basis set group =>   2
Atom  46H    basis set group =>   2
Atom  47H    basis set group =>   2
Atom  48C    basis set group =>   1
Atom  49C    basis set group =>   1
Atom  50C    basis set group =>   1
Atom  51C    basis set group =>   1
Atom  52C    basis set group =>   1
Atom  53C    basis set group =>   1
Atom  54H    basis set group =>   2
Atom  55H    basis set group =>   2
Atom  56H    basis set group =>   2
Atom  57H    basis set group =>   2
Atom  58H    basis set group =>   2
Atom  59C    basis set group =>   1
Atom  60C    basis set group =>   1
Atom  61C    basis set group =>   1
Atom  62C    basis set group =>   1
---------------------------------
AUXILIARY/C BASIS SET INFORMATION
---------------------------------
There are 2 groups of distinct atoms

 Group   1 Type C   : 17s13p12d2f contracted to 17s13p12d2f pattern {11111111111111111/1111111111111/111111111111/11}
 Group   2 Type H   : 15s6p1d contracted to 15s6p1d pattern {111111111111111/111111/1}

Atom   0C    basis set group =>   1
Atom   1C    basis set group =>   1
Atom   2C    basis set group =>   1
Atom   3C    basis set group =>   1
Atom   4C    basis set group =>   1
Atom   5C    basis set group =>   1
Atom   6C    basis set group =>   1
Atom   7C    basis set group =>   1
Atom   8C    basis set group =>   1
Atom   9H    basis set group =>   2
Atom  10H    basis set group =>   2
Atom  11C    basis set group =>   1
Atom  12H    basis set group =>   2
Atom  13C    basis set group =>   1
Atom  14H    basis set group =>   2
Atom  15H    basis set group =>   2
Atom  16C    basis set group =>   1
Atom  17H    basis set group =>   2
Atom  18H    basis set group =>   2
Atom  19C    basis set group =>   1
Atom  20H    basis set group =>   2
Atom  21H    basis set group =>   2
Atom  22C    basis set group =>   1
Atom  23H    basis set group =>   2
Atom  24H    basis set group =>   2
Atom  25C    basis set group =>   1
Atom  26H    basis set group =>   2
Atom  27H    basis set group =>   2
Atom  28C    basis set group =>   1
Atom  29H    basis set group =>   2
Atom  30H    basis set group =>   2
Atom  31C    basis set group =>   1
Atom  32H    basis set group =>   2
Atom  33H    basis set group =>   2
Atom  34C    basis set group =>   1
Atom  35H    basis set group =>   2
Atom  36H    basis set group =>   2
Atom  37C    basis set group =>   1
Atom  38C    basis set group =>   1
Atom  39C    basis set group =>   1
Atom  40C    basis set group =>   1
Atom  41C    basis set group =>   1
Atom  42C    basis set group =>   1
Atom  43H    basis set group =>   2
Atom  44H    basis set group =>   2
Atom  45H    basis set group =>   2
Atom  46H    basis set group =>   2
Atom  47H    basis set group =>   2
Atom  48C    basis set group =>   1
Atom  49C    basis set group =>   1
Atom  50C    basis set group =>   1
Atom  51C    basis set group =>   1
Atom  52C    basis set group =>   1
Atom  53C    basis set group =>   1
Atom  54H    basis set group =>   2
Atom  55H    basis set group =>   2
Atom  56H    basis set group =>   2
Atom  57H    basis set group =>   2
Atom  58H    basis set group =>   2
Atom  59C    basis set group =>   1
Atom  60C    basis set group =>   1
Atom  61C    basis set group =>   1
Atom  62C    basis set group =>   1
----------------------------------
AUXILIARY/JK BASIS SET INFORMATION
----------------------------------
There are 2 groups of distinct atoms

 Group   1 Type C   : 17s13p12d2f contracted to 17s13p12d2f pattern {11111111111111111/1111111111111/111111111111/11}
 Group   2 Type H   : 15s6p1d contracted to 15s6p1d pattern {111111111111111/111111/1}

Atom   0C    basis set group =>   1
Atom   1C    basis set group =>   1
Atom   2C    basis set group =>   1
Atom   3C    basis set group =>   1
Atom   4C    basis set group =>   1
Atom   5C    basis set group =>   1
Atom   6C    basis set group =>   1
Atom   7C    basis set group =>   1
Atom   8C    basis set group =>   1
Atom   9H    basis set group =>   2
Atom  10H    basis set group =>   2
Atom  11C    basis set group =>   1
Atom  12H    basis set group =>   2
Atom  13C    basis set group =>   1
Atom  14H    basis set group =>   2
Atom  15H    basis set group =>   2
Atom  16C    basis set group =>   1
Atom  17H    basis set group =>   2
Atom  18H    basis set group =>   2
Atom  19C    basis set group =>   1
Atom  20H    basis set group =>   2
Atom  21H    basis set group =>   2
Atom  22C    basis set group =>   1
Atom  23H    basis set group =>   2
Atom  24H    basis set group =>   2
Atom  25C    basis set group =>   1
Atom  26H    basis set group =>   2
Atom  27H    basis set group =>   2
Atom  28C    basis set group =>   1
Atom  29H    basis set group =>   2
Atom  30H    basis set group =>   2
Atom  31C    basis set group =>   1
Atom  32H    basis set group =>   2
Atom  33H    basis set group =>   2
Atom  34C    basis set group =>   1
Atom  35H    basis set group =>   2
Atom  36H    basis set group =>   2
Atom  37C    basis set group =>   1
Atom  38C    basis set group =>   1
Atom  39C    basis set group =>   1
Atom  40C    basis set group =>   1
Atom  41C    basis set group =>   1
Atom  42C    basis set group =>   1
Atom  43H    basis set group =>   2
Atom  44H    basis set group =>   2
Atom  45H    basis set group =>   2
Atom  46H    basis set group =>   2
Atom  47H    basis set group =>   2
Atom  48C    basis set group =>   1
Atom  49C    basis set group =>   1
Atom  50C    basis set group =>   1
Atom  51C    basis set group =>   1
Atom  52C    basis set group =>   1
Atom  53C    basis set group =>   1
Atom  54H    basis set group =>   2
Atom  55H    basis set group =>   2
Atom  56H    basis set group =>   2
Atom  57H    basis set group =>   2
Atom  58H    basis set group =>   2
Atom  59C    basis set group =>   1
Atom  60C    basis set group =>   1
Atom  61C    basis set group =>   1
Atom  62C    basis set group =>   1


           ************************************************************
           *        Program running with 16 parallel MPI-processes    *
           *              working on a common directory               *
           ************************************************************
------------------------------------------------------------------------------
                           ORCA GTO INTEGRAL CALCULATION
------------------------------------------------------------------------------

                         BASIS SET STATISTICS AND STARTUP INFO

 # of primitive gaussian shells          ...  747
 # of primitive gaussian functions       ... 1281
 # of contracted shells                  ...  451
 # of contracted basis functions         ...  781
 Highest angular momentum                ...    2
 Maximum contraction depth               ...    5
 Integral package used                   ... LIBINT
 Integral threshhold            Thresh   ...  1.000e-10
 Primitive cut-off              TCut     ...  1.000e-11


------------------------------ INTEGRAL EVALUATION ----------------------------


 * One electron integrals 
 Pre-screening matrix                    ... done
 Shell pair data                         ... done (   0.017 sec)



           ************************************************************
           *        Program running with 16 parallel MPI-processes    *
           *              working on a common directory               *
           ************************************************************
-------------------------------------------------------------------------------
                                 ORCA SCF
-------------------------------------------------------------------------------

------------
SCF SETTINGS
------------
Hamiltonian:
 Density Functional     Method          .... DFT(GTOs)
 Exchange Functional    Exchange        .... B88
   X-Alpha parameter    XAlpha          ....  0.666667
   Becke's b parameter  XBeta           ....  0.004200
 Correlation Functional Correlation     .... LYP
 LDA part of GGA corr.  LDAOpt          .... VWN-5
 Gradients option       PostSCFGGA      .... off
 Hybrid DFT is turned on
   Fraction HF Exchange ScalHFX         ....  0.200000
   Scaling of DF-GGA-X  ScalDFX         ....  0.720000
   Scaling of DF-GGA-C  ScalDFC         ....  0.810000
   Scaling of DF-LDA-C  ScalLDAC        ....  1.000000
   Perturbative correction              ....  0.000000
   Density functional embedding theory  .... OFF
   NL short-range parameter             ....  4.800000


General Settings:
 Integral files         IntName         .... EPRII
 Hartree-Fock type      HFTyp           .... UHF
 Total Charge           Charge          ....    0
 Multiplicity           Mult            ....    2
 Number of Electrons    NEL             ....  233
 Basis Dimension        Dim             ....  781
 Nuclear Repulsion      ENuc            ....   2736.0161529552 Eh

Convergence Acceleration:
 DIIS                   CNVDIIS         .... on
   Start iteration      DIISMaxIt       ....    12
   Startup error        DIISStart       ....  0.200000
   # of expansion vecs  DIISMaxEq       ....     5
   Bias factor          DIISBfac        ....   1.050
   Max. coefficient     DIISMaxC        ....  10.000
 Newton-Raphson         CNVNR           .... off
 SOSCF                  CNVSOSCF        .... off
 Level Shifting         CNVShift        .... on
   Level shift para.    LevelShift      ....    0.2500
   Turn off err/grad.   ShiftErr        ....    0.0010
 Zerner damping         CNVZerner       .... off
 Static damping         CNVDamp         .... on
   Fraction old density DampFac         ....    0.7000
   Max. Damping (<1)    DampMax         ....    0.9800
   Min. Damping (>=0)   DampMin         ....    0.0000
   Turn off err/grad.   DampErr         ....    0.1000
 Fernandez-Rico         CNVRico         .... off

SCF Procedure:
 Maximum # iterations   MaxIter         ....   125
 SCF integral mode      SCFMode         .... Direct
   Integral package                     .... LIBINT
 Reset frequency        DirectResetFreq ....    20
 Integral Threshold     Thresh          ....  1.000e-10 Eh
 Primitive CutOff       TCut            ....  1.000e-11 Eh

Convergence Tolerance:
 Convergence Check Mode ConvCheckMode   .... Total+1el-Energy
 Convergence forced     ConvForced      .... 0
 Energy Change          TolE            ....  1.000e-06 Eh
 1-El. energy change                    ....  1.000e-03 Eh
 DIIS Error             TolErr          ....  1.000e-06


Diagonalization of the overlap matrix:
Smallest eigenvalue                        ... 3.566e-05
Time for diagonalization                   ...    0.149 sec
Threshold for overlap eigenvalues          ... 1.000e-08
Number of eigenvalues below threshold      ... 0
Time for construction of square roots      ...    0.104 sec
Total time needed                          ...    0.260 sec

-------------------
DFT GRID GENERATION
-------------------

General Integration Accuracy     IntAcc      ...  4.340
Radial Grid Type                 RadialGrid  ... Gauss-Chebyshev
Angular Grid (max. acc.)         AngularGrid ... Lebedev-110
Angular grid pruning method      GridPruning ... 3 (G Style)
Weight generation scheme         WeightScheme... Becke
Basis function cutoff            BFCut       ...    1.0000e-10
Integration weight cutoff        WCut        ...    1.0000e-14
Grids for H and He will be reduced by one unit

# of grid points (after initial pruning)     ...  79330 (   0.0 sec)
# of grid points (after weights+screening)   ...  70760 (   0.2 sec)
nearest neighbour list constructed           ...    0.0 sec
Grid point re-assignment to atoms done       ...    0.0 sec
Grid point division into batches done        ...    0.1 sec
Reduced shell lists constructed in    0.2 sec

Total number of grid points                  ...    70760
Total number of batches                      ...     1133
Average number of points per batch           ...       62
Average number of grid points per atom       ...     1123
Average number of shells per batch           ...   141.17 (31.30%)
Average number of basis functions per batch  ...   270.42 (34.62%)
Average number of large shells per batch     ...    90.28 (63.95%)
Average number of large basis fcns per batch ...   172.94 (63.95%)
Maximum spatial batch extension              ...   3.46,  7.17, 20.28 au
Average spatial batch extension              ...   0.12,  0.15,  0.24 au

Time for grid setup =    0.472 sec

------------------------------
INITIAL GUESS: MODEL POTENTIAL
------------------------------
Loading Hartree-Fock densities                     ... done
Calculating cut-offs                               ... done
Setting up the integral package                    ... done
Initializing the effective Hamiltonian             ... done
Starting the Coulomb interaction                   ... done (   0.3 sec)
Reading the grid                                   ... done
Mapping shells                                     ... done
Starting the XC term evaluation                    ... done (   0.2 sec)
  promolecular density results
     # of electrons  =    233.018622230
     EX              =   -183.186989884
     EC              =     -7.721731595
     EX+EC           =   -190.908721479
Transforming the Hamiltonian                       ... done (   0.1 sec)
Diagonalizing the Hamiltonian                      ... done (   0.2 sec)
Back transforming the eigenvectors                 ... done (   0.0 sec)
Now organizing SCF variables                       ... done
                      ------------------
                      INITIAL GUESS DONE (   1.5 sec)
                      ------------------
--------------
SCF ITERATIONS
--------------
ITER       Energy         Delta-E        Max-DP      RMS-DP      [F,P]     Damp
               ***  Starting incremental Fock matrix formation  ***
  0  -1311.4697600531   0.000000000000 0.22266038  0.00116933  0.1586196 0.7000
  1  -1311.7544278008  -0.284667747737 0.13070410  0.00076244  0.0848082 0.7000
                               ***Turning on DIIS***
  2  -1311.8880644601  -0.133636659259 0.26273193  0.00155165  0.0328022 0.0000
  3  -1312.0779050532  -0.189840593105 0.02480954  0.00029411  0.0466257 0.0000
  4  -1312.1252705576  -0.047365504389 0.02352813  0.00014721  0.0083929 0.0000
  5  -1312.1276915202  -0.002420962616 0.01433961  0.00007280  0.0025903 0.0000
  6  -1312.1280626025  -0.000371082354 0.00529216  0.00002823  0.0014087 0.0000
  7  -1312.1282066627  -0.000144060150 0.00291488  0.00001322  0.0010656 0.0000
  8  -1312.1282900807  -0.000083418052 0.00542264  0.00002059  0.0008190 0.0000
  9  -1312.1284042738  -0.000114193048 0.00199829  0.00000831  0.0003732 0.0000
 10  -1312.1284279069  -0.000023633084 0.00150092  0.00000482  0.0002227 0.0000
 11  -1312.1284357168  -0.000007809984 0.00059341  0.00000223  0.0002119 0.0000
 12  -1312.1284381663  -0.000002449427 0.00038769  0.00000143  0.0001310 0.0000
 13  -1312.1284393953  -0.000001229047 0.00032159  0.00000111  0.0000615 0.0000
                 **** Energy Check signals convergence ****

               *****************************************************
               *                     SUCCESS                       *
               *           SCF CONVERGED AFTER  14 CYCLES          *
               *****************************************************

Setting up the final grid:

General Integration Accuracy     IntAcc      ...  4.670
Radial Grid Type                 RadialGrid  ... Gauss-Chebyshev
Angular Grid (max. acc.)         AngularGrid ... Lebedev-302
Angular grid pruning method      GridPruning ... 3 (G Style)
Weight generation scheme         WeightScheme... Becke
Basis function cutoff            BFCut       ...    1.0000e-10
Integration weight cutoff        WCut        ...    1.0000e-14
Grids for H and He will be reduced by one unit

# of grid points (after initial pruning)     ... 309634 (   0.0 sec)
# of grid points (after weights+screening)   ... 270969 (   0.7 sec)
nearest neighbour list constructed           ...    0.0 sec
Grid point re-assignment to atoms done       ...    0.1 sec
Grid point division into batches done        ...    1.0 sec
Reduced shell lists constructed in    1.5 sec

Total number of grid points                  ...   270969
Total number of batches                      ...     4269
Average number of points per batch           ...       63
Average number of grid points per atom       ...     4301
Average number of shells per batch           ...   132.18 (29.31%)
Average number of basis functions per batch  ...   251.49 (32.20%)
Average number of large shells per batch     ...    84.16 (63.67%)
Average number of large basis fcns per batch ...   159.82 (63.55%)
Maximum spatial batch extension              ...   6.28,  9.13, 26.50 au
Average spatial batch extension              ...   0.09,  0.10,  0.13 au

Final grid set up in    2.3 sec
Final integration                            ... done (   1.1 sec)
Change in XC energy                          ...     0.001296215
Integrated number of electrons               ...   232.999914086
Previous integrated no of electrons          ...   233.021614247

----------------
TOTAL SCF ENERGY
----------------

Total Energy       :        -1312.12714392 Eh          -35704.79478 eV

Components:
Nuclear Repulsion  :         2736.01615296 Eh           74450.78453 eV
Electronic Energy  :        -4048.14329688 Eh         -110155.57931 eV
One Electron Energy:        -7207.80996460 Eh         -196134.48042 eV
Two Electron Energy:         3159.66666772 Eh           85978.90111 eV

Virial components:
Potential Energy   :        -2613.76273995 Eh          -71124.10003 eV
Kinetic Energy     :         1301.63559602 Eh           35419.30525 eV
Virial Ratio       :            2.00806028


DFT components:
N(Alpha)           :      116.999968339042 electrons
N(Beta)            :      115.999945746564 electrons
N(Total)           :      232.999914085606 electrons
E(X)               :     -147.725355912705 Eh       
E(C)               :       -9.124260827456 Eh       
E(XC)              :     -156.849616740161 Eh       
DFET-embed. en.    :        0.000000000000 Eh       

---------------
SCF CONVERGENCE
---------------

  Last Energy change         ...   -7.4450e-07  Tolerance :   1.0000e-06
  Last MAX-Density change    ...    2.0240e-04  Tolerance :   1.0000e-05
  Last RMS-Density change    ...    1.0278e-06  Tolerance :   1.0000e-06
  Last DIIS Error            ...    3.0559e-05  Tolerance :   1.0000e-06

             **** THE GBW FILE WAS UPDATED (EPRII.gbw) ****
             **** DENSITY FILE WAS UPDATED (EPRII.scfp) ****
             **** ENERGY FILE WAS UPDATED (EPRII.en.tmp) ****
----------------------
UHF SPIN CONTAMINATION
----------------------

Warning: in a DFT calculation there is little theoretical justification to 
         calculate <S**2> as in Hartree-Fock theory. We will do it anyways
         but you should keep in mind that the values have only limited relevance

Expectation value of <S**2>     :     0.787883
Ideal value S*(S+1) for S=0.5   :     0.750000
Deviation                       :     0.037883

             **** THE GBW FILE WAS UPDATED (EPRII.gbw) ****
             **** DENSITY FILE WAS UPDATED (EPRII.scfp) ****
----------------
ORBITAL ENERGIES
----------------
                 SPIN UP ORBITALS
  NO   OCC          E(Eh)            E(eV) 
   0   1.0000     -10.235494      -278.5219 
   1   1.0000     -10.235072      -278.5105 
   2   1.0000     -10.233738      -278.4742 
   3   1.0000     -10.233488      -278.4674 
   4   1.0000     -10.227423      -278.3023 
   5   1.0000     -10.225565      -278.2518 
   6   1.0000     -10.214986      -277.9639 
   7   1.0000     -10.213474      -277.9228 
   8   1.0000     -10.213390      -277.9205 
   9   1.0000     -10.212548      -277.8976 
  10   1.0000     -10.212395      -277.8934 
  11   1.0000     -10.211960      -277.8816 
  12   1.0000     -10.211817      -277.8777 
  13   1.0000     -10.211673      -277.8738 
  14   1.0000     -10.211500      -277.8690 
  15   1.0000     -10.211131      -277.8590 
  16   1.0000     -10.210847      -277.8513 
  17   1.0000     -10.210063      -277.8299 
  18   1.0000     -10.208118      -277.7770 
  19   1.0000     -10.206976      -277.7459 
  20   1.0000     -10.205863      -277.7156 
  21   1.0000     -10.205323      -277.7010 
  22   1.0000     -10.204761      -277.6857 
  23   1.0000     -10.203513      -277.6517 
  24   1.0000     -10.202560      -277.6258 
  25   1.0000     -10.202174      -277.6153 
  26   1.0000     -10.200279      -277.5637 
  27   1.0000     -10.193383      -277.3760 
  28   1.0000     -10.191771      -277.3322 
  29   1.0000     -10.188363      -277.2394 
  30   1.0000     -10.185811      -277.1700 
  31   1.0000     -10.185434      -277.1598 
  32   1.0000     -10.177749      -276.9506 
  33   1.0000     -10.175803      -276.8977 
  34   1.0000      -0.878132       -23.8952 
  35   1.0000      -0.876276       -23.8447 
  36   1.0000      -0.874712       -23.8021 
  37   1.0000      -0.823893       -22.4193 
  38   1.0000      -0.809836       -22.0368 
  39   1.0000      -0.807609       -21.9761 
  40   1.0000      -0.797862       -21.7109 
  41   1.0000      -0.793758       -21.5992 
  42   1.0000      -0.770250       -20.9596 
  43   1.0000      -0.760959       -20.7067 
  44   1.0000      -0.760598       -20.6969 
  45   1.0000      -0.759561       -20.6687 
  46   1.0000      -0.748538       -20.3688 
  47   1.0000      -0.736872       -20.0513 
  48   1.0000      -0.727353       -19.7923 
  49   1.0000      -0.714453       -19.4413 
  50   1.0000      -0.699819       -19.0430 
  51   1.0000      -0.661368       -17.9967 
  52   1.0000      -0.658274       -17.9125 
  53   1.0000      -0.643930       -17.5222 
  54   1.0000      -0.624371       -16.9900 
  55   1.0000      -0.620784       -16.8924 
  56   1.0000      -0.619239       -16.8503 
  57   1.0000      -0.618223       -16.8227 
  58   1.0000      -0.594989       -16.1905 
  59   1.0000      -0.582702       -15.8561 
  60   1.0000      -0.565005       -15.3746 
  61   1.0000      -0.555686       -15.1210 
  62   1.0000      -0.554325       -15.0839 
  63   1.0000      -0.544509       -14.8168 
  64   1.0000      -0.536064       -14.5870 
  65   1.0000      -0.511296       -13.9131 
  66   1.0000      -0.509051       -13.8520 
  67   1.0000      -0.499046       -13.5797 
  68   1.0000      -0.493805       -13.4371 
  69   1.0000      -0.482140       -13.1197 
  70   1.0000      -0.473790       -12.8925 
  71   1.0000      -0.473523       -12.8852 
  72   1.0000      -0.472041       -12.8449 
  73   1.0000      -0.465446       -12.6654 
  74   1.0000      -0.447760       -12.1842 
  75   1.0000      -0.446119       -12.1395 
  76   1.0000      -0.436542       -11.8789 
  77   1.0000      -0.433220       -11.7885 
  78   1.0000      -0.432854       -11.7785 
  79   1.0000      -0.431713       -11.7475 
  80   1.0000      -0.428875       -11.6703 
  81   1.0000      -0.424988       -11.5645 
  82   1.0000      -0.414460       -11.2780 
  83   1.0000      -0.402140       -10.9428 
  84   1.0000      -0.401981       -10.9385 
  85   1.0000      -0.395464       -10.7611 
  86   1.0000      -0.394425       -10.7328 
  87   1.0000      -0.388004       -10.5581 
  88   1.0000      -0.386938       -10.5291 
  89   1.0000      -0.382524       -10.4090 
  90   1.0000      -0.381956       -10.3936 
  91   1.0000      -0.368032       -10.0147 
  92   1.0000      -0.363233        -9.8841 
  93   1.0000      -0.361788        -9.8448 
  94   1.0000      -0.360118        -9.7993 
  95   1.0000      -0.358693        -9.7605 
  96   1.0000      -0.346035        -9.4161 
  97   1.0000      -0.342863        -9.3298 
  98   1.0000      -0.337007        -9.1704 
  99   1.0000      -0.335569        -9.1313 
 100   1.0000      -0.332027        -9.0349 
 101   1.0000      -0.330357        -8.9895 
 102   1.0000      -0.326227        -8.8771 
 103   1.0000      -0.325741        -8.8639 
 104   1.0000      -0.313371        -8.5273 
 105   1.0000      -0.287076        -7.8117 
 106   1.0000      -0.282854        -7.6968 
 107   1.0000      -0.281491        -7.6598 
 108   1.0000      -0.275905        -7.5078 
 109   1.0000      -0.274807        -7.4779 
 110   1.0000      -0.273155        -7.4329 
 111   1.0000      -0.268225        -7.2988 
 112   1.0000      -0.267329        -7.2744 
 113   1.0000      -0.261921        -7.1272 
 114   1.0000      -0.232125        -6.3164 
 115   1.0000      -0.211234        -5.7480 
 116   1.0000      -0.174818        -4.7570 
 117   0.0000      -0.078924        -2.1476 
 118   0.0000      -0.052811        -1.4371 
 119   0.0000      -0.021409        -0.5826 
 120   0.0000      -0.020200        -0.5497 
 121   0.0000      -0.018129        -0.4933 
 122   0.0000       0.008941         0.2433 
 123   0.0000       0.010709         0.2914 
 124   0.0000       0.011840         0.3222 
 125   0.0000       0.018510         0.5037 
 126   0.0000       0.020567         0.5597 
 127   0.0000       0.026488         0.7208 
 128   0.0000       0.027552         0.7497 
 129   0.0000       0.029723         0.8088 
 130   0.0000       0.032794         0.8924 
 131   0.0000       0.033710         0.9173 
 132   0.0000       0.039669         1.0794 
 133   0.0000       0.041214         1.1215 
 134   0.0000       0.042634         1.1601 
 135   0.0000       0.044474         1.2102 
 136   0.0000       0.045413         1.2358 
 137   0.0000       0.047182         1.2839 
 138   0.0000       0.055067         1.4985 
 139   0.0000       0.058498         1.5918 
 140   0.0000       0.061344         1.6692 
 141   0.0000       0.063267         1.7216 
 142   0.0000       0.064695         1.7605 
 143   0.0000       0.069661         1.8956 
 144   0.0000       0.076024         2.0687 
 145   0.0000       0.077728         2.1151 
 146   0.0000       0.080789         2.1984 
 147   0.0000       0.085029         2.3138 
 148   0.0000       0.090831         2.4716 
 149   0.0000       0.097291         2.6474 
 150   0.0000       0.098699         2.6857 
 151   0.0000       0.111977         3.0471 
 152   0.0000       0.112918         3.0727 
 153   0.0000       0.118097         3.2136 
 154   0.0000       0.121780         3.3138 
 155   0.0000       0.128924         3.5082 
 156   0.0000       0.129625         3.5273 
 157   0.0000       0.133898         3.6435 
 158   0.0000       0.148407         4.0384 
 159   0.0000       0.149555         4.0696 
 160   0.0000       0.154435         4.2024 
 161   0.0000       0.156845         4.2680 
 162   0.0000       0.160339         4.3630 
 163   0.0000       0.163498         4.4490 
 164   0.0000       0.168213         4.5773 
 165   0.0000       0.171071         4.6551 
 166   0.0000       0.172083         4.6826 
 167   0.0000       0.177588         4.8324 
 168   0.0000       0.179310         4.8793 
 169   0.0000       0.189443         5.1550 
 170   0.0000       0.191464         5.2100 
 171   0.0000       0.194773         5.3000 
 172   0.0000       0.197337         5.3698 
 173   0.0000       0.198395         5.3986 
 174   0.0000       0.198641         5.4053 
 175   0.0000       0.203232         5.5302 
 176   0.0000       0.207347         5.6422 
 177   0.0000       0.212177         5.7736 
 178   0.0000       0.215155         5.8547 
 179   0.0000       0.215791         5.8720 
 180   0.0000       0.222333         6.0500 
 181   0.0000       0.223564         6.0835 
 182   0.0000       0.225175         6.1273 
 183   0.0000       0.233067         6.3421 
 184   0.0000       0.234079         6.3696 
 185   0.0000       0.239074         6.5055 
 186   0.0000       0.240430         6.5424 
 187   0.0000       0.241186         6.5630 
 188   0.0000       0.246275         6.7015 
 189   0.0000       0.248560         6.7637 
 190   0.0000       0.250706         6.8220 
 191   0.0000       0.258561         7.0358 
 192   0.0000       0.260324         7.0838 
 193   0.0000       0.264677         7.2022 
 194   0.0000       0.268454         7.3050 
 195   0.0000       0.270020         7.3476 
 196   0.0000       0.276663         7.5284 
 197   0.0000       0.276849         7.5334 
 198   0.0000       0.277124         7.5409 
 199   0.0000       0.279335         7.6011 
 200   0.0000       0.280602         7.6356 
 201   0.0000       0.281398         7.6572 
 202   0.0000       0.283801         7.7226 
 203   0.0000       0.284130         7.7316 
 204   0.0000       0.288806         7.8588 
 205   0.0000       0.291611         7.9351 
 206   0.0000       0.292799         7.9675 
 207   0.0000       0.296116         8.0577 
 208   0.0000       0.297285         8.0895 
 209   0.0000       0.299727         8.1560 
 210   0.0000       0.304020         8.2728 
 211   0.0000       0.307137         8.3576 
 212   0.0000       0.307626         8.3709 
 213   0.0000       0.310654         8.4533 
 214   0.0000       0.311075         8.4648 
 215   0.0000       0.313557         8.5323 
 216   0.0000       0.317186         8.6311 
 217   0.0000       0.318108         8.6561 
 218   0.0000       0.319099         8.6831 
 219   0.0000       0.320784         8.7290 
 220   0.0000       0.324507         8.8303 
 221   0.0000       0.329569         8.9680 
 222   0.0000       0.333625         9.0784 
 223   0.0000       0.336362         9.1529 
 224   0.0000       0.337584         9.1861 
 225   0.0000       0.338431         9.2092 
 226   0.0000       0.339417         9.2360 
 227   0.0000       0.339924         9.2498 
 228   0.0000       0.343523         9.3477 
 229   0.0000       0.347660         9.4603 
 230   0.0000       0.351203         9.5567 
 231   0.0000       0.354879         9.6567 
 232   0.0000       0.355118         9.6632 
 233   0.0000       0.358802         9.7635 
 234   0.0000       0.365362         9.9420 
 235   0.0000       0.371241        10.1020 
 236   0.0000       0.374066        10.1789 
 237   0.0000       0.378947        10.3117 
 238   0.0000       0.379512        10.3271 
 239   0.0000       0.381199        10.3730 
 240   0.0000       0.385652        10.4941 
 241   0.0000       0.388894        10.5823 
 242   0.0000       0.393440        10.7060 
 243   0.0000       0.397877        10.8268 
 244   0.0000       0.399334        10.8664 
 245   0.0000       0.406508        11.0616 
 246   0.0000       0.408539        11.1169 
 247   0.0000       0.410125        11.1601 
 248   0.0000       0.410653        11.1744 
 249   0.0000       0.414970        11.2919 
 250   0.0000       0.416078        11.3221 
 251   0.0000       0.416330        11.3289 
 252   0.0000       0.417748        11.3675 
 253   0.0000       0.421913        11.4808 
 254   0.0000       0.423522        11.5246 
 255   0.0000       0.432150        11.7594 
 256   0.0000       0.437037        11.8924 
 257   0.0000       0.439031        11.9466 
 258   0.0000       0.441163        12.0047 
 259   0.0000       0.441989        12.0271 
 260   0.0000       0.448741        12.2109 
 261   0.0000       0.451895        12.2967 
 262   0.0000       0.455447        12.3933 
 263   0.0000       0.457137        12.4393 
 264   0.0000       0.458487        12.4761 
 265   0.0000       0.460131        12.5208 
 266   0.0000       0.460752        12.5377 
 267   0.0000       0.465287        12.6611 
 268   0.0000       0.467576        12.7234 
 269   0.0000       0.472447        12.8559 
 270   0.0000       0.476470        12.9654 
 271   0.0000       0.482081        13.1181 
 272   0.0000       0.482714        13.1353 
 273   0.0000       0.486833        13.2474 
 274   0.0000       0.491395        13.3715 
 275   0.0000       0.496230        13.5031 
 276   0.0000       0.500101        13.6084 
 277   0.0000       0.502921        13.6852 
 278   0.0000       0.503889        13.7115 
 279   0.0000       0.511206        13.9106 
 280   0.0000       0.517504        14.0820 
 281   0.0000       0.523353        14.2412 
 282   0.0000       0.526855        14.3364 
 283   0.0000       0.529738        14.4149 
 284   0.0000       0.532434        14.4883 
 285   0.0000       0.534367        14.5409 
 286   0.0000       0.536648        14.6029 
 287   0.0000       0.540097        14.6968 
 288   0.0000       0.543878        14.7997 
 289   0.0000       0.547413        14.8959 
 290   0.0000       0.548919        14.9368 
 291   0.0000       0.553480        15.0610 
 292   0.0000       0.555591        15.1184 
 293   0.0000       0.559972        15.2376 
 294   0.0000       0.573038        15.5931 
 295   0.0000       0.574976        15.6459 
 296   0.0000       0.579503        15.7691 
 297   0.0000       0.583131        15.8678 
 298   0.0000       0.583554        15.8793 
 299   0.0000       0.590812        16.0768 
 300   0.0000       0.594050        16.1649 
 301   0.0000       0.598994        16.2995 
 302   0.0000       0.608692        16.5634 
 303   0.0000       0.617701        16.8085 
 304   0.0000       0.629180        17.1208 
 305   0.0000       0.630463        17.1558 
 306   0.0000       0.643019        17.4974 
 307   0.0000       0.649845        17.6832 
 308   0.0000       0.651858        17.7380 
 309   0.0000       0.654433        17.8080 
 310   0.0000       0.655760        17.8441 
 311   0.0000       0.665634        18.1128 
 312   0.0000       0.666049        18.1241 
 313   0.0000       0.671497        18.2724 
 314   0.0000       0.687723        18.7139 
 315   0.0000       0.690428        18.7875 
 316   0.0000       0.702052        19.1038 
 317   0.0000       0.714001        19.4290 
 318   0.0000       0.715466        19.4688 
 319   0.0000       0.719324        19.5738 
 320   0.0000       0.738727        20.1018 
 321   0.0000       0.757407        20.6101 
 322   0.0000       0.765033        20.8176 
 323   0.0000       0.768294        20.9063 
 324   0.0000       0.772192        21.0124 
 325   0.0000       0.786879        21.4121 
 326   0.0000       0.788443        21.4546 
 327   0.0000       0.791518        21.5383 
 328   0.0000       0.798767        21.7356 
 329   0.0000       0.812938        22.1212 
 330   0.0000       0.828806        22.5530 
 331   0.0000       0.832898        22.6643 
 332   0.0000       0.838011        22.8034 
 333   0.0000       0.842702        22.9311 
 334   0.0000       0.849885        23.1266 
 335   0.0000       0.852283        23.1918 
 336   0.0000       0.855042        23.2669 
 337   0.0000       0.858421        23.3588 
 338   0.0000       0.859839        23.3974 
 339   0.0000       0.866409        23.5762 
 340   0.0000       0.868563        23.6348 
 341   0.0000       0.872857        23.7517 
 342   0.0000       0.874639        23.8001 
 343   0.0000       0.879872        23.9425 
 344   0.0000       0.880711        23.9654 
 345   0.0000       0.882262        24.0076 
 346   0.0000       0.889301        24.1991 
 347   0.0000       0.892428        24.2842 
 348   0.0000       0.896453        24.3937 
 349   0.0000       0.900898        24.5147 
 350   0.0000       0.902365        24.5546 
 351   0.0000       0.910791        24.7839 
 352   0.0000       0.912142        24.8206 
 353   0.0000       0.922901        25.1134 
 354   0.0000       0.924001        25.1434 
 355   0.0000       0.927093        25.2275 
 356   0.0000       0.927829        25.2475 
 357   0.0000       0.927853        25.2482 
 358   0.0000       0.935672        25.4609 
 359   0.0000       0.942662        25.6511 
 360   0.0000       0.944970        25.7139 
 361   0.0000       0.951555        25.8931 
 362   0.0000       0.954479        25.9727 
 363   0.0000       0.954824        25.9821 
 364   0.0000       0.967500        26.3270 
 365   0.0000       0.968414        26.3519 
 366   0.0000       0.972745        26.4697 
 367   0.0000       0.978869        26.6364 
 368   0.0000       0.980793        26.6887 
 369   0.0000       0.983109        26.7518 
 370   0.0000       0.988114        26.8879 
 371   0.0000       0.989174        26.9168 
 372   0.0000       0.990912        26.9641 
 373   0.0000       0.992097        26.9963 
 374   0.0000       0.993822        27.0433 
 375   0.0000       1.000106        27.2143 
 376   0.0000       1.007255        27.4088 
 377   0.0000       1.008391        27.4397 
 378   0.0000       1.013120        27.5684 
 379   0.0000       1.016820        27.6691 
 380   0.0000       1.020515        27.7696 
 381   0.0000       1.024763        27.8852 
 382   0.0000       1.027203        27.9516 
 383   0.0000       1.027344        27.9555 
 384   0.0000       1.028795        27.9949 
 385   0.0000       1.031329        28.0639 
 386   0.0000       1.035200        28.1692 
 387   0.0000       1.036777        28.2121 
 388   0.0000       1.040288        28.3077 
 389   0.0000       1.044485        28.4219 
 390   0.0000       1.045802        28.4577 
 391   0.0000       1.049995        28.5718 
 392   0.0000       1.060767        28.8649 
 393   0.0000       1.064266        28.9601 
 394   0.0000       1.066201        29.0128 
 395   0.0000       1.067852        29.0577 
 396   0.0000       1.081806        29.4374 
 397   0.0000       1.083859        29.4933 
 398   0.0000       1.093600        29.7584 
 399   0.0000       1.101883        29.9838 
 400   0.0000       1.103285        30.0219 
 401   0.0000       1.108339        30.1594 
 402   0.0000       1.112399        30.2699 
 403   0.0000       1.120272        30.4842 
 404   0.0000       1.131143        30.7800 
 405   0.0000       1.134156        30.8620 
 406   0.0000       1.138988        30.9934 
 407   0.0000       1.139724        31.0135 
 408   0.0000       1.150423        31.3046 
 409   0.0000       1.152617        31.3643 
 410   0.0000       1.164783        31.6953 
 411   0.0000       1.167540        31.7704 
 412   0.0000       1.169293        31.8181 
 413   0.0000       1.175335        31.9825 
 414   0.0000       1.182017        32.1643 
 415   0.0000       1.186002        32.2727 
 416   0.0000       1.190088        32.3839 
 417   0.0000       1.200853        32.6769 
 418   0.0000       1.203784        32.7566 
 419   0.0000       1.210454        32.9381 
 420   0.0000       1.214927        33.0598 
 421   0.0000       1.220805        33.2198 
 422   0.0000       1.230669        33.4882 
 423   0.0000       1.234609        33.5954 
 424   0.0000       1.235502        33.6197 
 425   0.0000       1.248481        33.9729 
 426   0.0000       1.251721        34.0611 
 427   0.0000       1.252897        34.0931 
 428   0.0000       1.254972        34.1495 
 429   0.0000       1.265140        34.4262 
 430   0.0000       1.270427        34.5701 
 431   0.0000       1.270703        34.5776 
 432   0.0000       1.283450        34.9245 
 433   0.0000       1.286104        34.9967 
 434   0.0000       1.298940        35.3460 
 435   0.0000       1.301172        35.4067 
 436   0.0000       1.307306        35.5736 
 437   0.0000       1.314029        35.7565 
 438   0.0000       1.322381        35.9838 
 439   0.0000       1.328037        36.1377 
 440   0.0000       1.329564        36.1793 
 441   0.0000       1.334720        36.3196 
 442   0.0000       1.345682        36.6179 
 443   0.0000       1.345881        36.6233 
 444   0.0000       1.354464        36.8568 
 445   0.0000       1.362516        37.0759 
 446   0.0000       1.368465        37.2378 
 447   0.0000       1.369316        37.2610 
 448   0.0000       1.379187        37.5296 
 449   0.0000       1.383310        37.6418 
 450   0.0000       1.387014        37.7426 
 451   0.0000       1.389255        37.8036 
 452   0.0000       1.398367        38.0515 
 453   0.0000       1.400643        38.1134 
 454   0.0000       1.407959        38.3125 
 455   0.0000       1.416607        38.5478 
 456   0.0000       1.423777        38.7429 
 457   0.0000       1.424481        38.7621 
 458   0.0000       1.425452        38.7885 
 459   0.0000       1.431165        38.9440 
 460   0.0000       1.435223        39.0544 
 461   0.0000       1.448380        39.4124 
 462   0.0000       1.450876        39.4804 
 463   0.0000       1.455305        39.6009 
 464   0.0000       1.456174        39.6245 
 465   0.0000       1.457503        39.6607 
 466   0.0000       1.468027        39.9470 
 467   0.0000       1.468953        39.9722 
 468   0.0000       1.471990        40.0549 
 469   0.0000       1.473425        40.0939 
 470   0.0000       1.485679        40.4274 
 471   0.0000       1.491351        40.5817 
 472   0.0000       1.503328        40.9076 
 473   0.0000       1.507274        41.0150 
 474   0.0000       1.509171        41.0666 
 475   0.0000       1.510400        41.1001 
 476   0.0000       1.516025        41.2531 
 477   0.0000       1.526738        41.5447 
 478   0.0000       1.541223        41.9388 
 479   0.0000       1.545290        42.0495 
 480   0.0000       1.554947        42.3122 
 481   0.0000       1.558058        42.3969 
 482   0.0000       1.558814        42.4175 
 483   0.0000       1.559602        42.4389 
 484   0.0000       1.568923        42.6926 
 485   0.0000       1.580336        43.0031 
 486   0.0000       1.581870        43.0449 
 487   0.0000       1.585310        43.1385 
 488   0.0000       1.585550        43.1450 
 489   0.0000       1.593444        43.3598 
 490   0.0000       1.595506        43.4159 
 491   0.0000       1.599606        43.5275 
 492   0.0000       1.605060        43.6759 
 493   0.0000       1.607950        43.7545 
 494   0.0000       1.616835        43.9963 
 495   0.0000       1.617380        44.0111 
 496   0.0000       1.623932        44.1894 
 497   0.0000       1.639094        44.6020 
 498   0.0000       1.642320        44.6898 
 499   0.0000       1.645489        44.7760 
 500   0.0000       1.648015        44.8448 
 501   0.0000       1.650343        44.9081 
 502   0.0000       1.650953        44.9247 
 503   0.0000       1.657645        45.1068 
 504   0.0000       1.663812        45.2746 
 505   0.0000       1.665910        45.3317 
 506   0.0000       1.672102        45.5002 
 507   0.0000       1.679984        45.7147 
 508   0.0000       1.682237        45.7760 
 509   0.0000       1.684076        45.8260 
 510   0.0000       1.684671        45.8422 
 511   0.0000       1.686716        45.8979 
 512   0.0000       1.690901        46.0117 
 513   0.0000       1.692130        46.0452 
 514   0.0000       1.698785        46.2263 
 515   0.0000       1.700373        46.2695 
 516   0.0000       1.701319        46.2952 
 517   0.0000       1.704674        46.3865 
 518   0.0000       1.714021        46.6409 
 519   0.0000       1.724110        46.9154 
 520   0.0000       1.730394        47.0864 
 521   0.0000       1.735566        47.2272 
 522   0.0000       1.738777        47.3145 
 523   0.0000       1.758802        47.8594 
 524   0.0000       1.762049        47.9478 
 525   0.0000       1.764014        48.0013 
 526   0.0000       1.767946        48.1083 
 527   0.0000       1.781443        48.4755 
 528   0.0000       1.789700        48.7002 
 529   0.0000       1.790077        48.7105 
 530   0.0000       1.790744        48.7286 
 531   0.0000       1.796472        48.8845 
 532   0.0000       1.805613        49.1332 
 533   0.0000       1.810849        49.2757 
 534   0.0000       1.814515        49.3755 
 535   0.0000       1.816086        49.4182 
 536   0.0000       1.825080        49.6629 
 537   0.0000       1.831562        49.8393 
 538   0.0000       1.837191        49.9925 
 539   0.0000       1.842732        50.1433 
 540   0.0000       1.849505        50.3276 
 541   0.0000       1.854060        50.4515 
 542   0.0000       1.858576        50.5744 
 543   0.0000       1.862445        50.6797 
 544   0.0000       1.871014        50.9129 
 545   0.0000       1.880036        51.1584 
 546   0.0000       1.888401        51.3860 
 547   0.0000       1.907233        51.8984 
 548   0.0000       1.923826        52.3500 
 549   0.0000       1.930521        52.5321 
 550   0.0000       1.932015        52.5728 
 551   0.0000       1.941691        52.8361 
 552   0.0000       1.941878        52.8412 
 553   0.0000       1.949506        53.0488 
 554   0.0000       1.969708        53.5985 
 555   0.0000       1.970840        53.6293 
 556   0.0000       1.972264        53.6680 
 557   0.0000       2.003223        54.5105 
 558   0.0000       2.005184        54.5638 
 559   0.0000       2.009174        54.6724 
 560   0.0000       2.029131        55.2155 
 561   0.0000       2.039107        55.4869 
 562   0.0000       2.053825        55.8874 
 563   0.0000       2.065641        56.2089 
 564   0.0000       2.070138        56.3313 
 565   0.0000       2.074579        56.4522 
 566   0.0000       2.076715        56.5103 
 567   0.0000       2.085932        56.7611 
 568   0.0000       2.108555        57.3767 
 569   0.0000       2.109139        57.3926 
 570   0.0000       2.115252        57.5589 
 571   0.0000       2.116490        57.5926 
 572   0.0000       2.128558        57.9210 
 573   0.0000       2.138189        58.1831 
 574   0.0000       2.141216        58.2654 
 575   0.0000       2.142977        58.3134 
 576   0.0000       2.151329        58.5406 
 577   0.0000       2.179778        59.3148 
 578   0.0000       2.180893        59.3451 
 579   0.0000       2.184604        59.4461 
 580   0.0000       2.187431        59.5230 
 581   0.0000       2.198503        59.8243 
 582   0.0000       2.199520        59.8520 
 583   0.0000       2.203457        59.9591 
 584   0.0000       2.205419        60.0125 
 585   0.0000       2.224118        60.5213 
 586   0.0000       2.239715        60.9457 
 587   0.0000       2.248508        61.1850 
 588   0.0000       2.253433        61.3190 
 589   0.0000       2.257278        61.4237 
 590   0.0000       2.278804        62.0094 
 591   0.0000       2.303618        62.6846 
 592   0.0000       2.311233        62.8919 
 593   0.0000       2.314416        62.9785 
 594   0.0000       2.321447        63.1698 
 595   0.0000       2.321910        63.1824 
 596   0.0000       2.351095        63.9766 
 597   0.0000       2.372013        64.5458 
 598   0.0000       2.382518        64.8316 
 599   0.0000       2.395263        65.1784 
 600   0.0000       2.398593        65.2690 
 601   0.0000       2.403521        65.4031 
 602   0.0000       2.411802        65.6285 
 603   0.0000       2.431877        66.1747 
 604   0.0000       2.442707        66.4694 
 605   0.0000       2.444645        66.5222 
 606   0.0000       2.446133        66.5627 
 607   0.0000       2.454979        66.8034 
 608   0.0000       2.464702        67.0679 
 609   0.0000       2.467091        67.1329 
 610   0.0000       2.468357        67.1674 
 611   0.0000       2.472594        67.2827 
 612   0.0000       2.473764        67.3145 
 613   0.0000       2.479634        67.4743 
 614   0.0000       2.492136        67.8145 
 615   0.0000       2.502121        68.0862 
 616   0.0000       2.510472        68.3134 
 617   0.0000       2.513324        68.3910 
 618   0.0000       2.524965        68.7078 
 619   0.0000       2.526618        68.7528 
 620   0.0000       2.529179        68.8225 
 621   0.0000       2.539535        69.1043 
 622   0.0000       2.546179        69.2851 
 623   0.0000       2.549207        69.3674 
 624   0.0000       2.560447        69.6733 
 625   0.0000       2.566105        69.8273 
 626   0.0000       2.570831        69.9559 
 627   0.0000       2.580125        70.2088 
 628   0.0000       2.580607        70.2219 
 629   0.0000       2.582308        70.2682 
 630   0.0000       2.592421        70.5434 
 631   0.0000       2.608755        70.9878 
 632   0.0000       2.611713        71.0683 
 633   0.0000       2.628837        71.5343 
 634   0.0000       2.630864        71.5894 
 635   0.0000       2.657818        72.3229 
 636   0.0000       2.664652        72.5089 
 637   0.0000       2.740914        74.5841 
 638   0.0000       2.760019        75.1039 
 639   0.0000       2.803158        76.2778 
 640   0.0000       2.805125        76.3313 
 641   0.0000       2.814180        76.5777 
 642   0.0000       2.823223        76.8238 
 643   0.0000       2.847354        77.4805 
 644   0.0000       2.859311        77.8058 
 645   0.0000       2.896201        78.8096 
 646   0.0000       2.931796        79.7782 
 647   0.0000       2.950134        80.2772 
 648   0.0000       2.951848        80.3239 
 649   0.0000       2.968136        80.7671 
 650   0.0000       3.038940        82.6938 
 651   0.0000       3.108995        84.6000 
 652   0.0000       3.295907        89.6862 
 653   0.0000       3.400607        92.5352 
 654   0.0000       3.401461        92.5585 
 655   0.0000       4.975570       135.3921 
 656   0.0000       4.982403       135.5781 
 657   0.0000       4.991724       135.8317 
 658   0.0000       5.007718       136.2669 
 659   0.0000       5.008786       136.2960 
 660   0.0000       5.015867       136.4887 
 661   0.0000       5.021152       136.6325 
 662   0.0000       5.022012       136.6559 
 663   0.0000       5.031490       136.9138 
 664   0.0000       5.044099       137.2569 
 665   0.0000       5.078549       138.1943 
 666   0.0000       5.094410       138.6260 
 667   0.0000       5.095477       138.6550 
 668   0.0000       5.144830       139.9980 
 669   0.0000       5.169077       140.6577 
 670   0.0000       5.172257       140.7443 
 671   0.0000       5.213271       141.8603 
 672   0.0000       5.230808       142.3375 
 673   0.0000       5.248485       142.8185 
 674   0.0000       5.249265       142.8398 
 675   0.0000       5.280761       143.6968 
 676   0.0000       5.287090       143.8690 
 677   0.0000       5.296789       144.1330 
 678   0.0000       5.300113       144.2234 
 679   0.0000       5.307144       144.4147 
 680   0.0000       5.311522       144.5339 
 681   0.0000       5.315452       144.6408 
 682   0.0000       5.356521       145.7584 
 683   0.0000       5.363396       145.9454 
 684   0.0000       5.372394       146.1903 
 685   0.0000       5.375165       146.2657 
 686   0.0000       5.378010       146.3431 
 687   0.0000       5.384398       146.5169 
 688   0.0000       5.389560       146.6574 
 689   0.0000       5.408659       147.1771 
 690   0.0000       5.411598       147.2571 
 691   0.0000       5.425034       147.6227 
 692   0.0000       5.456810       148.4873 
 693   0.0000       5.469548       148.8340 
 694   0.0000       5.518179       150.1573 
 695   0.0000       5.524455       150.3281 
 696   0.0000       5.563721       151.3965 
 697   0.0000       5.585923       152.0007 
 698   0.0000       5.645165       153.6128 
 699   0.0000       5.658104       153.9648 
 700   0.0000       5.671395       154.3265 
 701   0.0000       5.695793       154.9904 
 702   0.0000       5.701238       155.1386 
 703   0.0000       5.729309       155.9024 
 704   0.0000       5.731101       155.9512 
 705   0.0000       5.748402       156.4220 
 706   0.0000       5.750948       156.4913 
 707   0.0000       5.810407       158.1092 
 708   0.0000       5.843650       159.0138 
 709   0.0000       5.857298       159.3852 
 710   0.0000       5.878385       159.9590 
 711   0.0000       5.890139       160.2788 
 712   0.0000       5.971956       162.5052 
 713   0.0000       6.098100       165.9377 
 714   0.0000       6.161399       167.6602 
 715   0.0000       6.267195       170.5390 
 716   0.0000       6.403707       174.2537 
 717   0.0000       6.416539       174.6029 
 718   0.0000      29.604995       805.5929 
 719   0.0000      29.707625       808.3856 
 720   0.0000      29.757471       809.7420 
 721   0.0000      29.808867       811.1405 
 722   0.0000      29.837841       811.9289 
 723   0.0000      29.853905       812.3661 
 724   0.0000      29.890283       813.3559 
 725   0.0000      29.892144       813.4066 
 726   0.0000      29.949126       814.9572 
 727   0.0000      29.959941       815.2515 
 728   0.0000      29.965663       815.4071 
[...]
DFT calculation                         ... on
Variables per vector in CP-SCF ... 154828
Number of vectors sought       ... 3
     CP-SCF ITERATION   0: 
     CP-SCF ITERATION   1:      0.000003746838
     CP-SCF ITERATION   2:      0.000000016250

Forming final perturbed densities           ... done
Transforming perturbed density to AO basis  ... done

Using FinalGrid as integration grid:         ... finished setting up the grid
Time for grid setup =    0.133 sec

 Raw HFC matrix (all values in MHz): 
 ------------------------------
                -0.1710               0.1035               0.0034
                 0.1036              -0.3147              -0.0012
                 0.0034              -0.0012              -0.2663

 A(FC)          -0.2507              -0.2507              -0.2507
 A(SD)           0.1339              -0.0155              -0.1184
 A(ORB+DIA)     -0.0000               0.0000               0.0001    A(PC) =   0.0000
 A(ORB)          0.0000               0.0000               0.0001    A(PC) =   0.0000
 A(DIA)         -0.0000               0.0000               0.0000    A(PC) =  -0.0000
             ----------           ----------           ----------
 A(Tot)         -0.1168              -0.2662              -0.3690    A(iso)=   -0.2507
 Orientation: 
  X           0.8859843            0.0025935           -0.4637081
  Y           0.4634268            0.0303163            0.8856165
  Z           0.0163548           -0.9995370            0.0256578

Notes:  (1) The A matrix conforms to the "SAI" spin Hamiltonian convention.
        (2) Tensor is right-handed.

 -----------------------------------------------------------
 Nucleus  54H : A:ISTP=    1 I=  0.5 P=533.5514 MHz/au**3
                Q:ISTP=    2 I=  1.0 Q=  0.0029 barn     
 -----------------------------------------------------------
 Solving for nuclear perturbation:
Forming RHS of the CP-SCF equations         ... 
Using LibInt in CPSCF-CP

Calculating nucleus orbit integrals         ... done

------------------------------------------------------------------------------
                           ORCA CP-SCF CALCULATION
------------------------------------------------------------------------------

Input orbitals are from        ... EPRII.gbw
Input Perturbation             ... EPRII.pin.tmp
Wavefunction output            ... EPRII.pout.tmp
Perturbation mode              ... Imaginary perturbation
Solver                         ... POPLE
Max. number of iterations      ... 64
Convergence tolerance          ... 1.000e-06
Integral handling              ... Direct
Number of perturbations        ... 3
Number of operators            ... 2
Orbital ranges used for CP-SCF:
 Operator 0:  Orbitals   0...116  to 117...780
 Operator 1:  Orbitals   0...115  to 116...780
DFT calculation                         ... on
Variables per vector in CP-SCF ... 154828
Number of vectors sought       ... 3
     CP-SCF ITERATION   0: 
     CP-SCF ITERATION   1:      0.000002638467
     CP-SCF ITERATION   2:      0.000000802542

Forming final perturbed densities           ... done
Transforming perturbed density to AO basis  ... done

Using FinalGrid as integration grid:         ... finished setting up the grid
Time for grid setup =    0.131 sec

 Raw HFC matrix (all values in MHz): 
 ------------------------------
                -0.5803               0.0841              -0.0002
                 0.0840              -2.0244              -0.0129
                -0.0002              -0.0129              -1.4710

 A(FC)          -1.3587              -1.3587              -1.3587
 A(SD)           0.7834              -0.1121              -0.6713
 A(ORB+DIA)     -0.0000               0.0001               0.0004    A(PC) =   0.0002
 A(ORB)          0.0001               0.0000               0.0004    A(PC) =   0.0002
 A(DIA)         -0.0001               0.0001               0.0000    A(PC) =   0.0000
             ----------           ----------           ----------
 A(Tot)         -0.5754              -1.4707              -2.0296    A(iso)=   -1.3586
 Orientation: 
  X           0.9983194           -0.0023454           -0.0579032
  Y           0.0579418            0.0229060            0.9980571
  Z          -0.0010145           -0.9997349            0.0230034

Notes:  (1) The A matrix conforms to the "SAI" spin Hamiltonian convention.
        (2) Tensor is right-handed.

 -----------------------------------------------------------
 Nucleus  55H : A:ISTP=    1 I=  0.5 P=533.5514 MHz/au**3
                Q:ISTP=    2 I=  1.0 Q=  0.0029 barn     
 -----------------------------------------------------------
 Solving for nuclear perturbation:
Forming RHS of the CP-SCF equations         ... 
Using LibInt in CPSCF-CP

Calculating nucleus orbit integrals         ... done

------------------------------------------------------------------------------
                           ORCA CP-SCF CALCULATION
------------------------------------------------------------------------------

Input orbitals are from        ... EPRII.gbw
Input Perturbation             ... EPRII.pin.tmp
Wavefunction output            ... EPRII.pout.tmp
Perturbation mode              ... Imaginary perturbation
Solver                         ... POPLE
Max. number of iterations      ... 64
Convergence tolerance          ... 1.000e-06
Integral handling              ... Direct
Number of perturbations        ... 3
Number of operators            ... 2
Orbital ranges used for CP-SCF:
 Operator 0:  Orbitals   0...116  to 117...780
 Operator 1:  Orbitals   0...115  to 116...780
DFT calculation                         ... on
Variables per vector in CP-SCF ... 154828
Number of vectors sought       ... 3
     CP-SCF ITERATION   0: 
     CP-SCF ITERATION   1:      0.000003820352
     CP-SCF ITERATION   2:      0.000000016692

Forming final perturbed densities           ... done
Transforming perturbed density to AO basis  ... done

Using FinalGrid as integration grid:         ... finished setting up the grid
Time for grid setup =    0.133 sec

 Raw HFC matrix (all values in MHz): 
 ------------------------------
                 1.3618              -0.0998              -0.0050
                -0.0999               0.7062               0.0034
                -0.0050               0.0034               0.5175

 A(FC)           0.8619               0.8619               0.8619
 A(SD)          -0.3445              -0.1706               0.5151
 A(ORB+DIA)     -0.0001               0.0001              -0.0003    A(PC) =  -0.0001
 A(ORB)         -0.0000               0.0001              -0.0003    A(PC) =  -0.0001
 A(DIA)         -0.0000               0.0000              -0.0001    A(PC) =  -0.0000
             ----------           ----------           ----------
 A(Tot)          0.5174               0.6914               1.3767    A(iso)=    0.8618
 Orientation: 
  X           0.0040693            0.1473387           -0.9890777
  Y          -0.0159345            0.9889699            0.1472571
  Z           0.9998648            0.0151612            0.0063722

Notes:  (1) The A matrix conforms to the "SAI" spin Hamiltonian convention.
        (2) Tensor is right-handed.

 -----------------------------------------------------------
 Nucleus  56H : A:ISTP=    1 I=  0.5 P=533.5514 MHz/au**3
                Q:ISTP=    2 I=  1.0 Q=  0.0029 barn     
 -----------------------------------------------------------
 Solving for nuclear perturbation:
Forming RHS of the CP-SCF equations         ... 
Using LibInt in CPSCF-CP

Calculating nucleus orbit integrals         ... done

------------------------------------------------------------------------------
                           ORCA CP-SCF CALCULATION
------------------------------------------------------------------------------

Input orbitals are from        ... EPRII.gbw
Input Perturbation             ... EPRII.pin.tmp
Wavefunction output            ... EPRII.pout.tmp
Perturbation mode              ... Imaginary perturbation
Solver                         ... POPLE
Max. number of iterations      ... 64
Convergence tolerance          ... 1.000e-06
Integral handling              ... Direct
Number of perturbations        ... 3
Number of operators            ... 2
Orbital ranges used for CP-SCF:
 Operator 0:  Orbitals   0...116  to 117...780
 Operator 1:  Orbitals   0...115  to 116...780
DFT calculation                         ... on
Variables per vector in CP-SCF ... 154828
Number of vectors sought       ... 3
     CP-SCF ITERATION   0: 
     CP-SCF ITERATION   1:      0.000005047299
     CP-SCF ITERATION   2:      0.000000024342

Forming final perturbed densities           ... done
Transforming perturbed density to AO basis  ... done

Using FinalGrid as integration grid:         ... finished setting up the grid
Time for grid setup =    0.136 sec

 Raw HFC matrix (all values in MHz): 
 ------------------------------
                -1.1093               0.5767              -0.0062
                 0.5762              -1.6492               0.0107
                -0.0062               0.0107              -2.6472

 A(FC)          -1.8023              -1.8023              -1.8023
 A(SD)           1.0590              -0.2137              -0.8453
 A(ORB+DIA)      0.0005               0.0006               0.0002    A(PC) =   0.0004
 A(ORB)          0.0007               0.0007               0.0000    A(PC) =   0.0005
 A(DIA)         -0.0001              -0.0001               0.0002    A(PC) =  -0.0000
             ----------           ----------           ----------
 A(Tot)         -0.7428              -2.0155              -2.6474    A(iso)=   -1.8019
 Orientation: 
  X           0.8437773           -0.5365951            0.0102771
  Y           0.5366934            0.8436136           -0.0166198
  Z           0.0002482            0.0195391            0.9998091

Notes:  (1) The A matrix conforms to the "SAI" spin Hamiltonian convention.
        (2) Tensor is right-handed.

 -----------------------------------------------------------
 Nucleus  57H : A:ISTP=    1 I=  0.5 P=533.5514 MHz/au**3
                Q:ISTP=    2 I=  1.0 Q=  0.0029 barn     
 -----------------------------------------------------------
 Solving for nuclear perturbation:
Forming RHS of the CP-SCF equations         ... 
Using LibInt in CPSCF-CP

Calculating nucleus orbit integrals         ... done

------------------------------------------------------------------------------
                           ORCA CP-SCF CALCULATION
------------------------------------------------------------------------------

Input orbitals are from        ... EPRII.gbw
Input Perturbation             ... EPRII.pin.tmp
Wavefunction output            ... EPRII.pout.tmp
Perturbation mode              ... Imaginary perturbation
Solver                         ... POPLE
Max. number of iterations      ... 64
Convergence tolerance          ... 1.000e-06
Integral handling              ... Direct
Number of perturbations        ... 3
Number of operators            ... 2
Orbital ranges used for CP-SCF:
 Operator 0:  Orbitals   0...116  to 117...780
 Operator 1:  Orbitals   0...115  to 116...780
DFT calculation                         ... on
Variables per vector in CP-SCF ... 154828
Number of vectors sought       ... 3
     CP-SCF ITERATION   0: 
     CP-SCF ITERATION   1:      0.000004510050
     CP-SCF ITERATION   2:      0.000000019183

Forming final perturbed densities           ... done
Transforming perturbed density to AO basis  ... done

Using FinalGrid as integration grid:         ... finished setting up the grid
Time for grid setup =    0.139 sec

 Raw HFC matrix (all values in MHz): 
 ------------------------------
                -1.9850              -0.2221              -0.0073
                -0.2217              -1.1150               0.0166
                -0.0073               0.0166              -2.3409

 A(FC)          -1.8139              -1.8139              -1.8139
 A(SD)           0.7526              -0.2252              -0.5274
 A(ORB+DIA)     -0.0001               0.0007               0.0001    A(PC) =   0.0002
 A(ORB)          0.0000               0.0008               0.0000    A(PC) =   0.0003
 A(DIA)         -0.0001              -0.0001               0.0001    A(PC) =  -0.0001
             ----------           ----------           ----------
 A(Tot)         -1.0614              -2.0383              -2.3412    A(iso)=   -1.8137
 Orientation: 
  X          -0.2338328            0.9721795           -0.0137563
  Y           0.9721770            0.2339881            0.0110177
  Z           0.0139300           -0.0107972           -0.9998447

Notes:  (1) The A matrix conforms to the "SAI" spin Hamiltonian convention.
        (2) Tensor is right-handed.

 -----------------------------------------------------------
 Nucleus  58H : A:ISTP=    1 I=  0.5 P=533.5514 MHz/au**3
                Q:ISTP=    2 I=  1.0 Q=  0.0029 barn     
 -----------------------------------------------------------
 Solving for nuclear perturbation:
Forming RHS of the CP-SCF equations         ... 
Using LibInt in CPSCF-CP

Calculating nucleus orbit integrals         ... done

------------------------------------------------------------------------------
                           ORCA CP-SCF CALCULATION
------------------------------------------------------------------------------

Input orbitals are from        ... EPRII.gbw
Input Perturbation             ... EPRII.pin.tmp
Wavefunction output            ... EPRII.pout.tmp
Perturbation mode              ... Imaginary perturbation
Solver                         ... POPLE
Max. number of iterations      ... 64
Convergence tolerance          ... 1.000e-06
Integral handling              ... Direct
Number of perturbations        ... 3
Number of operators            ... 2
Orbital ranges used for CP-SCF:
 Operator 0:  Orbitals   0...116  to 117...780
 Operator 1:  Orbitals   0...115  to 116...780
DFT calculation                         ... on
Variables per vector in CP-SCF ... 154828
Number of vectors sought       ... 3
     CP-SCF ITERATION   0: 
     CP-SCF ITERATION   1:      0.000003938162
     CP-SCF ITERATION   2:      0.000000016478

Forming final perturbed densities           ... done
Transforming perturbed density to AO basis  ... done

Using FinalGrid as integration grid:         ... finished setting up the grid
Time for grid setup =    0.129 sec

 Raw HFC matrix (all values in MHz): 
 ------------------------------
                 1.5227               0.2960               0.0020
                 0.2960               0.5988               0.0024
                 0.0020               0.0024               0.4579

 A(FC)           0.8599               0.8599               0.8599
 A(SD)          -0.4020              -0.3478               0.7498
 A(ORB+DIA)     -0.0000               0.0001              -0.0003    A(PC) =  -0.0001
 A(ORB)         -0.0000               0.0001              -0.0002    A(PC) =  -0.0001
 A(DIA)         -0.0000               0.0000              -0.0000    A(PC) =  -0.0000
             ----------           ----------           ----------
 A(Tot)          0.4578               0.5121               1.6094    A(iso)=    0.8598
 Orientation: 
  X           0.0066393           -0.2810522           -0.9596695
  Y          -0.0307377            0.9591798           -0.2811215
  Z           0.9995054            0.0313645           -0.0022706

Notes:  (1) The A matrix conforms to the "SAI" spin Hamiltonian convention.
        (2) Tensor is right-handed.


------------------------------------------------------------------------------- 
----------------------------------------------------------------------------
                           ORCA EULER ANGLE PROGRAM
----------------------------------------------------------------------------

Only g-tensor available        -->  using g-tensor as reference tensor

Reference tensor               ...  g

g-tensor ordering              ...  |g_min> --> |gx>
                                    |g_mid> --> |gy>
                                    |g_max> --> |gz>

A- and EFG-tensor ordering     ...  the axes |Ax>, |Qx>, |Ay>, etc. are assigned
                                    such that the Euler rotation is minimal. You
                                    can find the respective eigenvalues as Ax,
                                    EFGx, Ay, etc. in the tables below.
                                    The relation of |Ax>, |Ay>,  etc. to Amin, Amid, etc.
                                    (as printed in the ORCA EPR/NMR CALCULATION Output)
                                    is obtained in the detailed printout.

Euler rotation around          ...  z - y - z
   First rotation              -->  by alpha around z
   Second rotation             -->  by beta around y'
   Third rotation              -->  by gamma around z''
   Positive / Negative angle   -->  clockwise / counterclockwise rotation

Plot EFG-tensors                    (-)
Plot HFC-tensors                    (-)
Detailed Printout                   (-)

-------------------------------------------------------------------------
          Euler rotation of hyperfine tensor to g-tensor
-------------------------------------------------------------------------

-------------------------------------------------------------------
 Atom  |   Alpha    Beta    Gamma   |   Ax       Ay       Az 
       |          [degrees]         |           [MHz]         
-------------------------------------------------------------------
  9H       90.2     14.2    -90.2     -16.79    -7.76   -20.22
 10H       89.9     17.3    -90.0       4.27     4.98     9.54
 12H      -89.9     35.8     89.9     -48.18   -20.07   -73.05
 14H      125.7     16.0   -145.0      67.91    77.40    69.41
 15H       54.0     16.1    -34.7      67.93    77.42    69.43
 17H     -169.0     20.0    135.4      -3.30    -3.13     2.94
 18H      -10.6     20.1     44.2      -3.30    -3.13     2.94
 20H       61.6     53.0    -34.0      -0.00     2.31     0.11
 21H      118.3     52.8   -146.0      -0.00     2.31     0.11
 23H       66.6     19.7    -26.8      23.75    24.35    27.39
 24H      113.3     19.6   -153.4      23.84    24.45    27.48
 26H      100.1     40.6    -87.2      -1.02     0.90    -0.90
 27H       80.1     40.6    -93.3      -1.03     0.90    -0.90
 29H      -97.6     20.2     63.9      -0.09    -0.13     0.82
 30H      -82.1     20.2    115.6      -0.09    -0.13     0.82
 32H      -82.0     36.8     77.4      -0.12    -0.10     0.38
 33H      -98.0     36.8    102.2      -0.12    -0.10     0.38
 35H      -89.9     28.4     89.8      -0.83    -0.84     0.70
 36H      -90.4     26.6     89.8      -0.13    -0.13     0.24
 43H      -91.7     34.6     92.0       0.39     0.24     0.59
 44H       93.3     13.9    -92.5      -0.25    -0.41    -0.09
 45H      -91.2     24.2     91.9       0.45     1.32     0.08
 46H       91.4     33.0    -90.8       0.50     0.10     1.25
 47H      -97.8      8.7     98.8      -0.27    -0.12    -0.37
 54H      -91.9     33.0     92.1      -1.47    -0.58    -2.03
 55H      -91.1     44.7     91.0       0.52     1.38     0.69
 56H     -104.5      3.9    104.5      -2.65    -0.74    -2.02
 57H      -92.2     22.7     91.7      -2.34    -2.04    -1.06
 58H      -94.4     20.0     94.8       0.46     1.61     0.51
-------------------------------------------------------------------


Timings for individual modules:

Sum of individual times         ...    10938.292 sec (= 182.305 min)
GTO integral calculation        ...        1.686 sec (=   0.028 min)   0.0 %
Spin-Orbit-Coupling Matrices    ...       46.015 sec (=   0.767 min)   0.4 %
SCF iterations                  ...      381.970 sec (=   6.366 min)   3.5 %
EPR/NMR calculation             ...    10508.621 sec (= 175.144 min)  96.1 %
                             ****ORCA TERMINATED NORMALLY****
TOTAL RUN TIME: 0 days 3 hours 2 minutes 19 seconds 718 msec
