
                                 *****************
                                 * O   R   C   A *
                                 *****************

                                            #,                                       
                                            ###                                      
                                            ####                                     
                                            #####                                    
                                            ######                                   
                                           ########,                                 
                                     ,,################,,,,,                         
                               ,,#################################,,                 
                          ,,##########################################,,             
                       ,#########################################, ''#####,          
                    ,#############################################,,   '####,        
                  ,##################################################,,,,####,       
                ,###########''''           ''''###############################       
              ,#####''   ,,,,##########,,,,          '''####'''          '####       
            ,##' ,,,,###########################,,,                        '##       
           ' ,,###''''                  '''############,,,                           
         ,,##''                                '''############,,,,        ,,,,,,###''
      ,#''                                            '''#######################'''  
     '                                                          ''''####''''         
             ,#######,   #######,   ,#######,      ##                                
            ,#'     '#,  ##    ##  ,#'     '#,    #''#        ######   ,####,        
            ##       ##  ##   ,#'  ##            #'  '#       #        #'  '#        
            ##       ##  #######   ##           ,######,      #####,   #    #        
            '#,     ,#'  ##    ##  '#,     ,#' ,#      #,         ##   #,  ,#        
             '#######'   ##     ##  '#######'  #'      '#     #####' # '####'        



                  #######################################################
                  #                        -***-                        #
                  #          Department of theory and spectroscopy      #
                  #    Directorship and core code : Frank Neese         #
                  #        Max Planck Institute fuer Kohlenforschung    #
                  #                Kaiser Wilhelm Platz 1               #
                  #                 D-45470 Muelheim/Ruhr               #
                  #                      Germany                        #
                  #                                                     #
                  #                  All rights reserved                #
                  #                        -***-                        #
                  #######################################################


                         Program Version 5.0.4 -  RELEASE  -


 With contributions from (in alphabetic order):
   Daniel Aravena         : Magnetic Suceptibility
   Michael Atanasov       : Ab Initio Ligand Field Theory (pilot matlab implementation)
   Alexander A. Auer      : GIAO ZORA, VPT2 properties, NMR spectrum
   Ute Becker             : Parallelization
   Giovanni Bistoni       : ED, misc. LED, open-shell LED, HFLD
   Martin Brehm           : Molecular dynamics
   Dmytro Bykov           : SCF Hessian
   Vijay G. Chilkuri      : MRCI spin determinant printing, contributions to CSF-ICE
   Dipayan Datta          : RHF DLPNO-CCSD density
   Achintya Kumar Dutta   : EOM-CC, STEOM-CC
   Dmitry Ganyushin       : Spin-Orbit,Spin-Spin,Magnetic field MRCI
   Miquel Garcia          : C-PCM and meta-GGA Hessian, CC/C-PCM, Gaussian charge scheme
   Yang Guo               : DLPNO-NEVPT2, F12-NEVPT2, CIM, IAO-localization
   Andreas Hansen         : Spin unrestricted coupled pair/coupled cluster methods
   Benjamin Helmich-Paris : MC-RPA, TRAH-SCF, COSX integrals
   Lee Huntington         : MR-EOM, pCC
   Robert Izsak           : Overlap fitted RIJCOSX, COSX-SCS-MP3, EOM
   Marcus Kettner         : VPT2
   Christian Kollmar      : KDIIS, OOCD, Brueckner-CCSD(T), CCSD density, CASPT2, CASPT2-K
   Simone Kossmann        : Meta GGA functionals, TD-DFT gradient, OOMP2, MP2 Hessian
   Martin Krupicka        : Initial AUTO-CI
   Lucas Lang             : DCDCAS
   Marvin Lechner         : AUTO-CI (C++ implementation), FIC-MRCC
   Dagmar Lenk            : GEPOL surface, SMD
   Dimitrios Liakos       : Extrapolation schemes; Compound Job, initial MDCI parallelization
   Dimitrios Manganas     : Further ROCIS development; embedding schemes
   Dimitrios Pantazis     : SARC Basis sets
   Anastasios Papadopoulos: AUTO-CI, single reference methods and gradients
   Taras Petrenko         : DFT Hessian,TD-DFT gradient, ASA, ECA, R-Raman, ABS, FL, XAS/XES, NRVS
   Peter Pinski           : DLPNO-MP2, DLPNO-MP2 Gradient
   Christoph Reimann      : Effective Core Potentials
   Marius Retegan         : Local ZFS, SOC
   Christoph Riplinger    : Optimizer, TS searches, QM/MM, DLPNO-CCSD(T), (RO)-DLPNO pert. Triples
   Tobias Risthaus        : Range-separated hybrids, TD-DFT gradient, RPA, STAB
   Michael Roemelt        : Original ROCIS implementation
   Masaaki Saitow         : Open-shell DLPNO-CCSD energy and density
   Barbara Sandhoefer     : DKH picture change effects
   Avijit Sen             : IP-ROCIS
   Kantharuban Sivalingam : CASSCF convergence, NEVPT2, FIC-MRCI
   Bernardo de Souza      : ESD, SOC TD-DFT
   Georgi Stoychev        : AutoAux, RI-MP2 NMR, DLPNO-MP2 response
   Willem Van den Heuvel  : Paramagnetic NMR
   Boris Wezisla          : Elementary symmetry handling
   Frank Wennmohs         : Technical directorship


 We gratefully acknowledge several colleagues who have allowed us to
 interface, adapt or use parts of their codes:
   Stefan Grimme, W. Hujo, H. Kruse, P. Pracht,  : VdW corrections, initial TS optimization,
                  C. Bannwarth, S. Ehlert          DFT functionals, gCP, sTDA/sTD-DF
   Ed Valeev, F. Pavosevic, A. Kumar             : LibInt (2-el integral package), F12 methods
   Garnet Chan, S. Sharma, J. Yang, R. Olivares  : DMRG
   Ulf Ekstrom                                   : XCFun DFT Library
   Mihaly Kallay                                 : mrcc  (arbitrary order and MRCC methods)
   Jiri Pittner, Ondrej Demel                    : Mk-CCSD
   Frank Weinhold                                : gennbo (NPA and NBO analysis)
   Christopher J. Cramer and Donald G. Truhlar   : smd solvation model
   Lars Goerigk                                  : TD-DFT with DH, B97 family of functionals
   V. Asgeirsson, H. Jonsson                     : NEB implementation
   FAccTs GmbH                                   : IRC, NEB, NEB-TS, DLPNO-Multilevel, CI-OPT
                                                   MM, QMMM, 2- and 3-layer-ONIOM, Crystal-QMMM,
                                                   LR-CPCM, SF, NACMEs, symmetry and pop. for TD-DFT,
                                                   nearIR, NL-DFT gradient (VV10), updates on ESD,
                                                   ML-optimized integration grids
   S Lehtola, MJT Oliveira, MAL Marques          : LibXC Library
   Liviu Ungur et al                             : ANISO software


 Your calculation uses the libint2 library for the computation of 2-el integrals
 For citations please refer to: http://libint.valeyev.net

 Your ORCA version has been built with support for libXC version: 5.1.0
 For citations please refer to: https://tddft.org/programs/libxc/

 This ORCA versions uses:
   CBLAS   interface :  Fast vector & matrix operations
   LAPACKE interface :  Fast linear algebra routines
   SCALAPACK package :  Parallel linear algebra routines
   Shared memory     :  Shared parallel matrices
   BLAS/LAPACK       :  OpenBLAS 0.3.15  USE64BITINT DYNAMIC_ARCH NO_AFFINITY SkylakeX SINGLE_THREADED
        Core in use  :  SkylakeX
   Copyright (c) 2011-2014, The OpenBLAS Project




***************************************
The coordinates will be read from file: opt.xyz
***************************************


================================================================================

----- Orbital basis set information -----
Your calculation utilizes the basis: EPR-II
   V. Barone, in Recent Advances in Density Functional Methods, Part 1 (ed. D. P. Chong), World Scientific, Singapore, 1995, p. 287.

----- AuxJ basis set information -----
Your calculation utilizes the AutoAux generation procedure.
  G. L. Stoychev, A. A. Auer, F. Neese, J. Chem. Theory Comput. 13, 554 (2017)

----- AuxC basis set information -----
Your calculation utilizes the AutoAux generation procedure.
  G. L. Stoychev, A. A. Auer, F. Neese, J. Chem. Theory Comput. 13, 554 (2017)

----- AuxJK basis set information -----
Your calculation utilizes the AutoAux generation procedure.
  G. L. Stoychev, A. A. Auer, F. Neese, J. Chem. Theory Comput. 13, 554 (2017)

================================================================================
                                        WARNINGS
                       Please study these warnings very carefully!
================================================================================

WARNING: Old DensityContainer found on disk!
         Will remove this file - 
         If you want to keep old densities, please start your calculation with a different basename. 


WARNING: your system is open-shell and RHF/RKS was chosen
  ===> : WILL SWITCH to UHF/UKS


INFO   : the flag for use of the SHARK integral package has been found!

================================================================================
                                       INPUT FILE
================================================================================
NAME = EPRII.inp
|  1> ! B3LYP EPR-II AUTOAUX
|  2> %pal nprocs 16 end
|  3> *XYZFile 0 2 opt.xyz
|  4> %EPRNMR
|  5>         GTENSOR   TRUE
|  6>         NUCLEI    = ALL H {SHIFT, AISO, ADIP, AORB}
|  7> END
|  8> 
|  9>                          ****END OF INPUT****
================================================================================

                       ****************************
                       * Single Point Calculation *
                       ****************************

---------------------------------
CARTESIAN COORDINATES (ANGSTROEM)
---------------------------------
  C     12.367468   -0.026690   -0.004521
  C     11.143536   -0.068421   -0.003249
  C      5.470105   -0.000456   -0.000953
  C      9.724522   -0.088645   -0.002867
  C      8.990628   -1.335024   -0.006403
  C      7.570759   -1.236349   -0.005487
  C      6.897637   -0.011889   -0.001450
  C      7.634424    1.217416    0.002056
  C      9.026112    1.135702    0.001259
  H      6.974675   -2.149130   -0.008114
  H      9.619812    2.049654    0.003881
  C      9.646865   -2.583921   -0.010645
  H     10.739981   -2.573932   -0.011197
  C      8.960510   -3.917165   -0.014594
  H      8.287887   -4.000132    0.864048
  H      8.286468   -3.994223   -0.892681
  C      9.932017   -5.104805   -0.019413
  H     10.591664   -5.026394   -0.902868
  H     10.593459   -5.032110    0.863189
  C      9.223189   -6.460465   -0.023106
  H      8.579052   -6.573687   -0.912248
  H      8.580972   -6.579530    0.866660
  C      6.888617    2.535280    0.006628
  H      6.209492    2.550134   -0.866458
  H      6.212355    2.545704    0.882021
  C      7.733771    3.811741    0.008515
  H      8.398339    3.820953    0.891977
  H      8.396097    3.824967   -0.876584
  C      6.878227    5.084572    0.012531
  H      6.210709    5.076758   -0.869130
  H      6.212980    5.072748    0.895865
  C      7.710095    6.369491    0.014397
  H      8.360072    6.427193   -0.875761
  H      8.362497    6.423053    0.903036
  C      4.247577    0.004948    0.000113
  H      9.945336   -7.292652   -0.026626
  H      7.068970    7.265890    0.017359
  C      2.821946    0.006500    0.000494
  C      2.097893   -1.206838   -0.000235
  C      0.707780   -1.204952    0.000050
  C     -0.010741    0.009504    0.001091
  C      0.710352    1.222515    0.001864
  C      2.100373    1.221345    0.001582
  H     -3.729592    0.014614    0.001756
  H      0.163384    2.167010    0.002651
  H      2.643820   -2.151876   -0.001021
  H      2.647986    2.165427    0.002150
  H      0.158864   -2.148310   -0.000515
  C     13.789722    0.031477   -0.005118
  C     14.565302   -1.150711   -0.007168
  C     15.953740   -1.090712   -0.007603
  C     16.621353    0.152770   -0.006014
  C     15.849687    1.334610   -0.003972
  C     14.461312    1.275873   -0.003524
  H     20.336530    0.314151   -0.006977
  H     16.356949    2.301040   -0.002743
  H     14.060641   -2.118439   -0.008361
  H     13.874663    2.196192   -0.001939
  H     16.541337   -2.010509   -0.009127
  C     18.050568    0.214344   -0.006425
  C     19.265095    0.266906   -0.006700
  C     -1.441545    0.011220    0.001350
  C     -2.657087    0.013045    0.001570

----------------------------
CARTESIAN COORDINATES (A.U.)
----------------------------
  NO LB      ZA    FRAG     MASS         X           Y           Z
   0 C     6.0000    0    12.011   23.371127   -0.050437   -0.008544
   1 C     6.0000    0    12.011   21.058231   -0.129298   -0.006139
   2 C     6.0000    0    12.011   10.337001   -0.000863   -0.001801
   3 C     6.0000    0    12.011   18.376683   -0.167515   -0.005419
   4 C     6.0000    0    12.011   16.989825   -2.522829   -0.012100
   5 C     6.0000    0    12.011   14.306661   -2.336361   -0.010368
   6 C     6.0000    0    12.011   13.034644   -0.022466   -0.002740
   7 C     6.0000    0    12.011   14.426971    2.300582    0.003886
   8 C     6.0000    0    12.011   17.056879    2.146165    0.002380
   9 H     1.0000    0     1.008   13.180226   -4.061267   -0.015334
  10 H     1.0000    0     1.008   18.178810    3.873284    0.007333
  11 C     6.0000    0    12.011   18.229932   -4.882903   -0.020115
  12 H     1.0000    0     1.008   20.295623   -4.864027   -0.021159
  13 C     6.0000    0    12.011   16.932910   -7.402370   -0.027579
  14 H     1.0000    0     1.008   15.661837   -7.559153    1.632815
  15 H     1.0000    0     1.008   15.659155   -7.547987   -1.686923
  16 C     6.0000    0    12.011   18.768793   -9.646684   -0.036684
  17 H     1.0000    0     1.008   20.015344   -9.498508   -1.706173
  18 H     1.0000    0     1.008   20.018735   -9.509311    1.631190
  19 C     6.0000    0    12.011   17.429302  -12.208509   -0.043665
  20 H     1.0000    0     1.008   16.212060  -12.422469   -1.723899
  21 H     1.0000    0     1.008   16.215687  -12.433511    1.637751
  22 C     6.0000    0    12.011   13.017600    4.790985    0.012525
  23 H     1.0000    0     1.008   11.734239    4.819054   -1.637369
  24 H     1.0000    0     1.008   11.739649    4.810684    1.666779
  25 C     6.0000    0    12.011   14.614710    7.203147    0.016092
  26 H     1.0000    0     1.008   15.870560    7.220554    1.685593
  27 H     1.0000    0     1.008   15.866324    7.228139   -1.656504
  28 C     6.0000    0    12.011   12.997964    9.608448    0.023680
  29 H     1.0000    0     1.008   11.736539    9.593681   -1.642418
  30 H     1.0000    0     1.008   11.740831    9.586104    1.692939
  31 C     6.0000    0    12.011   14.569969   12.036594    0.027206
  32 H     1.0000    0     1.008   15.798247   12.145635   -1.654948
  33 H     1.0000    0     1.008   15.802829   12.137812    1.706491
  34 C     6.0000    0    12.011    8.026758    0.009350    0.000214
  35 H     1.0000    0     1.008   18.793961  -13.781115   -0.050315
  36 H     1.0000    0     1.008   13.358418   13.730542    0.032803
  37 C     6.0000    0    12.011    5.332705    0.012283    0.000934
  38 C     6.0000    0    12.011    3.964444   -2.280593   -0.000445
  39 C     6.0000    0    12.011    1.337511   -2.277030    0.000095
  40 C     6.0000    0    12.011   -0.020297    0.017959    0.002061
  41 C     6.0000    0    12.011    1.342371    2.310219    0.003522
  42 C     6.0000    0    12.011    3.969130    2.308007    0.002990
  43 H     1.0000    0     1.008   -7.047908    0.027617    0.003319
  44 H     1.0000    0     1.008    0.308752    4.095056    0.005010
  45 H     1.0000    0     1.008    4.996095   -4.066456   -0.001929
  46 H     1.0000    0     1.008    5.003968    4.092065    0.004063
  47 H     1.0000    0     1.008    0.300210   -4.059718   -0.000974
  48 C     6.0000    0    12.011   26.058799    0.059483   -0.009671
  49 C     6.0000    0    12.011   27.524432   -2.174528   -0.013545
  50 C     6.0000    0    12.011   30.148200   -2.061147   -0.014368
  51 C     6.0000    0    12.011   31.409804    0.288694   -0.011365
  52 C     6.0000    0    12.011   29.951568    2.522047   -0.007506
  53 C     6.0000    0    12.011   27.327919    2.411051   -0.006659
  54 H     1.0000    0     1.008   38.430472    0.593660   -0.013185
  55 H     1.0000    0     1.008   30.910154    4.348335   -0.005184
  56 H     1.0000    0     1.008   26.570761   -4.003270   -0.015800
  57 H     1.0000    0     1.008   26.219314    4.150201   -0.003664
  58 H     1.0000    0     1.008   31.258597   -3.799311   -0.017248
  59 C     6.0000    0    12.011   34.110630    0.405052   -0.012142
  60 C     6.0000    0    12.011   36.405754    0.504380   -0.012661
  61 C     6.0000    0    12.011   -2.724125    0.021203    0.002552
  62 C     6.0000    0    12.011   -5.021166    0.024652    0.002966

--------------------------------
INTERNAL COORDINATES (ANGSTROEM)
--------------------------------
 C      0   0   0     0.000000000000     0.00000000     0.00000000
 C      1   0   0     1.224643686925     0.00000000     0.00000000
 C      2   1   0     5.673838187034   177.36060450     0.00000000
 C      2   1   3     1.419158494039   178.86285161     1.43629221
 C      4   2   1     1.446399644311   121.30681375   177.60152958
 C      5   4   2     1.423294321543   116.51483908   179.99210644
 C      6   5   4     1.397287531006   122.77429484     0.00000000
 C      7   6   5     1.433198517079   120.26481045     0.00000000
 C      8   7   6     1.394084566035   117.57601089     0.00000000
 H      6   5   4     1.090179668029   119.17055408   179.99617110
 H      9   8   7     1.089860143609   119.64710359   180.00196681
 C      5   4   2     1.410818582802   121.78998178     0.00000000
 H     12   5   4     1.093162195291   117.19618834     0.00000000
 C     12   5   4     1.499546135283   125.04101924   180.00552152
 H     14  12   5     1.109647473993   109.98868380   302.58882704
 H     14  12   5     1.109643094317   109.99004089    57.36111334
 C     14  12   5     1.534385319986   113.47720849   179.97395482
 H     17  14  12     1.105339216581   108.99338697   302.32673172
 H     17  14  12     1.105338729230   108.99421469    57.64500523
 C     17  14  12     1.529791696594   113.11306921   179.98724071
 H     20  17  14     1.103768414177   111.29981852    59.86793690
 H     20  17  14     1.103768376503   111.29944896   300.12115275
 C      8   7   6     1.514270525983   119.55729967   180.00950784
 H     23   8   7     1.106215238962   108.15986336   303.79724306
 H     23   8   7     1.106233928275   108.16030722    56.34969821
 C     23   8   7     1.530895836122   116.98482842   180.07184101
 H     26  23   8     1.105549548081   109.86405072   301.71437730
 H     26  23   8     1.105554571414   109.86002791    58.23506451
 C     26  23   8     1.533646095360   112.58388640   179.97493976
 H     29  26  23     1.105878174063   109.19422307   302.33229829
 H     29  26  23     1.105880647345   109.19562080    57.67282599
 C     29  26  23     1.530695104949   113.17331240   180.00234725
 H     32  29  26     1.103711805866   111.28120814    59.86478310
 H     32  29  26     1.103710395030   111.28184043   300.14489270
 C      3   2   1     1.222540304866   179.56611388   182.74903413
 H     20  17  14     1.101836114026   111.44632692   179.99430315
 H     32  29  26     1.102080221280   111.50748578   180.00470852
 C     35   3   7     1.425632241984   179.80597194   341.40060638
 C     38  35   3     1.412955207351   120.76401976    10.24474190
 C     39  38  35     1.390114262744   120.74868183   180.00412331
 C     40  39  38     1.411090737373   120.68797962     0.00000000
 C     41  40  39     1.411160347010   118.65974881     0.00000000
 C     42  41  40     1.390021364183   120.68173392     0.00000000
 H     41  40  39     3.718855155409   120.68900025   179.99822411
 H     42  41  40     1.091441798284   119.19437651   179.99883027
 H     39  38  35     1.091390276831   119.15957648     0.00000000
 H     43  42  41     1.091408165689   120.06748905   179.99779105
 H     40  39  38     1.091436344236   120.11630269   180.00025693
 C      1   2   4     1.423443597639   179.60920788     7.44143248
 C     49   1   2     1.413893907784   120.92509249   174.86520633
 C     50  49   1     1.389733854762   120.79266478   180.00683349
 C     51  50  49     1.411366850357   120.70523686     0.00000000
 C     52  51  50     1.411458844567   118.62720706     0.00000000
 C     53  52  51     1.389617312832   120.71944660     0.00000000
 H     52  51  50     3.718680648391   120.71811885   179.99640529
 H     53  52  51     1.091468470596   119.16391950   180.00061579
 H     50  49   1     1.091413049417   119.19138329     0.00000000
 H     54  53  52     1.091396032447   120.09260568   179.99998091
 H     51  50  49     1.091466534876   120.09740915   179.99604153
 C     52  51  50     1.430541355691   120.69775201   179.99826963
 C     55  52  51     1.072475526105     0.03755270   359.96619108
 C     41  40  39     1.430805003159   120.67899214   179.99839317
 C     44  41  40     1.072506840651     0.00507994     3.23432183

---------------------------
INTERNAL COORDINATES (A.U.)
---------------------------
 C      0   0   0     0.000000000000     0.00000000     0.00000000
 C      1   0   0     2.314241179924     0.00000000     0.00000000
 C      2   1   0    10.722000301679   177.36060450     0.00000000
 C      2   1   3     2.681820894361   178.86285161     1.43629221
 C      4   2   1     2.733299207949   121.30681375   177.60152958
 C      5   4   2     2.689636475681   116.51483908   179.99210644
 C      6   5   4     2.640490763944   122.77429484     0.00000000
 C      7   6   5     2.708352692821   120.26481045     0.00000000
 C      8   7   6     2.634438037332   117.57601089     0.00000000
 H      6   5   4     2.060141009344   119.17055408   179.99617110
 H      9   8   7     2.059537195697   119.64710359   180.00196681
 C      5   4   2     2.666060746143   121.78998178     0.00000000
 H     12   5   4     2.065777169056   117.19618834     0.00000000
 C     12   5   4     2.833731520865   125.04101924   180.00552152
 H     14  12   5     2.096929831044   109.98868380   302.58882704
 H     14  12   5     2.096921554655   109.99004089    57.36111334
 C     14  12   5     2.899568038683   113.47720849   179.97395482
 H     17  14  12     2.088788404421   108.99338697   302.32673172
 H     17  14  12     2.088787483462   108.99421469    57.64500523
 C     17  14  12     2.890887348510   113.11306921   179.98724071
 H     20  17  14     2.085820018067   111.29981852    59.86793690
 H     20  17  14     2.085819946873   111.29944896   300.12115275
 C      8   7   6     2.861556586777   119.55729967   180.00950784
 H     23   8   7     2.090443846808   108.15986336   303.79724306
 H     23   8   7     2.090479164493   108.16030722    56.34969821
 C     23   8   7     2.892973869831   116.98482842   180.07184101
 H     26  23   8     2.089185873353   109.86405072   301.71437730
 H     26  23   8     2.089195366078   109.86002791    58.23506451
 C     26  23   8     2.898171106589   112.58388640   179.97493976
 H     29  26  23     2.089806886460   109.19422307   302.33229829
 H     29  26  23     2.089811560285   109.19562080    57.67282599
 C     29  26  23     2.892594542888   113.17331240   180.00234725
 H     32  29  26     2.085713043862   111.28120814    59.86478310
 H     32  29  26     2.085710377769   111.28184043   300.14489270
 C      3   2   1     2.310266363877   179.56611388   182.74903413
 H     20  17  14     2.082168499973   111.44632692   179.99430315
 H     32  29  26     2.082629795831   111.50748578   180.00470852
 C     35   3   7     2.694054505037   179.80597194   341.40060638
 C     38  35   3     2.670098381392   120.76401976    10.24474190
 C     39  38  35     2.626935251443   120.74868183   180.00412331
 C     40  39  38     2.666575043749   120.68797962     0.00000000
 C     41  40  39     2.666706586898   118.65974881     0.00000000
 C     42  41  40     2.626759698605   120.68173392     0.00000000
 H     41  40  39     7.027617775444   120.68900025   179.99822411
 H     42  41  40     2.062526089870   119.19437651   179.99883027
 H     39  38  35     2.062428728434   119.15957648     0.00000000
 H     43  42  41     2.062462533477   120.06748905   179.99779105
 H     40  39  38     2.062515783214   120.11630269   180.00025693
 C      1   2   4     2.689918566621   179.60920788     7.44143248
 C     49   1   2     2.671872268132   120.92509249   174.86520633
 C     50  49   1     2.626216384538   120.79266478   180.00683349
 C     51  50  49     2.667096821670   120.70523686     0.00000000
 C     52  51  50     2.667270665532   118.62720706     0.00000000
 C     53  52  51     2.625996152207   120.71944660     0.00000000
 H     52  51  50     7.027288004972   120.71811885   179.99640529
 H     53  52  51     2.062576493237   119.16391950   180.00061579
 H     50  49   1     2.062471762386   119.19138329     0.00000000
 H     54  53  52     2.062439604972   120.09260568   179.99998091
 H     51  50  49     2.062572835256   120.09740915   179.99604153
 C     52  51  50     2.703331385504   120.69775201   179.99826963
 C     55  52  51     2.026685029672     0.03755270   359.96619108
 C     41  40  39     2.703829607015   120.67899214   179.99839317
 C     44  41  40     2.026744205587     0.00507994     3.23432183

---------------------
BASIS SET INFORMATION
---------------------
There are 2 groups of distinct atoms

 Group   1 Type C   : 10s5p1d contracted to 6s2p1d pattern {511111/41/1}
 Group   2 Type H   : 6s1p contracted to 4s1p pattern {3111/1}

Atom   0C    basis set group =>   1
Atom   1C    basis set group =>   1
Atom   2C    basis set group =>   1
Atom   3C    basis set group =>   1
Atom   4C    basis set group =>   1
Atom   5C    basis set group =>   1
Atom   6C    basis set group =>   1
Atom   7C    basis set group =>   1
Atom   8C    basis set group =>   1
Atom   9H    basis set group =>   2
Atom  10H    basis set group =>   2
Atom  11C    basis set group =>   1
Atom  12H    basis set group =>   2
Atom  13C    basis set group =>   1
Atom  14H    basis set group =>   2
Atom  15H    basis set group =>   2
Atom  16C    basis set group =>   1
Atom  17H    basis set group =>   2
Atom  18H    basis set group =>   2
Atom  19C    basis set group =>   1
Atom  20H    basis set group =>   2
Atom  21H    basis set group =>   2
Atom  22C    basis set group =>   1
Atom  23H    basis set group =>   2
Atom  24H    basis set group =>   2
Atom  25C    basis set group =>   1
Atom  26H    basis set group =>   2
Atom  27H    basis set group =>   2
Atom  28C    basis set group =>   1
Atom  29H    basis set group =>   2
Atom  30H    basis set group =>   2
Atom  31C    basis set group =>   1
Atom  32H    basis set group =>   2
Atom  33H    basis set group =>   2
Atom  34C    basis set group =>   1
Atom  35H    basis set group =>   2
Atom  36H    basis set group =>   2
Atom  37C    basis set group =>   1
Atom  38C    basis set group =>   1
Atom  39C    basis set group =>   1
Atom  40C    basis set group =>   1
Atom  41C    basis set group =>   1
Atom  42C    basis set group =>   1
Atom  43H    basis set group =>   2
Atom  44H    basis set group =>   2
Atom  45H    basis set group =>   2
Atom  46H    basis set group =>   2
Atom  47H    basis set group =>   2
Atom  48C    basis set group =>   1
Atom  49C    basis set group =>   1
Atom  50C    basis set group =>   1
Atom  51C    basis set group =>   1
Atom  52C    basis set group =>   1
Atom  53C    basis set group =>   1
Atom  54H    basis set group =>   2
Atom  55H    basis set group =>   2
Atom  56H    basis set group =>   2
Atom  57H    basis set group =>   2
Atom  58H    basis set group =>   2
Atom  59C    basis set group =>   1
Atom  60C    basis set group =>   1
Atom  61C    basis set group =>   1
Atom  62C    basis set group =>   1
---------------------------------
AUXILIARY/J BASIS SET INFORMATION
---------------------------------
There are 2 groups of distinct atoms

 Group   1 Type C   : 17s13p12d2f contracted to 17s13p12d2f pattern {11111111111111111/1111111111111/111111111111/11}
 Group   2 Type H   : 15s6p1d contracted to 15s6p1d pattern {111111111111111/111111/1}

Atom   0C    basis set group =>   1
Atom   1C    basis set group =>   1
Atom   2C    basis set group =>   1
Atom   3C    basis set group =>   1
Atom   4C    basis set group =>   1
Atom   5C    basis set group =>   1
Atom   6C    basis set group =>   1
Atom   7C    basis set group =>   1
Atom   8C    basis set group =>   1
Atom   9H    basis set group =>   2
Atom  10H    basis set group =>   2
Atom  11C    basis set group =>   1
Atom  12H    basis set group =>   2
Atom  13C    basis set group =>   1
Atom  14H    basis set group =>   2
Atom  15H    basis set group =>   2
Atom  16C    basis set group =>   1
Atom  17H    basis set group =>   2
Atom  18H    basis set group =>   2
Atom  19C    basis set group =>   1
Atom  20H    basis set group =>   2
Atom  21H    basis set group =>   2
Atom  22C    basis set group =>   1
Atom  23H    basis set group =>   2
Atom  24H    basis set group =>   2
Atom  25C    basis set group =>   1
Atom  26H    basis set group =>   2
Atom  27H    basis set group =>   2
Atom  28C    basis set group =>   1
Atom  29H    basis set group =>   2
Atom  30H    basis set group =>   2
Atom  31C    basis set group =>   1
Atom  32H    basis set group =>   2
Atom  33H    basis set group =>   2
Atom  34C    basis set group =>   1
Atom  35H    basis set group =>   2
Atom  36H    basis set group =>   2
Atom  37C    basis set group =>   1
Atom  38C    basis set group =>   1
Atom  39C    basis set group =>   1
Atom  40C    basis set group =>   1
Atom  41C    basis set group =>   1
Atom  42C    basis set group =>   1
Atom  43H    basis set group =>   2
Atom  44H    basis set group =>   2
Atom  45H    basis set group =>   2
Atom  46H    basis set group =>   2
Atom  47H    basis set group =>   2
Atom  48C    basis set group =>   1
Atom  49C    basis set group =>   1
Atom  50C    basis set group =>   1
Atom  51C    basis set group =>   1
Atom  52C    basis set group =>   1
Atom  53C    basis set group =>   1
Atom  54H    basis set group =>   2
Atom  55H    basis set group =>   2
Atom  56H    basis set group =>   2
Atom  57H    basis set group =>   2
Atom  58H    basis set group =>   2
Atom  59C    basis set group =>   1
Atom  60C    basis set group =>   1
Atom  61C    basis set group =>   1
Atom  62C    basis set group =>   1
---------------------------------
AUXILIARY/C BASIS SET INFORMATION
---------------------------------
There are 2 groups of distinct atoms

 Group   1 Type C   : 17s13p12d2f contracted to 17s13p12d2f pattern {11111111111111111/1111111111111/111111111111/11}
 Group   2 Type H   : 15s6p1d contracted to 15s6p1d pattern {111111111111111/111111/1}

Atom   0C    basis set group =>   1
Atom   1C    basis set group =>   1
Atom   2C    basis set group =>   1
Atom   3C    basis set group =>   1
Atom   4C    basis set group =>   1
Atom   5C    basis set group =>   1
Atom   6C    basis set group =>   1
Atom   7C    basis set group =>   1
Atom   8C    basis set group =>   1
Atom   9H    basis set group =>   2
Atom  10H    basis set group =>   2
Atom  11C    basis set group =>   1
Atom  12H    basis set group =>   2
Atom  13C    basis set group =>   1
Atom  14H    basis set group =>   2
Atom  15H    basis set group =>   2
Atom  16C    basis set group =>   1
Atom  17H    basis set group =>   2
Atom  18H    basis set group =>   2
Atom  19C    basis set group =>   1
Atom  20H    basis set group =>   2
Atom  21H    basis set group =>   2
Atom  22C    basis set group =>   1
Atom  23H    basis set group =>   2
Atom  24H    basis set group =>   2
Atom  25C    basis set group =>   1
Atom  26H    basis set group =>   2
Atom  27H    basis set group =>   2
Atom  28C    basis set group =>   1
Atom  29H    basis set group =>   2
Atom  30H    basis set group =>   2
Atom  31C    basis set group =>   1
Atom  32H    basis set group =>   2
Atom  33H    basis set group =>   2
Atom  34C    basis set group =>   1
Atom  35H    basis set group =>   2
Atom  36H    basis set group =>   2
Atom  37C    basis set group =>   1
Atom  38C    basis set group =>   1
Atom  39C    basis set group =>   1
Atom  40C    basis set group =>   1
Atom  41C    basis set group =>   1
Atom  42C    basis set group =>   1
Atom  43H    basis set group =>   2
Atom  44H    basis set group =>   2
Atom  45H    basis set group =>   2
Atom  46H    basis set group =>   2
Atom  47H    basis set group =>   2
Atom  48C    basis set group =>   1
Atom  49C    basis set group =>   1
Atom  50C    basis set group =>   1
Atom  51C    basis set group =>   1
Atom  52C    basis set group =>   1
Atom  53C    basis set group =>   1
Atom  54H    basis set group =>   2
Atom  55H    basis set group =>   2
Atom  56H    basis set group =>   2
Atom  57H    basis set group =>   2
Atom  58H    basis set group =>   2
Atom  59C    basis set group =>   1
Atom  60C    basis set group =>   1
Atom  61C    basis set group =>   1
Atom  62C    basis set group =>   1
----------------------------------
AUXILIARY/JK BASIS SET INFORMATION
----------------------------------
There are 2 groups of distinct atoms

 Group   1 Type C   : 17s13p12d2f contracted to 17s13p12d2f pattern {11111111111111111/1111111111111/111111111111/11}
 Group   2 Type H   : 15s6p1d contracted to 15s6p1d pattern {111111111111111/111111/1}

Atom   0C    basis set group =>   1
Atom   1C    basis set group =>   1
Atom   2C    basis set group =>   1
Atom   3C    basis set group =>   1
Atom   4C    basis set group =>   1
Atom   5C    basis set group =>   1
Atom   6C    basis set group =>   1
Atom   7C    basis set group =>   1
Atom   8C    basis set group =>   1
Atom   9H    basis set group =>   2
Atom  10H    basis set group =>   2
Atom  11C    basis set group =>   1
Atom  12H    basis set group =>   2
Atom  13C    basis set group =>   1
Atom  14H    basis set group =>   2
Atom  15H    basis set group =>   2
Atom  16C    basis set group =>   1
Atom  17H    basis set group =>   2
Atom  18H    basis set group =>   2
Atom  19C    basis set group =>   1
Atom  20H    basis set group =>   2
Atom  21H    basis set group =>   2
Atom  22C    basis set group =>   1
Atom  23H    basis set group =>   2
Atom  24H    basis set group =>   2
Atom  25C    basis set group =>   1
Atom  26H    basis set group =>   2
Atom  27H    basis set group =>   2
Atom  28C    basis set group =>   1
Atom  29H    basis set group =>   2
Atom  30H    basis set group =>   2
Atom  31C    basis set group =>   1
Atom  32H    basis set group =>   2
Atom  33H    basis set group =>   2
Atom  34C    basis set group =>   1
Atom  35H    basis set group =>   2
Atom  36H    basis set group =>   2
Atom  37C    basis set group =>   1
Atom  38C    basis set group =>   1
Atom  39C    basis set group =>   1
Atom  40C    basis set group =>   1
Atom  41C    basis set group =>   1
Atom  42C    basis set group =>   1
Atom  43H    basis set group =>   2
Atom  44H    basis set group =>   2
Atom  45H    basis set group =>   2
Atom  46H    basis set group =>   2
Atom  47H    basis set group =>   2
Atom  48C    basis set group =>   1
Atom  49C    basis set group =>   1
Atom  50C    basis set group =>   1
Atom  51C    basis set group =>   1
Atom  52C    basis set group =>   1
Atom  53C    basis set group =>   1
Atom  54H    basis set group =>   2
Atom  55H    basis set group =>   2
Atom  56H    basis set group =>   2
Atom  57H    basis set group =>   2
Atom  58H    basis set group =>   2
Atom  59C    basis set group =>   1
Atom  60C    basis set group =>   1
Atom  61C    basis set group =>   1
Atom  62C    basis set group =>   1

Checking for AutoStart:
The File: EPRII.gbw exists
Trying to determine its content:
     ... Fine, the file contains calculation information
     ... Fine, the calculation information was read
     ... Fine, the file contains a basis set
     ... Fine, the basis set was read
     ... Fine, the file contains a geometry
     ... Fine, the geometry was read
     ... Fine, the file contains a set of orbitals
     ... Fine, the orbitals can be read
     => possible old guess file was deleted
     => GBW file was renamed to GES file
     => GES file is set as startup file
     => Guess is set to MORead
     ... now leaving AutoStart



           ************************************************************
           *        Program running with 16 parallel MPI-processes    *
           *              working on a common directory               *
           ************************************************************
------------------------------------------------------------------------------
                           ORCA GTO INTEGRAL CALCULATION
                           -- RI-GTO INTEGRALS CHOSEN --
------------------------------------------------------------------------------
------------------------------------------------------------------------------
                   ___                                                        
                  /   \      - P O W E R E D   B Y -                         
                 /     \                                                     
                 |  |  |   _    _      __       _____    __    __             
                 |  |  |  | |  | |    /  \     |  _  \  |  |  /  |          
                  \  \/   | |  | |   /    \    | | | |  |  | /  /          
                 / \  \   | |__| |  /  /\  \   | |_| |  |  |/  /          
                |  |  |   |  __  | /  /__\  \  |    /   |      \           
                |  |  |   | |  | | |   __   |  |    \   |  |\   \          
                \     /   | |  | | |  |  |  |  | |\  \  |  | \   \       
                 \___/    |_|  |_| |__|  |__|  |_| \__\ |__|  \__/        
                                                                              
                      - O R C A' S   B I G   F R I E N D -                    
                                      &                                       
                       - I N T E G R A L  F E E D E R -                       
                                                                              
 v1 FN, 2020, v2 2021                                                         
------------------------------------------------------------------------------


Reading SHARK input file EPRII.SHARKINP.tmp ... ok
----------------------
SHARK INTEGRAL PACKAGE
----------------------

Number of atoms                             ...     63
Number of basis functions                   ...    781
Number of shells                            ...    451
Maximum angular momentum                    ...      2
Integral batch strategy                     ... SHARK/LIBINT Hybrid
RI-J (if used) integral strategy            ... SPLIT-RIJ (Revised 2003 algorithm where possible)
Printlevel                                  ...      1
Contraction scheme used                     ... SEGMENTED contraction
Coulomb Range Separation                    ... NOT USED
Exchange Range Separation                   ... NOT USED
Finite Nucleus Model                        ... NOT USED
Auxiliary Coulomb fitting basis             ... AVAILABLE
   # of basis functions in Aux-J            ...   5522
   # of shells in Aux-J                     ...   2134
   Maximum angular momentum in Aux-J        ...      3
Auxiliary J/K fitting basis                 ... AVAILABLE
   # of basis functions in Aux-JK           ...   5522
   # of shells in Aux-JK                    ...   2134
   Maximum angular momentum in Aux-JK       ...      3
Auxiliary Correlation fitting basis         ... AVAILABLE
   # of basis functions in Aux-C            ...   5522
   # of shells in Aux-C                     ...   2134
   Maximum angular momentum in Aux-C        ...      3
Auxiliary 'external' fitting basis          ... NOT available
Integral threshold                          ...     1.000000e-10
Primitive cut-off                           ...     1.000000e-11
Primitive pair pre-selection threshold      ...     1.000000e-11

Calculating pre-screening integrals         ... done (  0.1 sec) Dimension = 451
Organizing shell pair data                  ... done (  0.3 sec)
Shell pair information
Total number of shell pairs                 ...    101926
Shell pairs after pre-screening             ...     42144
Total number of primitive shell pairs       ...    280009
Primitive shell pairs kept                  ...     78859
          la=0 lb=0:  19299 shell pairs
          la=1 lb=0:  14369 shell pairs
          la=1 lb=1:   2619 shell pairs
          la=2 lb=0:   4080 shell pairs
          la=2 lb=1:   1540 shell pairs
          la=2 lb=2:    237 shell pairs

Calculating one electron integrals          ... done (  0.1 sec)
Calculating RI/J V-Matrix + Cholesky decomp.... done (  1.8 sec)
Calculating RI/JK V-Matrix + Cholesky decomp... done (  1.8 sec)
Calculating RI/C V-Matrix + Cholesky decomp.... done (  1.7 sec)
Calculating Nuclear repulsion               ... done (  0.0 sec) ENN=   2735.916553133097 Eh

SHARK setup successfully completed in   6.1 seconds

Maximum memory used throughout the entire GTOINT-calculation: 95.7 MB


           ************************************************************
           *        Program running with 16 parallel MPI-processes    *
           *              working on a common directory               *
           ************************************************************
-------------------------------------------------------------------------------
                                 ORCA SCF
-------------------------------------------------------------------------------

------------
SCF SETTINGS
------------
Hamiltonian:
 Density Functional     Method          .... DFT(GTOs)
 Exchange Functional    Exchange        .... B88
   X-Alpha parameter    XAlpha          ....  0.666667
   Becke's b parameter  XBeta           ....  0.004200
 Correlation Functional Correlation     .... LYP
 LDA part of GGA corr.  LDAOpt          .... VWN-5
 Gradients option       PostSCFGGA      .... off
 Hybrid DFT is turned on
   Fraction HF Exchange ScalHFX         ....  0.200000
   Scaling of DF-GGA-X  ScalDFX         ....  0.720000
   Scaling of DF-GGA-C  ScalDFC         ....  0.810000
   Scaling of DF-LDA-C  ScalLDAC        ....  1.000000
   Perturbative correction              ....  0.000000
   Density functional embedding theory  .... OFF
   NL short-range parameter             ....  4.800000
 RI-approximation to the Coulomb term is turned on
   Number of AuxJ basis functions       .... 5522
   RIJ-COSX (HFX calculated with COS-X)).... on


General Settings:
 Integral files         IntName         .... EPRII
 Hartree-Fock type      HFTyp           .... UHF
 Total Charge           Charge          ....    0
 Multiplicity           Mult            ....    2
 Number of Electrons    NEL             ....  233
 Basis Dimension        Dim             ....  781
 Nuclear Repulsion      ENuc            ....   2735.9165531331 Eh

Convergence Acceleration:
 DIIS                   CNVDIIS         .... on
   Start iteration      DIISMaxIt       ....    12
   Startup error        DIISStart       ....  0.200000
   # of expansion vecs  DIISMaxEq       ....     5
   Bias factor          DIISBfac        ....   1.050
   Max. coefficient     DIISMaxC        ....  10.000
 Trust-Rad. Augm. Hess. CNVTRAH         .... auto
   Auto Start mean grad. ratio tolernc. ....  1.125000
   Auto Start start iteration           ....     1
   Auto Start num. interpolation iter.  ....    10
   Max. Number of Micro iterations      ....    16
   Max. Number of Macro iterations      .... Maxiter - #DIIS iter
   Number of Davidson start vectors     ....     2
   Converg. threshold I  (grad. norm)   ....   5.000e-05
   Converg. threshold II (energy diff.) ....   1.000e-06
   Grad. Scal. Fac. for Micro threshold ....   0.100
   Minimum threshold for Micro iter.    ....   0.010
   NR start threshold (gradient norm)   ....   0.001
   Initial trust radius                 ....   0.400
   Minimum AH scaling param. (alpha)    ....   1.000
   Maximum AH scaling param. (alpha)    .... 1000.000
   Orbital update algorithm             .... Taylor
   White noise on init. David. guess    .... on
   Maximum white noise                  ....   0.010
   Quad. conv. algorithm                .... NR
 SOSCF                  CNVSOSCF        .... off
 Level Shifting         CNVShift        .... on
   Level shift para.    LevelShift      ....    0.2500
   Turn off err/grad.   ShiftErr        ....    0.0010
 Zerner damping         CNVZerner       .... off
 Static damping         CNVDamp         .... on
   Fraction old density DampFac         ....    0.7000
   Max. Damping (<1)    DampMax         ....    0.9800
   Min. Damping (>=0)   DampMin         ....    0.0000
   Turn off err/grad.   DampErr         ....    0.1000
 Fernandez-Rico         CNVRico         .... off

SCF Procedure:
 Maximum # iterations   MaxIter         ....   125
 SCF integral mode      SCFMode         .... Direct
   Integral package                     .... SHARK and LIBINT hybrid scheme
 Reset frequency        DirectResetFreq ....    20
 Integral Threshold     Thresh          ....  1.000e-10 Eh
 Primitive CutOff       TCut            ....  1.000e-11 Eh

Convergence Tolerance:
 Convergence Check Mode ConvCheckMode   .... Total+1el-Energy
 Convergence forced     ConvForced      .... 0
 Energy Change          TolE            ....  1.000e-06 Eh
 1-El. energy change                    ....  1.000e-03 Eh
 DIIS Error             TolErr          ....  1.000e-06


Diagonalization of the overlap matrix:
Smallest eigenvalue                        ... 3.561e-05
Time for diagonalization                   ...    0.163 sec
Threshold for overlap eigenvalues          ... 1.000e-08
Number of eigenvalues below threshold      ... 0
Time for construction of square roots      ...    0.082 sec
Total time needed                          ...    0.248 sec

---------------------
INITIAL GUESS: MOREAD
---------------------
Guess MOs are being read from file: EPRII.ges
Input Geometry matches current geometry (good)
Input basis set matches current basis set (good)
MOs were renormalized
MOs were reorthogonalized (Cholesky)
                      ------------------
                      INITIAL GUESS DONE (   0.6 sec)
                      ------------------
-------------------
DFT GRID GENERATION
-------------------

General Integration Accuracy     IntAcc      ... 4.388
Radial Grid Type                 RadialGrid  ... OptM3 with GC (2021)
Angular Grid (max. ang.)         AngularGrid ... 4 (Lebedev-302)
Angular grid pruning method      GridPruning ... 4 (adaptive)
Weight generation scheme         WeightScheme... Becke
Basis function cutoff            BFCut       ... 1.0000e-10
Integration weight cutoff        WCut        ... 1.0000e-14
Angular grids for H and He will be reduced by one unit
Partially contracted basis set               ... off
Rotationally invariant grid construction     ... off

Total number of grid points                  ...   295746
Total number of batches                      ...     4659
Average number of points per batch           ...       63
Average number of grid points per atom       ...     4694
Time for grid setup =    1.857 sec

--------------------
COSX GRID GENERATION
--------------------

GRIDX 1
-------
General Integration Accuracy     IntAcc      ... 3.816
Radial Grid Type                 RadialGrid  ... OptM3 with GC (2021)
Angular Grid (max. ang.)         AngularGrid ... 1 (Lebedev-50)
Angular grid pruning method      GridPruning ... 4 (adaptive)
Weight generation scheme         WeightScheme... Becke
Basis function cutoff            BFCut       ... 1.0000e-10
Integration weight cutoff        WCut        ... 1.0000e-14
Angular grids for H and He will be reduced by one unit
Partially contracted basis set               ... on
Rotationally invariant grid construction     ... off

Total number of grid points                  ...    37650
Total number of batches                      ...      626
Average number of points per batch           ...       60
Average number of grid points per atom       ...      598
UseSFitting                                  ... on

GRIDX 2
-------
General Integration Accuracy     IntAcc      ... 4.020
Radial Grid Type                 RadialGrid  ... OptM3 with GC (2021)
Angular Grid (max. ang.)         AngularGrid ... 2 (Lebedev-110)
Angular grid pruning method      GridPruning ... 4 (adaptive)
Weight generation scheme         WeightScheme... Becke
Basis function cutoff            BFCut       ... 1.0000e-10
Integration weight cutoff        WCut        ... 1.0000e-14
Angular grids for H and He will be reduced by one unit
Partially contracted basis set               ... on
Rotationally invariant grid construction     ... off

Total number of grid points                  ...    81060
Total number of batches                      ...     1297
Average number of points per batch           ...       62
Average number of grid points per atom       ...     1287
UseSFitting                                  ... on

GRIDX 3
-------
General Integration Accuracy     IntAcc      ... 4.338
Radial Grid Type                 RadialGrid  ... OptM3 with GC (2021)
Angular Grid (max. ang.)         AngularGrid ... 3 (Lebedev-194)
Angular grid pruning method      GridPruning ... 4 (adaptive)
Weight generation scheme         WeightScheme... Becke
Basis function cutoff            BFCut       ... 1.0000e-10
Integration weight cutoff        WCut        ... 1.0000e-14
Angular grids for H and He will be reduced by one unit
Partially contracted basis set               ... on
Rotationally invariant grid construction     ... off

Total number of grid points                  ...   177420
Total number of batches                      ...     2807
Average number of points per batch           ...       63
Average number of grid points per atom       ...     2816
UseSFitting                                  ... on

Time for X-Grid setup             =    3.357 sec

--------------
SCF ITERATIONS
--------------
ITER       Energy         Delta-E        Max-DP      RMS-DP      [F,P]     Damp
               ***  Starting incremental Fock matrix formation  ***
  0  -1312.1275912019   0.000000000000 0.00116361  0.00000394  0.0000260 0.7000
                 **** Energy Check signals convergence ****

               *****************************************************
               *                     SUCCESS                       *
               *           SCF CONVERGED AFTER   1 CYCLES          *
               *****************************************************

Old exchange energy                            =    -37.221189287 Eh
New exchange energy                            =    -37.221231469 Eh
Exchange energy change after final integration =     -0.000042181 Eh
Total energy after final integration           =  -1312.127633223 Eh
Final COS-X integration done in                =    18.253 sec

----------------
TOTAL SCF ENERGY
----------------

Total Energy       :        -1312.12763322 Eh          -35704.80810 eV

Components:
Nuclear Repulsion  :         2735.91655313 Eh           74448.07428 eV
Electronic Energy  :        -4048.04418636 Eh         -110152.88238 eV
One Electron Energy:        -7207.64338865 Eh         -196129.94766 eV
Two Electron Energy:         3159.59920230 Eh           85977.06528 eV
Max COSX asymmetry :            0.00000349 Eh               0.00009 eV

Virial components:
Potential Energy   :        -2613.77151461 Eh          -71124.33880 eV
Kinetic Energy     :         1301.64388139 Eh           35419.53071 eV
Virial Ratio       :            2.00805424


DFT components:
N(Alpha)           :      117.000183826997 electrons
N(Beta)            :      116.000167904972 electrons
N(Total)           :      233.000351731970 electrons
E(X)               :     -147.728798204874 Eh       
E(C)               :       -9.124327585280 Eh       
E(XC)              :     -156.853125790154 Eh       
DFET-embed. en.    :        0.000000000000 Eh       

---------------
SCF CONVERGENCE
---------------

  Last Energy change         ...    1.6014e-07  Tolerance :   1.0000e-06
  Last MAX-Density change    ...    3.3014e-04  Tolerance :   1.0000e-05
  Last RMS-Density change    ...    1.1414e-06  Tolerance :   1.0000e-06
  Last DIIS Error            ...    1.5582e-05  Tolerance :   1.0000e-06

             **** THE GBW FILE WAS UPDATED (EPRII.gbw) ****
             **** DENSITY EPRII.scfp WAS UPDATED ****
             **** ENERGY FILE WAS UPDATED (EPRII.en.tmp) ****
----------------------
UHF SPIN CONTAMINATION
----------------------

Warning: in a DFT calculation there is little theoretical justification to 
         calculate <S**2> as in Hartree-Fock theory. We will do it anyways
         but you should keep in mind that the values have only limited relevance

Expectation value of <S**2>     :     0.789429
Ideal value S*(S+1) for S=0.5   :     0.750000
Deviation                       :     0.039429

             **** THE GBW FILE WAS UPDATED (EPRII.gbw) ****
             **** DENSITY EPRII.scfp WAS UPDATED ****
----------------
ORBITAL ENERGIES
----------------
                 SPIN UP ORBITALS
  NO   OCC          E(Eh)            E(eV) 
   0   1.0000     -10.235574      -278.5241 
   1   1.0000     -10.235066      -278.5103 
   2   1.0000     -10.233789      -278.4756 
   3   1.0000     -10.233572      -278.4697 
   4   1.0000     -10.227348      -278.3003 
   5   1.0000     -10.225482      -278.2495 
   6   1.0000     -10.214705      -277.9563 
   7   1.0000     -10.213351      -277.9194 
   8   1.0000     -10.213281      -277.9175 
   9   1.0000     -10.212394      -277.8934 
  10   1.0000     -10.212284      -277.8904 
  11   1.0000     -10.211786      -277.8768 
  12   1.0000     -10.211754      -277.8759 
  13   1.0000     -10.211581      -277.8712 
  14   1.0000     -10.211432      -277.8672 
  15   1.0000     -10.211060      -277.8571 
  16   1.0000     -10.210766      -277.8491 
  17   1.0000     -10.209990      -277.8279 
  18   1.0000     -10.208045      -277.7750 
  19   1.0000     -10.206849      -277.7425 
  20   1.0000     -10.205781      -277.7134 
  21   1.0000     -10.205225      -277.6983 
  22   1.0000     -10.204592      -277.6811 
  23   1.0000     -10.202984      -277.6373 
  24   1.0000     -10.201903      -277.6079 
  25   1.0000     -10.201698      -277.6023 
  26   1.0000     -10.200053      -277.5575 
  27   1.0000     -10.193060      -277.3673 
  28   1.0000     -10.191315      -277.3198 
  29   1.0000     -10.187988      -277.2292 
  30   1.0000     -10.185348      -277.1574 
  31   1.0000     -10.185027      -277.1487 
  32   1.0000     -10.177463      -276.9428 
  33   1.0000     -10.175317      -276.8845 
  34   1.0000      -0.877993       -23.8914 
  35   1.0000      -0.876150       -23.8412 
  36   1.0000      -0.874603       -23.7992 
  37   1.0000      -0.823710       -22.4143 
  38   1.0000      -0.809720       -22.0336 
  39   1.0000      -0.807523       -21.9738 
  40   1.0000      -0.797603       -21.7039 
  41   1.0000      -0.793627       -21.5957 
  42   1.0000      -0.770022       -20.9534 
  43   1.0000      -0.760865       -20.7042 
  44   1.0000      -0.760483       -20.6938 
  45   1.0000      -0.759500       -20.6671 
  46   1.0000      -0.748399       -20.3650 
  47   1.0000      -0.736656       -20.0454 
  48   1.0000      -0.727182       -19.7876 
  49   1.0000      -0.714340       -19.4382 
  50   1.0000      -0.699590       -19.0368 
  51   1.0000      -0.661243       -17.9933 
  52   1.0000      -0.658095       -17.9077 
  53   1.0000      -0.643842       -17.5198 
  54   1.0000      -0.624262       -16.9870 
  55   1.0000      -0.620656       -16.8889 
  56   1.0000      -0.619144       -16.8478 
  57   1.0000      -0.618051       -16.8180 
  58   1.0000      -0.594816       -16.1858 
  59   1.0000      -0.582436       -15.8489 
  60   1.0000      -0.564796       -15.3689 
  61   1.0000      -0.555533       -15.1168 
  62   1.0000      -0.554224       -15.0812 
  63   1.0000      -0.544410       -14.8141 
  64   1.0000      -0.535944       -14.5838 
  65   1.0000      -0.511110       -13.9080 
  66   1.0000      -0.508905       -13.8480 
  67   1.0000      -0.498931       -13.5766 
  68   1.0000      -0.493726       -13.4350 
  69   1.0000      -0.481947       -13.1144 
  70   1.0000      -0.473632       -12.8882 
  71   1.0000      -0.473295       -12.8790 
  72   1.0000      -0.471914       -12.8414 
  73   1.0000      -0.465307       -12.6616 
  74   1.0000      -0.447680       -12.1820 
  75   1.0000      -0.446060       -12.1379 
  76   1.0000      -0.436407       -11.8752 
  77   1.0000      -0.433160       -11.7869 
  78   1.0000      -0.432693       -11.7742 
  79   1.0000      -0.431679       -11.7466 
  80   1.0000      -0.428544       -11.6613 
  81   1.0000      -0.424839       -11.5605 
  82   1.0000      -0.414141       -11.2694 
  83   1.0000      -0.402074       -10.9410 
  84   1.0000      -0.401763       -10.9325 
  85   1.0000      -0.395435       -10.7603 
  86   1.0000      -0.394424       -10.7328 
  87   1.0000      -0.387932       -10.5562 
  88   1.0000      -0.386898       -10.5280 
  89   1.0000      -0.382449       -10.4070 
  90   1.0000      -0.381724       -10.3872 
  91   1.0000      -0.367784       -10.0079 
  92   1.0000      -0.363160        -9.8821 
  93   1.0000      -0.361727        -9.8431 
  94   1.0000      -0.359904        -9.7935 
  95   1.0000      -0.358575        -9.7573 
  96   1.0000      -0.345950        -9.4138 
  97   1.0000      -0.342643        -9.3238 
  98   1.0000      -0.336941        -9.1686 
  99   1.0000      -0.335219        -9.1218 
 100   1.0000      -0.331912        -9.0318 
 101   1.0000      -0.329973        -8.9790 
 102   1.0000      -0.326027        -8.8716 
 103   1.0000      -0.325436        -8.8556 
 104   1.0000      -0.313293        -8.5251 
 105   1.0000      -0.287011        -7.8100 
 106   1.0000      -0.282800        -7.6954 
 107   1.0000      -0.281451        -7.6587 
 108   1.0000      -0.275749        -7.5035 
 109   1.0000      -0.274827        -7.4784 
 110   1.0000      -0.273146        -7.4327 
 111   1.0000      -0.268170        -7.2973 
 112   1.0000      -0.267318        -7.2741 
 113   1.0000      -0.261903        -7.1267 
 114   1.0000      -0.232116        -6.3162 
 115   1.0000      -0.211240        -5.7481 
 116   1.0000      -0.174721        -4.7544 
 117   0.0000      -0.078703        -2.1416 
 118   0.0000      -0.052664        -1.4331 
 119   0.0000      -0.021388        -0.5820 
 120   0.0000      -0.020220        -0.5502 
 121   0.0000      -0.017893        -0.4869 
 122   0.0000       0.009140         0.2487 
 123   0.0000       0.009850         0.2680 
 124   0.0000       0.011573         0.3149 
 125   0.0000       0.018352         0.4994 
 126   0.0000       0.020359         0.5540 
 127   0.0000       0.026275         0.7150 
 128   0.0000       0.027176         0.7395 
 129   0.0000       0.030328         0.8253 
 130   0.0000       0.032956         0.8968 
 131   0.0000       0.033802         0.9198 
 132   0.0000       0.039649         1.0789 
 133   0.0000       0.041206         1.1213 
 134   0.0000       0.042726         1.1626 
 135   0.0000       0.044803         1.2191 
 136   0.0000       0.044852         1.2205 
 137   0.0000       0.047120         1.2822 
 138   0.0000       0.054969         1.4958 
 139   0.0000       0.058049         1.5796 
 140   0.0000       0.061247         1.6666 
 141   0.0000       0.062854         1.7103 
 142   0.0000       0.065068         1.7706 
 143   0.0000       0.068930         1.8757 
 144   0.0000       0.075129         2.0444 
 145   0.0000       0.077319         2.1040 
 146   0.0000       0.080694         2.1958 
 147   0.0000       0.084934         2.3112 
 148   0.0000       0.090620         2.4659 
 149   0.0000       0.096724         2.6320 
 150   0.0000       0.099108         2.6969 
 151   0.0000       0.112147         3.0517 
 152   0.0000       0.112965         3.0739 
 153   0.0000       0.118659         3.2289 
 154   0.0000       0.121878         3.3165 
 155   0.0000       0.129435         3.5221 
 156   0.0000       0.129881         3.5343 
 157   0.0000       0.134101         3.6491 
 158   0.0000       0.149227         4.0607 
 159   0.0000       0.151078         4.1110 
 160   0.0000       0.154240         4.1971 
 161   0.0000       0.157058         4.2738 
 162   0.0000       0.160633         4.3710 
 163   0.0000       0.163606         4.4520 
 164   0.0000       0.168901         4.5960 
 165   0.0000       0.171650         4.6708 
 166   0.0000       0.172737         4.7004 
 167   0.0000       0.177655         4.8342 
 168   0.0000       0.179877         4.8947 
 169   0.0000       0.189885         5.1670 
 170   0.0000       0.191856         5.2207 
 171   0.0000       0.195502         5.3199 
 172   0.0000       0.197945         5.3864 
 173   0.0000       0.198628         5.4049 
 174   0.0000       0.198914         5.4127 
 175   0.0000       0.202999         5.5239 
 176   0.0000       0.207277         5.6403 
 177   0.0000       0.212532         5.7833 
 178   0.0000       0.214637         5.8406 
 179   0.0000       0.215666         5.8686 
 180   0.0000       0.221751         6.0342 
 181   0.0000       0.223553         6.0832 
 182   0.0000       0.225132         6.1262 
 183   0.0000       0.232086         6.3154 
 184   0.0000       0.233495         6.3537 
 185   0.0000       0.238547         6.4912 
 186   0.0000       0.239671         6.5218 
 187   0.0000       0.241922         6.5830 
 188   0.0000       0.245369         6.6768 
 189   0.0000       0.248978         6.7750 
 190   0.0000       0.250503         6.8165 
 191   0.0000       0.258764         7.0413 
 192   0.0000       0.260520         7.0891 
 193   0.0000       0.264544         7.1986 
 194   0.0000       0.268277         7.3002 
 195   0.0000       0.271180         7.3792 
 196   0.0000       0.276459         7.5228 
 197   0.0000       0.277280         7.5452 
 198   0.0000       0.277794         7.5592 
 199   0.0000       0.279954         7.6179 
 200   0.0000       0.280891         7.6434 
 201   0.0000       0.282944         7.6993 
 202   0.0000       0.284313         7.7365 
 203   0.0000       0.285379         7.7656 
 204   0.0000       0.288329         7.8458 
 205   0.0000       0.292015         7.9461 
 206   0.0000       0.294996         8.0273 
 207   0.0000       0.296717         8.0741 
 208   0.0000       0.297472         8.0946 
 209   0.0000       0.299693         8.1550 
 210   0.0000       0.303772         8.2661 
 211   0.0000       0.307477         8.3669 
 212   0.0000       0.310924         8.4607 
 213   0.0000       0.311214         8.4686 
 214   0.0000       0.313250         8.5240 
 215   0.0000       0.313461         8.5297 
 216   0.0000       0.316830         8.6214 
 217   0.0000       0.319342         8.6897 
 218   0.0000       0.319838         8.7032 
 219   0.0000       0.321367         8.7448 
 220   0.0000       0.323953         8.8152 
 221   0.0000       0.329508         8.9664 
 222   0.0000       0.334046         9.0899 
 223   0.0000       0.338089         9.1999 
 224   0.0000       0.338549         9.2124 
 225   0.0000       0.338689         9.2162 
 226   0.0000       0.340283         9.2596 
 227   0.0000       0.341048         9.2804 
 228   0.0000       0.343656         9.3514 
 229   0.0000       0.348675         9.4879 
 230   0.0000       0.351026         9.5519 
 231   0.0000       0.354937         9.6583 
 232   0.0000       0.356503         9.7009 
 233   0.0000       0.359227         9.7751 
 234   0.0000       0.366591         9.9754 
 235   0.0000       0.370526        10.0825 
 236   0.0000       0.371984        10.1222 
 237   0.0000       0.377177        10.2635 
 238   0.0000       0.379812        10.3352 
 239   0.0000       0.382147        10.3987 
 240   0.0000       0.387392        10.5415 
 241   0.0000       0.388669        10.5762 
 242   0.0000       0.393072        10.6960 
 243   0.0000       0.398840        10.8530 
 244   0.0000       0.400919        10.9095 
 245   0.0000       0.406751        11.0683 
 246   0.0000       0.409980        11.1561 
 247   0.0000       0.411179        11.1888 
 248   0.0000       0.412195        11.2164 
 249   0.0000       0.414400        11.2764 
 250   0.0000       0.415766        11.3136 
 251   0.0000       0.417128        11.3506 
 252   0.0000       0.418074        11.3764 
 253   0.0000       0.420935        11.4542 
 254   0.0000       0.425116        11.5680 
 255   0.0000       0.432320        11.7640 
 256   0.0000       0.436902        11.8887 
 257   0.0000       0.439213        11.9516 
 258   0.0000       0.442044        12.0286 
 259   0.0000       0.442759        12.0481 
 260   0.0000       0.449248        12.2247 
 261   0.0000       0.452247        12.3063 
 262   0.0000       0.456302        12.4166 
 263   0.0000       0.456803        12.4302 
 264   0.0000       0.458413        12.4740 
 265   0.0000       0.461953        12.5704 
 266   0.0000       0.462327        12.5805 
 267   0.0000       0.466918        12.7055 
 268   0.0000       0.469518        12.7762 
 269   0.0000       0.473268        12.8783 
 270   0.0000       0.477275        12.9873 
 271   0.0000       0.482770        13.1368 
 272   0.0000       0.483780        13.1643 
 273   0.0000       0.487671        13.2702 
 274   0.0000       0.491311        13.3692 
 275   0.0000       0.499148        13.5825 
 276   0.0000       0.499508        13.5923 
 277   0.0000       0.503371        13.6974 
 278   0.0000       0.506925        13.7941 
 279   0.0000       0.510197        13.8832 
 280   0.0000       0.517131        14.0718 
 281   0.0000       0.526280        14.3208 
 282   0.0000       0.527634        14.3577 
 283   0.0000       0.529540        14.4095 
 284   0.0000       0.533057        14.5052 
 285   0.0000       0.536922        14.6104 
 286   0.0000       0.538324        14.6485 
 287   0.0000       0.540433        14.7059 
 288   0.0000       0.544059        14.8046 
 289   0.0000       0.548486        14.9251 
 290   0.0000       0.550117        14.9695 
 291   0.0000       0.554415        15.0864 
 292   0.0000       0.556147        15.1335 
 293   0.0000       0.560634        15.2556 
 294   0.0000       0.573439        15.6041 
 295   0.0000       0.574747        15.6397 
 296   0.0000       0.579249        15.7622 
 297   0.0000       0.583626        15.8813 
 298   0.0000       0.584116        15.8946 
 299   0.0000       0.592090        16.1116 
 300   0.0000       0.596686        16.2366 
 301   0.0000       0.600061        16.3285 
 302   0.0000       0.609212        16.5775 
 303   0.0000       0.617873        16.8132 
 304   0.0000       0.629734        17.1359 
 305   0.0000       0.630872        17.1669 
 306   0.0000       0.643877        17.5208 
 307   0.0000       0.650908        17.7121 
 308   0.0000       0.653344        17.7784 
 309   0.0000       0.654542        17.8110 
 310   0.0000       0.656905        17.8753 
 311   0.0000       0.666006        18.1229 
 312   0.0000       0.667092        18.1525 
 313   0.0000       0.672307        18.2944 
 314   0.0000       0.689118        18.7518 
 315   0.0000       0.691240        18.8096 
 316   0.0000       0.701939        19.1007 
 317   0.0000       0.714544        19.4437 
 318   0.0000       0.716149        19.4874 
 319   0.0000       0.719695        19.5839 
 320   0.0000       0.739545        20.1240 
 321   0.0000       0.757420        20.6104 
 322   0.0000       0.766953        20.8699 
 323   0.0000       0.768070        20.9002 
 324   0.0000       0.771691        20.9988 
 325   0.0000       0.788525        21.4569 
 326   0.0000       0.790675        21.5153 
 327   0.0000       0.795591        21.6491 
 328   0.0000       0.801158        21.8006 
 329   0.0000       0.812916        22.1206 
 330   0.0000       0.829547        22.5731 
 331   0.0000       0.833274        22.6745 
 332   0.0000       0.838165        22.8076 
 333   0.0000       0.842876        22.9358 
 334   0.0000       0.849636        23.1198 
 335   0.0000       0.851721        23.1765 
 336   0.0000       0.855570        23.2812 
 337   0.0000       0.858827        23.3699 
 338   0.0000       0.858862        23.3708 
 339   0.0000       0.866202        23.5706 
 340   0.0000       0.868593        23.6356 
 341   0.0000       0.873528        23.7699 
 342   0.0000       0.874400        23.7936 
 343   0.0000       0.880294        23.9540 
 344   0.0000       0.880854        23.9692 
 345   0.0000       0.882572        24.0160 
 346   0.0000       0.890154        24.2223 
 347   0.0000       0.892683        24.2911 
 348   0.0000       0.896383        24.3918 
 349   0.0000       0.900861        24.5137 
 350   0.0000       0.902663        24.5627 
 351   0.0000       0.911239        24.7961 
 352   0.0000       0.911385        24.8000 
 353   0.0000       0.921796        25.0833 
 354   0.0000       0.923366        25.1261 
 355   0.0000       0.926921        25.2228 
 356   0.0000       0.927409        25.2361 
 357   0.0000       0.927539        25.2396 
 358   0.0000       0.935127        25.4461 
 359   0.0000       0.942169        25.6377 
 360   0.0000       0.945592        25.7309 
 361   0.0000       0.951452        25.8903 
 362   0.0000       0.954284        25.9674 
 363   0.0000       0.955155        25.9911 
 364   0.0000       0.967755        26.3340 
 365   0.0000       0.967852        26.3366 
 366   0.0000       0.972145        26.4534 
 367   0.0000       0.978518        26.6268 
 368   0.0000       0.980808        26.6891 
 369   0.0000       0.983200        26.7542 
 370   0.0000       0.988500        26.8984 
 371   0.0000       0.989246        26.9188 
 372   0.0000       0.991001        26.9665 
 373   0.0000       0.992181        26.9986 
 374   0.0000       0.994151        27.0522 
 375   0.0000       1.000607        27.2279 
 376   0.0000       1.007467        27.4146 
 377   0.0000       1.008629        27.4462 
 378   0.0000       1.013413        27.5764 
 379   0.0000       1.018116        27.7044 
 380   0.0000       1.021952        27.8087 
 381   0.0000       1.024902        27.8890 
 382   0.0000       1.027323        27.9549 
 383   0.0000       1.027818        27.9683 
 384   0.0000       1.029303        28.0088 
 385   0.0000       1.032823        28.1045 
 386   0.0000       1.035640        28.1812 
 387   0.0000       1.037397        28.2290 
 388   0.0000       1.039825        28.2951 
 389   0.0000       1.044633        28.4259 
 390   0.0000       1.045929        28.4612 
 391   0.0000       1.050148        28.5760 
 392   0.0000       1.060738        28.8642 
 393   0.0000       1.064212        28.9587 
 394   0.0000       1.066516        29.0214 
 395   0.0000       1.067712        29.0539 
 396   0.0000       1.082457        29.4551 
 397   0.0000       1.084522        29.5113 
 398   0.0000       1.094002        29.7693 
 399   0.0000       1.101849        29.9828 
 400   0.0000       1.103911        30.0390 
 401   0.0000       1.108731        30.1701 
 402   0.0000       1.112777        30.2802 
 403   0.0000       1.120066        30.4785 
 404   0.0000       1.131348        30.7856 
 405   0.0000       1.135005        30.8850 
 406   0.0000       1.138707        30.9858 
 407   0.0000       1.139661        31.0118 
 408   0.0000       1.150196        31.2984 
 409   0.0000       1.152322        31.3563 
 410   0.0000       1.165290        31.7092 
 411   0.0000       1.168009        31.7831 
 412   0.0000       1.169300        31.8183 
 413   0.0000       1.176368        32.0106 
 414   0.0000       1.181762        32.1574 
 415   0.0000       1.186544        32.2875 
 416   0.0000       1.189458        32.3668 
 417   0.0000       1.200291        32.6616 
 418   0.0000       1.204479        32.7755 
 419   0.0000       1.210115        32.9289 
 420   0.0000       1.214271        33.0420 
 421   0.0000       1.220321        33.2066 
 422   0.0000       1.230394        33.4807 
 423   0.0000       1.234096        33.5815 
 424   0.0000       1.234950        33.6047 
 425   0.0000       1.246849        33.9285 
 426   0.0000       1.252317        34.0773 
 427   0.0000       1.253451        34.1081 
 428   0.0000       1.253742        34.1161 
 429   0.0000       1.264074        34.3972 
 430   0.0000       1.269146        34.5352 
 431   0.0000       1.271456        34.5981 
 432   0.0000       1.281725        34.8775 
 433   0.0000       1.285141        34.9705 
 434   0.0000       1.299999        35.3748 
 435   0.0000       1.300564        35.3901 
 436   0.0000       1.306188        35.5432 
 437   0.0000       1.313611        35.7452 
 438   0.0000       1.321554        35.9613 
 439   0.0000       1.327747        36.1298 
 440   0.0000       1.329167        36.1685 
 441   0.0000       1.334240        36.3065 
 442   0.0000       1.345094        36.6019 
 443   0.0000       1.346345        36.6359 
 444   0.0000       1.354066        36.8460 
 445   0.0000       1.361673        37.0530 
 446   0.0000       1.367868        37.2216 
 447   0.0000       1.369482        37.2655 
 448   0.0000       1.379659        37.5424 
 449   0.0000       1.383712        37.6527 
 450   0.0000       1.387321        37.7509 
 451   0.0000       1.389285        37.8044 
 452   0.0000       1.398719        38.0611 
 453   0.0000       1.400656        38.1138 
 454   0.0000       1.407660        38.3044 
 455   0.0000       1.416580        38.5471 
 456   0.0000       1.424184        38.7540 
 457   0.0000       1.424929        38.7743 
 458   0.0000       1.425211        38.7820 
 459   0.0000       1.431637        38.9568 
 460   0.0000       1.434904        39.0457 
 461   0.0000       1.449099        39.4320 
 462   0.0000       1.449962        39.4555 
 463   0.0000       1.455824        39.6150 
 464   0.0000       1.456817        39.6420 
 465   0.0000       1.458084        39.6765 
 466   0.0000       1.468318        39.9550 
 467   0.0000       1.468737        39.9664 
 468   0.0000       1.472050        40.0565 
 469   0.0000       1.473850        40.1055 
 470   0.0000       1.485982        40.4356 
 471   0.0000       1.491104        40.5750 
 472   0.0000       1.503305        40.9070 
 473   0.0000       1.507304        41.0158 
 474   0.0000       1.509319        41.0706 
 475   0.0000       1.510271        41.0966 
 476   0.0000       1.516592        41.2686 
 477   0.0000       1.526273        41.5320 
 478   0.0000       1.541385        41.9432 
 479   0.0000       1.545079        42.0437 
 480   0.0000       1.554424        42.2980 
 481   0.0000       1.558679        42.4138 
 482   0.0000       1.558947        42.4211 
 483   0.0000       1.559993        42.4496 
 484   0.0000       1.568803        42.6893 
 485   0.0000       1.580541        43.0087 
 486   0.0000       1.581372        43.0313 
 487   0.0000       1.585049        43.1314 
 488   0.0000       1.586170        43.1619 
 489   0.0000       1.592968        43.3469 
 490   0.0000       1.596780        43.4506 
 491   0.0000       1.600960        43.5643 
 492   0.0000       1.604752        43.6675 
 493   0.0000       1.608133        43.7595 
 494   0.0000       1.617088        44.0032 
 495   0.0000       1.617425        44.0124 
 496   0.0000       1.623809        44.1861 
 497   0.0000       1.638843        44.5952 
 498   0.0000       1.642232        44.6874 
 499   0.0000       1.645289        44.7706 
 500   0.0000       1.648186        44.8494 
 501   0.0000       1.650370        44.9088 
 502   0.0000       1.651195        44.9313 
 503   0.0000       1.657373        45.0994 
 504   0.0000       1.663707        45.2718 
 505   0.0000       1.666088        45.3366 
 506   0.0000       1.671877        45.4941 
 507   0.0000       1.679805        45.7098 
 508   0.0000       1.682288        45.7774 
 509   0.0000       1.684091        45.8264 
 510   0.0000       1.684601        45.8403 
 511   0.0000       1.686739        45.8985 
 512   0.0000       1.691117        46.0176 
 513   0.0000       1.692282        46.0493 
 514   0.0000       1.698840        46.2278 
 515   0.0000       1.700672        46.2776 
 516   0.0000       1.701514        46.3006 
 517   0.0000       1.704782        46.3895 
 518   0.0000       1.714181        46.6452 
 519   0.0000       1.724347        46.9219 
 520   0.0000       1.730448        47.0879 
 521   0.0000       1.735596        47.2280 
 522   0.0000       1.739195        47.3259 
 523   0.0000       1.759000        47.8648 
 524   0.0000       1.762286        47.9542 
 525   0.0000       1.764254        48.0078 
 526   0.0000       1.768220        48.1157 
 527   0.0000       1.781884        48.4875 
 528   0.0000       1.789899        48.7056 
 529   0.0000       1.790034        48.7093 
 530   0.0000       1.790706        48.7276 
 531   0.0000       1.796257        48.8786 
 532   0.0000       1.805531        49.1310 
 533   0.0000       1.810972        49.2791 
 534   0.0000       1.814420        49.3729 
 535   0.0000       1.815925        49.4138 
 536   0.0000       1.825587        49.6768 
 537   0.0000       1.831542        49.8388 
 538   0.0000       1.837214        49.9931 
 539   0.0000       1.843022        50.1512 
 540   0.0000       1.849799        50.3356 
 541   0.0000       1.854131        50.4535 
 542   0.0000       1.858624        50.5757 
 543   0.0000       1.862413        50.6788 
 544   0.0000       1.871134        50.9161 
 545   0.0000       1.879965        51.1564 
 546   0.0000       1.888381        51.3855 
 547   0.0000       1.907482        51.9052 
 548   0.0000       1.924219        52.3607 
 549   0.0000       1.930712        52.5373 
 550   0.0000       1.932236        52.5788 
 551   0.0000       1.941886        52.8414 
 552   0.0000       1.942084        52.8468 
 553   0.0000       1.949939        53.0605 
 554   0.0000       1.969771        53.6002 
 555   0.0000       1.970918        53.6314 
 556   0.0000       1.972270        53.6682 
 557   0.0000       2.003308        54.5128 
 558   0.0000       2.004841        54.5545 
 559   0.0000       2.009028        54.6684 
 560   0.0000       2.029342        55.2212 
 561   0.0000       2.039103        55.4868 
 562   0.0000       2.054088        55.8946 
 563   0.0000       2.065754        56.2120 
[...]

 -----------------------------------------------------------
 Nucleus  56H : A:ISTP=    1 I=  0.5 P=533.5514 MHz/au**3
                Q:ISTP=    2 I=  1.0 Q=  0.0029 barn     
 -----------------------------------------------------------
 Solving for nuclear perturbation:
Forming RHS of the CP-SCF equations         ... 
Calc. nucleus orbit integrals (SHARK)       ... done

------------------------------------------------------------------------------
                           ORCA CP-SCF CALCULATION
------------------------------------------------------------------------------

Input orbitals are from        ... EPRII.gbw
Input Perturbation             ... EPRII.pin.tmp
Wavefunction output            ... EPRII.pout.tmp
Perturbation mode              ... Imaginary perturbation
Solver                         ... POPLE
Max. number of iterations      ... 64
Convergence tolerance          ... 1.000e-03
Integral handling              ... Direct
DFT GridXC                     ... 1
COSX GridX                     ... 1
COSX IntAccX                   ... 3.067
COSX Algorithm                 ... Auto
Number of perturbations        ... 3
Number of operators            ... 2
Orbital ranges used for CP-SCF:
 Operator 0:  Orbitals   0...116  to 117...780
 Operator 1:  Orbitals   0...115  to 116...780
Variables per perturbation     ... 154828
DFT calculation                         ... on
XC functional terms                     ... off
Hybrid DFT                              ... on
   Exchange mixing (SCF)                ...  0.200
   Exchange mixing (CP-SCF)             ...  0.200
   GGA exch. scaling(SCF)               ...  0.720
   GGA exch. scaling (CP-SCF)           ...  0.720
   GGA corr. scaling (SCF)              ...  0.810
   GGA corr. scaling (CP-SCF)           ...  0.810

CP-SCF GRID
-----------

General Integration Accuracy     IntAcc      ... 3.467
Radial Grid Type                 RadialGrid  ... OptM3 with GC (2021)
Angular Grid (max. ang.)         AngularGrid ... 1 (Lebedev-50)
Angular grid pruning method      GridPruning ... 4 (adaptive)
Weight generation scheme         WeightScheme... Becke
Basis function cutoff            BFCut       ... 1.0000e-10
Integration weight cutoff        WCut        ... 1.0000e-14
Angular grids for H and He will be reduced by one unit
Partially contracted basis set               ... off
Rotationally invariant grid construction     ... off

Total number of grid points                  ...    42736
Total number of batches                      ...      693
Average number of points per batch           ...       61
Average number of grid points per atom       ...      678

CP-SCF GRIDX
------------

General Integration Accuracy     IntAcc      ... 3.067
Radial Grid Type                 RadialGrid  ... OptM3 with GC (2021)
Angular Grid (max. ang.)         AngularGrid ... 1 (Lebedev-50)
Angular grid pruning method      GridPruning ... 4 (adaptive)
Weight generation scheme         WeightScheme... Becke
Basis function cutoff            BFCut       ... 1.0000e-10
Integration weight cutoff        WCut        ... 1.0000e-14
Angular grids for H and He will be reduced by one unit
Partially contracted basis set               ... on
Rotationally invariant grid construction     ... off

Total number of grid points                  ...    19910
Total number of batches                      ...      351
Average number of points per batch           ...       56
Average number of grid points per atom       ...      316

Memory available               ... 773.8 MB
Memory needed per perturbation ...  35.9 MB
Perturbations treated per batch... 3
Number of batches              ... 1
     CP-SCF ITERATION   0:   4.7298e-02 (   4.2 sec   0/  3 done)
     CP-SCF ITERATION   1:   2.2432e-03 (   4.0 sec   0/  3 done)
     CP-SCF ITERATION   2:   1.5515e-04 (   4.0 sec   3/  3 done)
                    *** THE CP-SCF HAS CONVERGED ***

Forming final perturbed densities           ... done
Transforming perturbed density to AO basis  ... done

 Raw HFC matrix (all values in MHz): 
 -----------------------------------
                -1.2454               0.5993               0.0014
                 0.5989              -1.7261               0.0020
                 0.0014               0.0020              -2.7597

 A(FC)          -1.9109              -1.9109              -1.9109
 A(SD)           1.0699              -0.2213              -0.8487
 A(ORB+DIA)      0.0008               0.0008              -0.0002    A(PC) =   0.0005
 A(ORB)          0.0006               0.0007               0.0000    A(PC) =   0.0005
 A(DIA)          0.0001               0.0001              -0.0002    A(PC) =   0.0000
             ----------           ----------           ----------
 A(Tot)         -0.8402              -2.1313              -2.7597    A(iso)=   -1.9104
 Orientation: 
  X           0.8283146            0.5602632            0.0001906
  Y           0.5602620           -0.8283134            0.0018426
  Z           0.0011902           -0.0014194           -0.9999983

Notes:  (1) The A matrix conforms to the "SAI" spin Hamiltonian convention.
        (2) Tensor is right-handed.

 -----------------------------------------------------------
 Nucleus  57H : A:ISTP=    1 I=  0.5 P=533.5514 MHz/au**3
                Q:ISTP=    2 I=  1.0 Q=  0.0029 barn     
 -----------------------------------------------------------
 Solving for nuclear perturbation:
Forming RHS of the CP-SCF equations         ... 
Calc. nucleus orbit integrals (SHARK)       ... done

------------------------------------------------------------------------------
                           ORCA CP-SCF CALCULATION
------------------------------------------------------------------------------

Input orbitals are from        ... EPRII.gbw
Input Perturbation             ... EPRII.pin.tmp
Wavefunction output            ... EPRII.pout.tmp
Perturbation mode              ... Imaginary perturbation
Solver                         ... POPLE
Max. number of iterations      ... 64
Convergence tolerance          ... 1.000e-03
Integral handling              ... Direct
DFT GridXC                     ... 1
COSX GridX                     ... 1
COSX IntAccX                   ... 3.067
COSX Algorithm                 ... Auto
Number of perturbations        ... 3
Number of operators            ... 2
Orbital ranges used for CP-SCF:
 Operator 0:  Orbitals   0...116  to 117...780
 Operator 1:  Orbitals   0...115  to 116...780
Variables per perturbation     ... 154828
DFT calculation                         ... on
XC functional terms                     ... off
Hybrid DFT                              ... on
   Exchange mixing (SCF)                ...  0.200
   Exchange mixing (CP-SCF)             ...  0.200
   GGA exch. scaling(SCF)               ...  0.720
   GGA exch. scaling (CP-SCF)           ...  0.720
   GGA corr. scaling (SCF)              ...  0.810
   GGA corr. scaling (CP-SCF)           ...  0.810

CP-SCF GRID
-----------

General Integration Accuracy     IntAcc      ... 3.467
Radial Grid Type                 RadialGrid  ... OptM3 with GC (2021)
Angular Grid (max. ang.)         AngularGrid ... 1 (Lebedev-50)
Angular grid pruning method      GridPruning ... 4 (adaptive)
Weight generation scheme         WeightScheme... Becke
Basis function cutoff            BFCut       ... 1.0000e-10
Integration weight cutoff        WCut        ... 1.0000e-14
Angular grids for H and He will be reduced by one unit
Partially contracted basis set               ... off
Rotationally invariant grid construction     ... off

Total number of grid points                  ...    42736
Total number of batches                      ...      693
Average number of points per batch           ...       61
Average number of grid points per atom       ...      678

CP-SCF GRIDX
------------

General Integration Accuracy     IntAcc      ... 3.067
Radial Grid Type                 RadialGrid  ... OptM3 with GC (2021)
Angular Grid (max. ang.)         AngularGrid ... 1 (Lebedev-50)
Angular grid pruning method      GridPruning ... 4 (adaptive)
Weight generation scheme         WeightScheme... Becke
Basis function cutoff            BFCut       ... 1.0000e-10
Integration weight cutoff        WCut        ... 1.0000e-14
Angular grids for H and He will be reduced by one unit
Partially contracted basis set               ... on
Rotationally invariant grid construction     ... off

Total number of grid points                  ...    19910
Total number of batches                      ...      351
Average number of points per batch           ...       56
Average number of grid points per atom       ...      316

Memory available               ... 772.7 MB
Memory needed per perturbation ...  35.9 MB
Perturbations treated per batch... 3
Number of batches              ... 1
     CP-SCF ITERATION   0:   4.7115e-02 (   4.2 sec   0/  3 done)
     CP-SCF ITERATION   1:   2.1225e-03 (   4.1 sec   0/  3 done)
     CP-SCF ITERATION   2:   1.3842e-04 (   4.0 sec   3/  3 done)
                    *** THE CP-SCF HAS CONVERGED ***

Forming final perturbed densities           ... done
Transforming perturbed density to AO basis  ... done

 Raw HFC matrix (all values in MHz): 
 -----------------------------------
                -2.1057              -0.2522              -0.0004
                -0.2515              -1.2008               0.0028
                -0.0004               0.0028              -2.4537

 A(FC)          -1.9204              -1.9204              -1.9204
 A(SD)           0.7849              -0.2516              -0.5333
 A(ORB+DIA)      0.0002               0.0009              -0.0001    A(PC) =   0.0003
 A(ORB)          0.0000               0.0008               0.0000    A(PC) =   0.0003
 A(DIA)          0.0001               0.0001              -0.0001    A(PC) =   0.0001
             ----------           ----------           ----------
 A(Tot)         -1.1354              -2.1710              -2.4537    A(iso)=   -1.9200
 Orientation: 
  X          -0.2514966            0.9678579            0.0007133
  Y           0.9678558            0.2514943            0.0023971
  Z           0.0021407            0.0012932           -0.9999969

Notes:  (1) The A matrix conforms to the "SAI" spin Hamiltonian convention.
        (2) Tensor is right-handed.

 -----------------------------------------------------------
 Nucleus  58H : A:ISTP=    1 I=  0.5 P=533.5514 MHz/au**3
                Q:ISTP=    2 I=  1.0 Q=  0.0029 barn     
 -----------------------------------------------------------
 Solving for nuclear perturbation:
Forming RHS of the CP-SCF equations         ... 
Calc. nucleus orbit integrals (SHARK)       ... done

------------------------------------------------------------------------------
                           ORCA CP-SCF CALCULATION
------------------------------------------------------------------------------

Input orbitals are from        ... EPRII.gbw
Input Perturbation             ... EPRII.pin.tmp
Wavefunction output            ... EPRII.pout.tmp
Perturbation mode              ... Imaginary perturbation
Solver                         ... POPLE
Max. number of iterations      ... 64
Convergence tolerance          ... 1.000e-03
Integral handling              ... Direct
DFT GridXC                     ... 1
COSX GridX                     ... 1
COSX IntAccX                   ... 3.067
COSX Algorithm                 ... Auto
Number of perturbations        ... 3
Number of operators            ... 2
Orbital ranges used for CP-SCF:
 Operator 0:  Orbitals   0...116  to 117...780
 Operator 1:  Orbitals   0...115  to 116...780
Variables per perturbation     ... 154828
DFT calculation                         ... on
XC functional terms                     ... off
Hybrid DFT                              ... on
   Exchange mixing (SCF)                ...  0.200
   Exchange mixing (CP-SCF)             ...  0.200
   GGA exch. scaling(SCF)               ...  0.720
   GGA exch. scaling (CP-SCF)           ...  0.720
   GGA corr. scaling (SCF)              ...  0.810
   GGA corr. scaling (CP-SCF)           ...  0.810

CP-SCF GRID
-----------

General Integration Accuracy     IntAcc      ... 3.467
Radial Grid Type                 RadialGrid  ... OptM3 with GC (2021)
Angular Grid (max. ang.)         AngularGrid ... 1 (Lebedev-50)
Angular grid pruning method      GridPruning ... 4 (adaptive)
Weight generation scheme         WeightScheme... Becke
Basis function cutoff            BFCut       ... 1.0000e-10
Integration weight cutoff        WCut        ... 1.0000e-14
Angular grids for H and He will be reduced by one unit
Partially contracted basis set               ... off
Rotationally invariant grid construction     ... off

Total number of grid points                  ...    42736
Total number of batches                      ...      693
Average number of points per batch           ...       61
Average number of grid points per atom       ...      678

CP-SCF GRIDX
------------

General Integration Accuracy     IntAcc      ... 3.067
Radial Grid Type                 RadialGrid  ... OptM3 with GC (2021)
Angular Grid (max. ang.)         AngularGrid ... 1 (Lebedev-50)
Angular grid pruning method      GridPruning ... 4 (adaptive)
Weight generation scheme         WeightScheme... Becke
Basis function cutoff            BFCut       ... 1.0000e-10
Integration weight cutoff        WCut        ... 1.0000e-14
Angular grids for H and He will be reduced by one unit
Partially contracted basis set               ... on
Rotationally invariant grid construction     ... off

Total number of grid points                  ...    19910
Total number of batches                      ...      351
Average number of points per batch           ...       56
Average number of grid points per atom       ...      316

Memory available               ... 771.7 MB
Memory needed per perturbation ...  35.9 MB
Perturbations treated per batch... 3
Number of batches              ... 1
     CP-SCF ITERATION   0:   4.5601e-02 (   3.9 sec   0/  3 done)
     CP-SCF ITERATION   1:   1.9832e-03 (   3.8 sec   0/  3 done)
     CP-SCF ITERATION   2:   1.2892e-04 (   3.9 sec   3/  3 done)
                    *** THE CP-SCF HAS CONVERGED ***

Forming final perturbed densities           ... done
Transforming perturbed density to AO basis  ... done

 Raw HFC matrix (all values in MHz): 
 -----------------------------------
                 1.6238               0.3212               0.0002
                 0.3212               0.6755               0.0001
                 0.0002               0.0001               0.5456

 A(FC)           0.9483               0.9483               0.9483
 A(SD)          -0.4027              -0.3715               0.7742
 A(ORB+DIA)     -0.0000               0.0001              -0.0002    A(PC) =  -0.0000
 A(ORB)         -0.0000               0.0001              -0.0003    A(PC) =  -0.0001
 A(DIA)          0.0000              -0.0000               0.0000    A(PC) =   0.0000
             ----------           ----------           ----------
 A(Tot)          0.5456               0.5769               1.7223    A(iso)=    0.9483
 Orientation: 
  X          -0.0000512           -0.2933014           -0.9560200
  Y          -0.0005493            0.9560199           -0.2933013
  Z           0.9999998            0.0005102           -0.0002100

Notes:  (1) The A matrix conforms to the "SAI" spin Hamiltonian convention.
        (2) Tensor is right-handed.


--------------------------------------------------------------------------------
----------------------------------------------------------------------------
                           ORCA EULER ANGLE PROGRAM
----------------------------------------------------------------------------

Only g-tensor available        -->  using g-tensor as reference tensor

Reference tensor               ...  g

g-tensor ordering              ...  |g_min> --> |gx>
                                    |g_mid> --> |gy>
                                    |g_max> --> |gz>

A- and EFG-tensor ordering     ...  the axes |Ax>, |Qx>, |Ay>, etc. are assigned
                                    such that the Euler rotation is minimal. You
                                    can find the respective eigenvalues as Ax,
                                    EFGx, Ay, etc. in the tables below.
                                    The relation of |Ax>, |Ay>,  etc. to Amin, Amid, etc.
                                    (as printed in the ORCA EPR/NMR CALCULATION Output)
                                    is obtained in the detailed printout.

Euler rotation around          ...  z - y - z
   First rotation              -->  by alpha around z
   Second rotation             -->  by beta around y'
   Third rotation              -->  by gamma around z''
   Positive / Negative angle   -->  clockwise / counterclockwise rotation

Plot EFG-tensors                    (-)
Plot HFC-tensors                    (-)
Detailed Printout                   (-)

-------------------------------------------------------------------------
          Euler rotation of hyperfine tensor to g-tensor
-------------------------------------------------------------------------

-------------------------------------------------------------------
 Atom  |   Alpha    Beta    Gamma   |   Ax       Ay       Az 
       |          [degrees]         |           [MHz]         
-------------------------------------------------------------------
  9H       89.7      2.9    -89.7     -17.34    -8.12   -20.88
 10H       90.0      6.0    -90.0       4.58     5.19     9.92
 12H       90.0     42.7    -90.0     -48.40   -73.20   -19.98
 14H      170.5     13.1    171.5      67.96    77.46    69.47
 15H        9.5     13.1      8.5      67.91    77.40    69.42
 17H     -151.7     29.2    120.2      -3.30    -3.14     2.93
 18H      -28.3     29.2     59.8      -3.30    -3.14     2.93
 20H       48.8     47.1    -25.8      -0.01     2.30     0.10
 21H      131.2     47.1   -154.3      -0.01     2.30     0.10
 23H       30.1     17.7      7.8      24.00    24.61    27.66
 24H      149.9     17.7    172.0      24.07    24.68    27.73
 26H       99.9     29.1    -87.3      -1.03     0.90    -0.91
 27H       80.4     29.0    -93.2      -1.03     0.90    -0.91
 29H     -106.6     31.0     72.9      -0.09    -0.13     0.82
 30H      -73.3     31.0    107.0      -0.09    -0.13     0.82
 32H       84.8     42.1    -93.0      -0.12     0.38    -0.09
 33H       95.3     42.1    -87.3      -0.12     0.38    -0.10
 35H      -89.8     39.9     90.0      -0.83    -0.84     0.70
 36H      -90.5     38.0     89.9      -0.13    -0.13     0.24
 43H       89.8     43.7    -90.0       0.53     0.76     0.33
 44H      -87.4      1.8     87.3      -0.37    -0.56    -0.18
 45H      -89.9     34.7     89.8       0.62     1.51     0.19
 46H       89.8     21.2    -89.9       0.66     0.20     1.45
 47H      -89.3     12.7     89.2      -0.38    -0.22    -0.51
 54H      -89.9     44.3     89.8      -1.57    -0.64    -2.15
 55H       89.9     32.8    -90.0       0.60     0.76     1.49
 56H      -89.7     13.6     89.6      -2.76    -0.84    -2.13
 57H      -89.9     33.1     89.9      -2.45    -2.17    -1.14
 58H      -89.8     30.6     89.7       0.55     1.72     0.58
-------------------------------------------------------------------


Maximum memory used throughout the entire EPRNMR-calculation: 486.8 MB

Timings for individual modules:

Sum of individual times         ...    15308.371 sec (= 255.140 min)
GTO integral calculation        ...        8.527 sec (=   0.142 min)   0.1 %
Spin-Orbit-Coupling Matrices    ...       26.415 sec (=   0.440 min)   0.2 %
SCF iterations                  ...       59.965 sec (=   0.999 min)   0.4 %
EPR/NMR calculation             ...    15213.464 sec (= 253.558 min)  99.4 %
                             ****ORCA TERMINATED NORMALLY****
TOTAL RUN TIME: 0 days 4 hours 15 minutes 13 seconds 98 msec
