
                                 *****************
                                 * O   R   C   A *
                                 *****************

                                            #,                                       
                                            ###                                      
                                            ####                                     
                                            #####                                    
                                            ######                                   
                                           ########,                                 
                                     ,,################,,,,,                         
                               ,,#################################,,                 
                          ,,##########################################,,             
                       ,#########################################, ''#####,          
                    ,#############################################,,   '####,        
                  ,##################################################,,,,####,       
                ,###########''''           ''''###############################       
              ,#####''   ,,,,##########,,,,          '''####'''          '####       
            ,##' ,,,,###########################,,,                        '##       
           ' ,,###''''                  '''############,,,                           
         ,,##''                                '''############,,,,        ,,,,,,###''
      ,#''                                            '''#######################'''  
     '                                                          ''''####''''         
             ,#######,   #######,   ,#######,      ##                                
            ,#'     '#,  ##    ##  ,#'     '#,    #''#        ######   ,####,        
            ##       ##  ##   ,#'  ##            #'  '#       #        #'  '#        
            ##       ##  #######   ##           ,######,      #####,   #    #        
            '#,     ,#'  ##    ##  '#,     ,#' ,#      #,         ##   #,  ,#        
             '#######'   ##     ##  '#######'  #'      '#     #####' # '####'        



                  #######################################################
                  #                        -***-                        #
                  #          Department of theory and spectroscopy      #
                  #    Directorship and core code : Frank Neese         #
                  #        Max Planck Institute fuer Kohlenforschung    #
                  #                Kaiser Wilhelm Platz 1               #
                  #                 D-45470 Muelheim/Ruhr               #
                  #                      Germany                        #
                  #                                                     #
                  #                  All rights reserved                #
                  #                        -***-                        #
                  #######################################################


                         Program Version 5.0.4 -  RELEASE  -


 With contributions from (in alphabetic order):
   Daniel Aravena         : Magnetic Suceptibility
   Michael Atanasov       : Ab Initio Ligand Field Theory (pilot matlab implementation)
   Alexander A. Auer      : GIAO ZORA, VPT2 properties, NMR spectrum
   Ute Becker             : Parallelization
   Giovanni Bistoni       : ED, misc. LED, open-shell LED, HFLD
   Martin Brehm           : Molecular dynamics
   Dmytro Bykov           : SCF Hessian
   Vijay G. Chilkuri      : MRCI spin determinant printing, contributions to CSF-ICE
   Dipayan Datta          : RHF DLPNO-CCSD density
   Achintya Kumar Dutta   : EOM-CC, STEOM-CC
   Dmitry Ganyushin       : Spin-Orbit,Spin-Spin,Magnetic field MRCI
   Miquel Garcia          : C-PCM and meta-GGA Hessian, CC/C-PCM, Gaussian charge scheme
   Yang Guo               : DLPNO-NEVPT2, F12-NEVPT2, CIM, IAO-localization
   Andreas Hansen         : Spin unrestricted coupled pair/coupled cluster methods
   Benjamin Helmich-Paris : MC-RPA, TRAH-SCF, COSX integrals
   Lee Huntington         : MR-EOM, pCC
   Robert Izsak           : Overlap fitted RIJCOSX, COSX-SCS-MP3, EOM
   Marcus Kettner         : VPT2
   Christian Kollmar      : KDIIS, OOCD, Brueckner-CCSD(T), CCSD density, CASPT2, CASPT2-K
   Simone Kossmann        : Meta GGA functionals, TD-DFT gradient, OOMP2, MP2 Hessian
   Martin Krupicka        : Initial AUTO-CI
   Lucas Lang             : DCDCAS
   Marvin Lechner         : AUTO-CI (C++ implementation), FIC-MRCC
   Dagmar Lenk            : GEPOL surface, SMD
   Dimitrios Liakos       : Extrapolation schemes; Compound Job, initial MDCI parallelization
   Dimitrios Manganas     : Further ROCIS development; embedding schemes
   Dimitrios Pantazis     : SARC Basis sets
   Anastasios Papadopoulos: AUTO-CI, single reference methods and gradients
   Taras Petrenko         : DFT Hessian,TD-DFT gradient, ASA, ECA, R-Raman, ABS, FL, XAS/XES, NRVS
   Peter Pinski           : DLPNO-MP2, DLPNO-MP2 Gradient
   Christoph Reimann      : Effective Core Potentials
   Marius Retegan         : Local ZFS, SOC
   Christoph Riplinger    : Optimizer, TS searches, QM/MM, DLPNO-CCSD(T), (RO)-DLPNO pert. Triples
   Tobias Risthaus        : Range-separated hybrids, TD-DFT gradient, RPA, STAB
   Michael Roemelt        : Original ROCIS implementation
   Masaaki Saitow         : Open-shell DLPNO-CCSD energy and density
   Barbara Sandhoefer     : DKH picture change effects
   Avijit Sen             : IP-ROCIS
   Kantharuban Sivalingam : CASSCF convergence, NEVPT2, FIC-MRCI
   Bernardo de Souza      : ESD, SOC TD-DFT
   Georgi Stoychev        : AutoAux, RI-MP2 NMR, DLPNO-MP2 response
   Willem Van den Heuvel  : Paramagnetic NMR
   Boris Wezisla          : Elementary symmetry handling
   Frank Wennmohs         : Technical directorship


 We gratefully acknowledge several colleagues who have allowed us to
 interface, adapt or use parts of their codes:
   Stefan Grimme, W. Hujo, H. Kruse, P. Pracht,  : VdW corrections, initial TS optimization,
                  C. Bannwarth, S. Ehlert          DFT functionals, gCP, sTDA/sTD-DF
   Ed Valeev, F. Pavosevic, A. Kumar             : LibInt (2-el integral package), F12 methods
   Garnet Chan, S. Sharma, J. Yang, R. Olivares  : DMRG
   Ulf Ekstrom                                   : XCFun DFT Library
   Mihaly Kallay                                 : mrcc  (arbitrary order and MRCC methods)
   Jiri Pittner, Ondrej Demel                    : Mk-CCSD
   Frank Weinhold                                : gennbo (NPA and NBO analysis)
   Christopher J. Cramer and Donald G. Truhlar   : smd solvation model
   Lars Goerigk                                  : TD-DFT with DH, B97 family of functionals
   V. Asgeirsson, H. Jonsson                     : NEB implementation
   FAccTs GmbH                                   : IRC, NEB, NEB-TS, DLPNO-Multilevel, CI-OPT
                                                   MM, QMMM, 2- and 3-layer-ONIOM, Crystal-QMMM,
                                                   LR-CPCM, SF, NACMEs, symmetry and pop. for TD-DFT,
                                                   nearIR, NL-DFT gradient (VV10), updates on ESD,
                                                   ML-optimized integration grids
   S Lehtola, MJT Oliveira, MAL Marques          : LibXC Library
   Liviu Ungur et al                             : ANISO software


 Your calculation uses the libint2 library for the computation of 2-el integrals
 For citations please refer to: http://libint.valeyev.net

 Your ORCA version has been built with support for libXC version: 5.1.0
 For citations please refer to: https://tddft.org/programs/libxc/

 This ORCA versions uses:
   CBLAS   interface :  Fast vector & matrix operations
   LAPACKE interface :  Fast linear algebra routines
   SCALAPACK package :  Parallel linear algebra routines
   Shared memory     :  Shared parallel matrices
   BLAS/LAPACK       :  OpenBLAS 0.3.15  USE64BITINT DYNAMIC_ARCH NO_AFFINITY SkylakeX SINGLE_THREADED
        Core in use  :  SkylakeX
   Copyright (c) 2011-2014, The OpenBLAS Project




***************************************
The coordinates will be read from file: model.xyz
***************************************


================================================================================

----- Orbital basis set information -----
Your calculation utilizes the basis: cc-pVDZ 
       H, B-Ne : Obtained from the ccRepo (grant-hill.group.shef.ac.uk/ccrepo) Feb. 2017
                 T. H. Dunning, Jr., J. Chem. Phys. 90, 1007 (1989)
            He : Obtained from the ccRepo (grant-hill.group.shef.ac.uk/ccrepo) Feb. 2017
                 D. E. Woon, T. H. Dunning, Jr., J. Chem. Phys. 100, 2975 (1994)
  Li-Be, Na-Mg : Obtained from the ccRepo (grant-hill.group.shef.ac.uk/ccrepo) Feb. 2017
                 B. P. Prascher, D. E. Woon, K. A. Peterson, T. H. Dunning, Jr., A. K. Wilson, Theor. Chem. Acc. 128, 69 (2011)
         Al-Ar : Obtained from the ccRepo (grant-hill.group.shef.ac.uk/ccrepo) Feb. 2017
                 D. E. Woon, T. H. Dunning, Jr., J. Chem. Phys. 98, 1358 (1993)
            Ca : Obtained from the Peterson Research Group Website (tyr0.chem.wsu.edu/~kipeters) Feb. 2017
                 J. Koput, K. A. Peterson, J. Phys. Chem. 106, 9595 (2002)
         Sc-Zn : Obtained from the ccRepo (grant-hill.group.shef.ac.uk/ccrepo) Feb. 2017
                 N. B. Balabanov, K. A. Peterson, J. Chem. Phys. 123, 064107 (2005)
                 N. B. Balabanov, K. A. Peterson, J. Chem. Phys. 125, 074110 (2006)
         Ga-Kr : Obtained from the ccRepo (grant-hill.group.shef.ac.uk/ccrepo) Feb. 2017
                 A. K. Wilson, D. E. Woon, K. A. Peterson, T. H. Dunning, Jr., J. Chem. Phys. 110, 7667 (1999)

----- AuxJ basis set information -----
Your calculation utilizes the auxiliary basis: def2/J
   F. Weigend, Phys. Chem. Chem. Phys. 8, 1057 (2006).

================================================================================
                                        WARNINGS
                       Please study these warnings very carefully!
================================================================================


WARNING: your system is open-shell and RHF/RKS was chosen
  ===> : WILL SWITCH to UHF/UKS


WARNING: Geometry Optimization
  ===> : Switching off AutoStart
         For restart on a previous wavefunction, please use MOREAD

INFO   : the flag for use of the SHARK integral package has been found!

================================================================================
                                       INPUT FILE
================================================================================
NAME = opt.inp
|  1> ! B3LYP cc-pVDZ OPT
|  2> %pal nprocs 16 end
|  3> *XYZFile 0 2 model.xyz
|  4> 
|  5>                          ****END OF INPUT****
================================================================================

                       *****************************
                       * Geometry Optimization Run *
                       *****************************

Geometry optimization settings:
Update method            Update   .... BFGS
Choice of coordinates    CoordSys .... Z-matrix Internals
Initial Hessian          InHess   .... Almoef's Model

Convergence Tolerances:
Energy Change            TolE     ....  5.0000e-06 Eh
Max. Gradient            TolMAXG  ....  3.0000e-04 Eh/bohr
RMS Gradient             TolRMSG  ....  1.0000e-04 Eh/bohr
Max. Displacement        TolMAXD  ....  4.0000e-03 bohr
RMS Displacement         TolRMSD  ....  2.0000e-03 bohr
Strict Convergence                ....  False
------------------------------------------------------------------------------
                        ORCA OPTIMIZATION COORDINATE SETUP
------------------------------------------------------------------------------

The optimization will be done in new redundant internal coordinates
Making redundant internal coordinates   ...  (new redundants) done
Evaluating the initial hessian          ...  (Almloef) done
Evaluating the coordinates              ...  done
Calculating the B-matrix                .... done
Calculating the G-matrix                .... done
Diagonalizing the G-matrix              .... done
Small eigenvalue found = 3.825e-04
Small eigenvalue found = 6.042e-04
Small eigenvalue found = 1.753e-03
Small eigenvalue found = 2.391e-03
Small eigenvalue found = 6.043e-03
Small eigenvalue found = 9.966e-03
Small eigenvalue found = 1.277e-02
Small eigenvalue found = 1.457e-02
Small eigenvalue found = 1.684e-02
Small eigenvalue found = 2.147e-02
Small eigenvalue found = 2.581e-02
Small eigenvalue found = 2.593e-02
Small eigenvalue found = 2.848e-02
The first mode is                       ....  138
The number of degrees of freedom        ....  183

    -----------------------------------------------------------------
                    Redundant Internal Coordinates


    -----------------------------------------------------------------
         Definition                    Initial Value    Approx d2E/dq
    -----------------------------------------------------------------
      1. B(C   1,C   0)                  1.2247         1.146544   
      2. B(C   3,C   1)                  1.4192         0.561182   
      3. B(C   4,C   3)                  1.4464         0.507867   
      4. B(C   5,C   4)                  1.4231         0.553217   
      5. B(C   6,C   5)                  1.3972         0.608521   
      6. B(C   6,C   2)                  1.4276         0.544099   
      7. B(C   7,C   6)                  1.4333         0.532883   
      8. B(C   8,C   7)                  1.3941         0.615366   
      9. B(C   8,C   3)                  1.4095         0.581498   
     10. B(H   9,C   5)                  1.0901         0.360005   
     11. B(H  10,C   8)                  1.0898         0.360346   
     12. B(C  11,C   4)                  1.4109         0.578546   
     13. B(H  12,C  11)                  1.0936         0.355423   
     14. B(C  13,C  11)                  1.4994         0.418095   
     15. B(H  14,C  13)                  1.1099         0.334735   
     16. B(H  15,C  13)                  1.1099         0.334734   
     17. B(C  16,C  13)                  1.5339         0.368209   
     18. B(H  17,C  16)                  1.1057         0.339901   
     19. B(H  18,C  16)                  1.1057         0.339905   
     20. B(C  19,C  16)                  1.5294         0.374388   
     21. B(H  20,C  19)                  1.1039         0.342139   
     22. B(H  21,C  19)                  1.1039         0.342140   
     23. B(C  22,C   7)                  1.5145         0.395442   
     24. B(H  23,C  22)                  1.1066         0.338818   
     25. B(H  24,C  22)                  1.1066         0.338786   
     26. B(C  25,C  22)                  1.5307         0.372651   
     27. B(H  26,C  25)                  1.1060         0.339502   
     28. B(H  27,C  25)                  1.1060         0.339507   
     29. B(C  28,C  25)                  1.5332         0.369221   
     30. B(H  29,C  28)                  1.1063         0.339169   
     31. B(H  30,C  28)                  1.1063         0.339165   
     32. B(C  31,C  28)                  1.5302         0.373311   
     33. B(H  32,C  31)                  1.1040         0.342102   
     34. B(H  33,C  31)                  1.1040         0.342098   
     35. B(C  34,C   2)                  1.2226         1.155754   
     36. B(H  35,C  19)                  1.1017         0.344913   
     37. B(H  36,C  31)                  1.1019         0.344683   
     38. B(C  37,C  34)                  1.4257         0.548035   
     39. B(C  38,C  37)                  1.4129         0.574454   
     40. B(C  39,C  38)                  1.3901         0.624678   
     41. B(C  40,C  39)                  1.4111         0.578269   
     42. B(C  41,C  40)                  1.4111         0.578124   
     43. B(C  42,C  41)                  1.3899         0.624925   
     44. B(C  42,C  37)                  1.4129         0.574347   
     45. B(H  44,C  41)                  1.0915         0.358176   
     46. B(H  45,C  38)                  1.0914         0.358227   
     47. B(H  46,C  42)                  1.0915         0.358127   
     48. B(H  47,C  39)                  1.0914         0.358187   
     49. B(C  48,C   0)                  1.4235         0.552465   
     50. B(C  49,C  48)                  1.4138         0.572462   
     51. B(C  50,C  49)                  1.3897         0.625571   
     52. B(C  51,C  50)                  1.4113         0.577805   
     53. B(C  52,C  51)                  1.4114         0.577470   
     54. B(C  53,C  52)                  1.3895         0.625868   
     55. B(C  53,C  48)                  1.4139         0.572178   
     56. B(H  55,C  52)                  1.0915         0.358100   
     57. B(H  56,C  49)                  1.0915         0.358120   
     58. B(H  57,C  53)                  1.0914         0.358300   
     59. B(H  58,C  50)                  1.0914         0.358230   
     60. B(C  59,C  51)                  1.4306         0.538145   
     61. B(C  60,C  59)                  1.2156         1.185625   
     62. B(C  60,H  54)                  1.0726         0.383932   
     63. B(C  61,C  40)                  1.4309         0.537636   
     64. B(C  62,C  61)                  1.2155         1.186197   
     65. B(C  62,H  43)                  1.0726         0.383884   
     66. L(C   1,C   0,C  48,C  53, 2) 179.9271         0.475365   
     67. L(C   1,C   0,C  48,C  53, 1) 179.6378         0.475365   
     68. L(C   0,C   1,C   3,C   8, 2) 179.9046         0.476736   
     69. L(C   0,C   1,C   3,C   8, 1) 178.9174         0.476736   
     70. L(C   6,C   2,C  34,C   5, 2) 179.9361         0.474731   
     71. L(C   6,C   2,C  34,C   5, 1) 179.8114         0.474731   
     72. A(C   4,C   3,C   8)          119.8091         0.414080   
     73. A(C   1,C   3,C   4)          121.2813         0.411474   
     74. A(C   1,C   3,C   8)          118.9097         0.421508   
     75. A(C   5,C   4,C  11)          121.7020         0.420053   
     76. A(C   3,C   4,C   5)          116.5363         0.410432   
     77. A(C   3,C   4,C  11)          121.7617         0.413705   
     78. A(C   6,C   5,H   9)          118.1059         0.351779   
     79. A(C   4,C   5,C   6)          122.7589         0.423859   
     80. A(C   4,C   5,H   9)          119.1352         0.346173   
     81. A(C   5,C   6,C   7)          120.2668         0.421033   
     82. A(C   2,C   6,C   7)          120.4802         0.412729   
     83. A(C   2,C   6,C   5)          119.2529         0.422602   
     84. A(C   6,C   7,C   8)          117.5895         0.421875   
     85. A(C   6,C   7,C  22)          119.5257         0.390171   
     86. A(C   8,C   7,C  22)          122.8847         0.400142   
     87. A(C   3,C   8,H  10)          117.3303         0.349147   
     88. A(C   3,C   8,C   7)          123.0393         0.428518   
     89. A(C   7,C   8,H  10)          119.6304         0.352502   
     90. A(C   4,C  11,C  13)          125.0289         0.399720   
     91. A(H  12,C  11,C  13)          117.7592         0.329679   
     92. A(C   4,C  11,H  12)          117.2118         0.348040   
     93. A(C  11,C  13,H  15)          110.0105         0.326434   
     94. A(H  14,C  13,H  15)          104.6553         0.284275   
     95. A(H  15,C  13,C  16)          109.1640         0.319704   
     96. A(H  14,C  13,C  16)          109.1580         0.319704   
     97. A(C  11,C  13,H  14)          110.0013         0.326435   
     98. A(C  11,C  13,C  16)          113.4743         0.369513   
     99. A(H  17,C  16,H  18)          106.0689         0.285634   
    100. A(C  13,C  16,H  18)          108.9777         0.320505   
    101. A(C  13,C  16,H  17)          108.9799         0.320505   
    102. A(C  13,C  16,C  19)          113.1237         0.362589   
    103. A(H  18,C  16,C  19)          109.7207         0.321379   
    104. A(H  17,C  16,C  19)          109.7222         0.321378   
    105. A(H  20,C  19,H  35)          107.6160         0.286579   
    106. A(C  16,C  19,H  35)          111.4254         0.322150   
    107. A(H  20,C  19,H  21)          107.3620         0.286219   
    108. A(C  16,C  19,H  21)          111.3077         0.321724   
    109. A(C  16,C  19,H  20)          111.3098         0.321724   
    110. A(H  21,C  19,H  35)          107.6157         0.286579   
    111. A(H  24,C  22,C  25)          109.1864         0.320961   
    112. A(H  23,C  22,C  25)          109.1824         0.320966   
    113. A(C   7,C  22,C  25)          116.9609         0.366751   
    114. A(H  23,C  22,H  24)          104.4317         0.285345   
    115. A(C   7,C  22,H  24)          108.1796         0.324099   
    116. A(C   7,C  22,H  23)          108.1706         0.324104   
    117. A(H  27,C  25,C  28)          109.0448         0.320588   
    118. A(H  26,C  25,C  28)          109.0483         0.320587   
    119. A(C  22,C  25,C  28)          112.6052         0.362471   
    120. A(H  26,C  25,H  27)          106.2466         0.285529   
    121. A(C  22,C  25,H  27)          109.8409         0.321073   
    122. A(C  22,C  25,H  26)          109.8494         0.321072   
    123. A(H  30,C  28,C  31)          109.5510         0.321113   
    124. A(H  29,C  28,C  31)          109.5501         0.321114   
    125. A(C  25,C  28,C  31)          113.1630         0.362581   
    126. A(H  29,C  28,H  30)          105.8987         0.285441   
    127. A(C  25,C  28,H  30)          109.2113         0.320535   
    128. A(C  25,C  28,H  29)          109.2083         0.320536   
    129. A(H  32,C  31,H  33)          107.3675         0.286208   
    130. A(C  28,C  31,H  33)          111.3053         0.321566   
    131. A(C  28,C  31,H  32)          111.3028         0.321567   
    132. A(H  33,C  31,H  36)          107.5793         0.286544   
    133. A(H  32,C  31,H  36)          107.5787         0.286545   
    134. A(C  28,C  31,H  36)          111.4986         0.321963   
    135. L(C   2,C  34,C  37,C  38, 2) 180.0720         0.475360   
    136. L(C   2,C  34,C  37,C  38, 1) 179.7973         0.475360   
    137. A(C  38,C  37,C  42)          118.4662         0.422337   
    138. A(C  34,C  37,C  42)          120.7756         0.418804   
    139. A(C  34,C  37,C  38)          120.7582         0.418818   
    140. A(C  39,C  38,H  45)          120.0948         0.353046   
    141. A(C  37,C  38,H  45)          119.1562         0.348084   
    142. A(C  37,C  38,C  39)          120.7490         0.428736   
    143. A(C  40,C  39,H  47)          119.1919         0.348466   
    144. A(C  38,C  39,H  47)          120.1211         0.353040   
    145. A(C  38,C  39,C  40)          120.6870         0.429245   
    146. A(C  41,C  40,C  61)          120.6591         0.417865   
    147. A(C  39,C  40,C  61)          120.6812         0.417883   
    148. A(C  39,C  40,C  41)          118.6597         0.423333   
    149. A(C  42,C  41,H  44)          120.1296         0.353061   
    150. A(C  40,C  41,H  44)          119.1904         0.348450   
    151. A(C  40,C  41,C  42)          120.6801         0.429256   
    152. A(C  41,C  42,H  46)          120.0588         0.353053   
    153. A(C  37,C  42,H  46)          119.1831         0.348057   
    154. A(C  37,C  42,C  41)          120.7581         0.428752   
    155. A(C  49,C  48,C  53)          118.3808         0.421790   
    156. A(C   0,C  48,C  53)          120.7073         0.419123   
    157. A(C   0,C  48,C  49)          120.9120         0.419160   
    158. A(C  50,C  49,H  56)          120.0071         0.353114   
    159. A(C  48,C  49,H  56)          119.1941         0.347863   
    160. A(C  48,C  49,C  50)          120.7987         0.428578   
    161. A(C  51,C  50,H  58)          119.2124         0.348426   
    162. A(C  49,C  50,H  58)          120.0900         0.353132   
    163. A(C  49,C  50,C  51)          120.6975         0.429293   
    164. A(C  52,C  51,C  59)          120.6728         0.417851   
    165. A(C  50,C  51,C  59)          120.6995         0.417894   
    166. A(C  50,C  51,C  52)          118.6277         0.423186   
    167. A(C  53,C  52,H  55)          120.1341         0.353139   
    168. A(C  51,C  52,H  55)          119.1410         0.348371   
    169. A(C  51,C  52,C  53)          120.7249         0.429285   
    170. A(C  52,C  53,H  57)          120.0964         0.353172   
    171. A(C  48,C  53,H  57)          119.1332         0.347864   
    172. A(C  48,C  53,C  52)          120.7704         0.428577   
    173. L(C  51,C  59,C  60,C  52, 2) 179.9925         0.476000   
    174. L(C  51,C  59,C  60,C  52, 1) 179.9842         0.476000   
    175. L(H  54,C  60,C  59, 2)       180.0019         0.399084   
    176. L(H  54,C  60,C  59, 1)       180.0566         0.399084   
    177. L(C  40,C  61,C  62,C  41, 2) 179.9999         0.475959   
    178. L(C  40,C  61,C  62,C  41, 1) 179.9795         0.475959   
    179. L(H  43,C  62,C  61, 2)       179.9996         0.399110   
    180. L(H  43,C  62,C  61, 1)       180.0014         0.399110   
    181. D(C  11,C   4,C   3,C   8)   -179.9339         0.017575   
    182. D(C   5,C   4,C   3,C   1)   -179.9485         0.017575   
    183. D(C   5,C   4,C   3,C   8)      0.0367         0.017575   
    184. D(C  11,C   4,C   3,C   1)      0.0809         0.017575   
    185. D(C   6,C   5,C   4,C   3)     -0.0275         0.020945   
    186. D(H   9,C   5,C   4,C   3)    179.9881         0.020945   
    187. D(C   6,C   5,C   4,C  11)    179.9431         0.020945   
    188. D(H   9,C   5,C   4,C  11)     -0.0413         0.020945   
    189. D(C   7,C   6,C   5,C   4)      0.0093         0.025567   
    190. D(C   7,C   6,C   5,H   9)    179.9938         0.025567   
    191. D(C   2,C   6,C   5,C   4)   -179.9880         0.025567   
    192. D(C   2,C   6,C   5,H   9)     -0.0035         0.025567   
    193. D(C  22,C   7,C   6,C   2)     -0.0285         0.019388   
    194. D(C   8,C   7,C   6,C   2)    179.9977         0.019388   
    195. D(C  22,C   7,C   6,C   5)    179.9742         0.019388   
    196. D(C   8,C   7,C   6,C   5)      0.0004         0.019388   
    197. D(H  10,C   8,C   7,C   6)    179.9825         0.026180   
    198. D(H  10,C   8,C   7,C  22)      0.0097         0.026180   
    199. D(C   3,C   8,C   7,C  22)   -179.9628         0.026180   
    200. D(H  10,C   8,C   3,C   4)    179.9975         0.023237   
    201. D(C   7,C   8,C   3,C   4)     -0.0295         0.023237   
    202. D(C   7,C   8,C   3,C   1)    179.9560         0.023237   
    203. D(C   3,C   8,C   7,C   6)      0.0101         0.026180   
    204. D(H  10,C   8,C   3,C   1)     -0.0170         0.023237   
    205. D(C  13,C  11,C   4,C   5)     -0.0088         0.022991   
    206. D(H  12,C  11,C   4,C   5)   -179.9632         0.022991   
    207. D(C  13,C  11,C   4,C   3)    179.9603         0.022991   
    208. D(H  12,C  11,C   4,C   3)      0.0058         0.022991   
    209. D(H  15,C  13,C  11,C   4)     57.4212         0.012929   
    210. D(H  14,C  13,C  11,C   4)    -57.3566         0.012929   
    211. D(H  14,C  13,C  11,H  12)    122.5976         0.012929   
    212. D(C  16,C  13,C  11,C   4)   -179.9604         0.012929   
    213. D(H  15,C  13,C  11,H  12)   -122.6246         0.012929   
    214. D(C  16,C  13,C  11,H  12)     -0.0062         0.012929   
    215. D(C  19,C  16,C  13,C  11)    179.9675         0.010845   
    216. D(C  19,C  16,C  13,H  14)     56.8990         0.010845   
    217. D(H  18,C  16,C  13,H  15)   -179.2816         0.010845   
    218. D(H  18,C  16,C  13,H  14)    -65.4350         0.010845   
    219. D(H  18,C  16,C  13,C  11)     57.6336         0.010845   
    220. D(H  17,C  16,C  13,H  15)     65.3899         0.010845   
    221. D(H  17,C  16,C  13,H  14)    179.2364         0.010845   
    222. D(C  19,C  16,C  13,H  15)    -56.9476         0.010845   
    223. D(H  17,C  16,C  13,C  11)    -57.6950         0.010845   
    224. D(H  35,C  19,C  16,H  18)    -58.0822         0.011189   
    225. D(H  35,C  19,C  16,H  17)     58.0769         0.011189   
    226. D(H  35,C  19,C  16,C  13)    179.9993         0.011189   
    227. D(H  21,C  19,C  16,H  18)     62.0505         0.011189   
    228. D(H  21,C  19,C  16,H  17)    178.2096         0.011189   
    229. D(H  21,C  19,C  16,C  13)    -59.8680         0.011189   
    230. D(H  20,C  19,C  16,H  18)   -178.2167         0.011189   
    231. D(H  20,C  19,C  16,H  17)    -62.0576         0.011189   
    232. D(H  20,C  19,C  16,C  13)     59.8648         0.011189   
    233. D(C  25,C  22,C   7,C   8)      0.1013         0.011618   
    234. D(C  25,C  22,C   7,C   6)   -179.8710         0.011618   
    235. D(H  24,C  22,C   7,C   8)   -123.6183         0.011618   
    236. D(H  24,C  22,C   7,C   6)     56.4094         0.011618   
    237. D(H  23,C  22,C   7,C   8)    123.8081         0.011618   
    238. D(H  23,C  22,C   7,C   6)    -56.1642         0.011618   
    239. D(H  27,C  25,C  22,H  23)    -64.9813         0.011092   
    240. D(H  27,C  25,C  22,C   7)     58.2078         0.011092   
    241. D(H  26,C  25,C  22,H  24)     64.8947         0.011092   
    242. D(H  26,C  25,C  22,H  23)    178.5012         0.011092   
    243. D(H  26,C  25,C  22,C   7)    -58.3098         0.011092   
    244. D(C  28,C  25,C  22,H  24)    -56.8518         0.011092   
    245. D(C  28,C  25,C  22,H  23)     56.7547         0.011092   
    246. D(C  28,C  25,C  22,C   7)    179.9437         0.011092   
    247. D(H  27,C  25,C  22,H  24)   -178.5878         0.011092   
    248. D(C  31,C  28,C  25,H  27)    -57.7973         0.010901   
    249. D(C  31,C  28,C  25,C  22)   -179.9836         0.010901   
    250. D(H  30,C  28,C  25,H  27)    179.8903         0.010901   
    251. D(H  30,C  28,C  25,H  26)    -64.4957         0.010901   
    252. D(H  30,C  28,C  25,C  22)     57.7039         0.010901   
    253. D(H  29,C  28,C  25,H  27)     64.5118         0.010901   
    254. D(C  31,C  28,C  25,H  26)     57.8167         0.010901   
    255. D(H  29,C  28,C  25,H  26)   -179.8743         0.010901   
    256. D(H  29,C  28,C  25,C  22)    -57.6746         0.010901   
    257. D(H  36,C  31,C  28,H  30)    -57.8793         0.011129   
    258. D(H  36,C  31,C  28,H  29)     57.8797         0.011129   
    259. D(H  36,C  31,C  28,C  25)    179.9979         0.011129   
    260. D(H  33,C  31,C  28,H  30)     62.2552         0.011129   
    261. D(H  33,C  31,C  28,H  29)    178.0143         0.011129   
    262. D(H  33,C  31,C  28,C  25)    -59.8676         0.011129   
    263. D(H  32,C  31,C  28,H  30)   -178.0113         0.011129   
    264. D(H  32,C  31,C  28,H  29)    -62.2523         0.011129   
    265. D(H  32,C  31,C  28,C  25)     59.8659         0.011129   
    266. D(C  42,C  37,C   6,C   7)     -1.0902         0.001500   
    267. D(C  42,C  37,C   6,C   5)    178.8990         0.001500   
    268. D(C  38,C  37,C   6,C   7)    178.8961         0.001500   
    269. D(C  38,C  37,C   6,C   5)     -1.1147         0.001500   
    270. D(H  45,C  38,C  37,C  42)    179.9725         0.022652   
    271. D(H  45,C  38,C  37,C  34)     -0.0265         0.022652   
    272. D(C  39,C  38,C  37,C  42)      0.0065         0.022652   
    273. D(C  39,C  38,C  37,C  34)   -179.9925         0.022652   
    274. D(H  47,C  39,C  38,H  45)      0.0049         0.027027   
    275. D(H  47,C  39,C  38,C  37)    179.9705         0.027027   
    276. D(C  40,C  39,C  38,H  45)   -179.9726         0.027027   
    277. D(C  40,C  39,C  38,C  37)     -0.0070         0.027027   
    278. D(C  61,C  40,C  39,H  47)      0.0253         0.022968   
    279. D(C  61,C  40,C  39,C  38)   -179.9970         0.022968   
    280. D(C  41,C  40,C  39,H  47)   -179.9756         0.022968   
    281. D(C  41,C  40,C  39,C  38)      0.0021         0.022968   
    282. D(H  44,C  41,C  40,C  61)      0.0262         0.022956   
    283. D(H  44,C  41,C  40,C  39)   -179.9728         0.022956   
    284. D(C  42,C  41,C  40,C  61)   -179.9977         0.022956   
    285. D(C  42,C  41,C  40,C  39)      0.0032         0.022956   
    286. D(H  46,C  42,C  41,H  44)      0.0055         0.027050   
    287. D(H  46,C  42,C  41,C  40)   -179.9703         0.027050   
    288. D(C  37,C  42,C  41,H  44)    179.9722         0.027050   
    289. D(C  37,C  42,C  41,C  40)     -0.0036         0.027050   
    290. D(H  46,C  42,C  37,C  38)    179.9658         0.022643   
    291. D(H  46,C  42,C  37,C  34)     -0.0352         0.022643   
    292. D(C  41,C  42,C  37,C  38)     -0.0012         0.022643   
    293. D(C  41,C  42,C  37,C  34)    179.9978         0.022643   
    294. D(C  53,C  48,C   3,C   8)      1.1129         0.001500   
    295. D(C  53,C  48,C   3,C   4)   -178.9221         0.001500   
    296. D(C  49,C  48,C   3,C   8)   -178.8842         0.001500   
    297. D(C  49,C  48,C   3,C   4)      1.0809         0.001500   
    298. D(H  56,C  49,C  48,C  53)   -179.9582         0.022489   
    299. D(H  56,C  49,C  48,C   0)      0.0402         0.022489   
    300. D(C  50,C  49,C  48,C  53)     -0.0014         0.022489   
    301. D(C  50,C  49,C  48,C   0)    179.9970         0.022489   
    302. D(H  58,C  50,C  49,H  56)     -0.0144         0.027109   
    303. D(H  58,C  50,C  49,C  48)   -179.9708         0.027109   
    304. D(C  51,C  50,C  49,H  56)    179.9623         0.027109   
    305. D(C  51,C  50,C  49,C  48)      0.0059         0.027109   
    306. D(C  52,C  51,C  50,H  58)    179.9729         0.022929   
    307. D(C  52,C  51,C  50,C  49)     -0.0040         0.022929   
    308. D(C  59,C  51,C  50,H  58)     -0.0186         0.022929   
    309. D(C  59,C  51,C  50,C  49)   -179.9955         0.022929   
    310. D(H  55,C  52,C  51,C  59)     -0.0330         0.022901   
    311. D(H  55,C  52,C  51,C  50)    179.9755         0.022901   
    312. D(C  53,C  52,C  51,C  59)    179.9891         0.022901   
    313. D(C  53,C  52,C  51,C  50)     -0.0024         0.022901   
    314. D(H  57,C  53,C  52,H  55)     -0.0037         0.027137   
    315. D(H  57,C  53,C  52,C  51)    179.9739         0.027137   
    316. D(C  48,C  53,C  52,H  55)   -179.9707         0.027137   
    317. D(C  48,C  53,C  52,C  51)      0.0069         0.027137   
    318. D(H  57,C  53,C  48,C  49)   -179.9723         0.022465   
    319. D(H  57,C  53,C  48,C   0)      0.0293         0.022465   
    320. D(C  52,C  53,C  48,C  49)     -0.0050         0.022465   
    321. D(C  52,C  53,C  48,C   0)    179.9966         0.022465   
    -----------------------------------------------------------------

Number of atoms                         .... 63
Number of degrees of freedom            .... 321

         *************************************************************
         *                GEOMETRY OPTIMIZATION CYCLE   1            *
         *************************************************************
---------------------------------
CARTESIAN COORDINATES (ANGSTROEM)
---------------------------------
  C     12.367592   -0.025121   -0.005055
  C     11.143516   -0.065571   -0.003091
  C      5.469965    0.000164   -0.000860
  C      9.724428   -0.085636   -0.001988
  C      8.990947   -1.332264   -0.004597
  C      7.571180   -1.234603   -0.004335
  C      6.897570   -0.010526   -0.001156
  C      7.633835    1.219230    0.001830
  C      9.025636    1.138500    0.001412
  H      6.976365   -2.148083   -0.006442
  H      9.618395    2.053009    0.003336
  C      9.648268   -2.580728   -0.006648
  H     10.741775   -2.570134   -0.006087
  C      8.962822   -3.914226   -0.008547
  H      8.289115   -3.996019    0.869672
  H      8.289579   -3.993943   -0.887314
  C      9.934837   -5.100882   -0.009597
  H     10.595360   -5.023915   -0.892993
  H     10.595356   -5.025429    0.873929
  C      9.227340   -6.456809   -0.010736
  H      8.583968   -6.572870   -0.900262
  H      8.584084   -6.574381    0.878675
  C      6.886556    2.536546    0.004661
  H      6.207286    2.549836   -0.868804
  H      6.210054    2.547844    0.880332
  C      7.730810    3.813338    0.004708
  H      8.395334    3.824131    0.888791
  H      8.393542    3.825194   -0.880701
  C      6.875218    5.085593    0.006284
  H      6.207746    5.076437   -0.875929
  H      6.209688    5.075624    0.889957
  C      7.706740    6.370139    0.005945
  H      8.357126    6.426652   -0.884294
  H      8.359148    6.425867    0.894756
  C      4.247408    0.005293    0.000069
  H      9.950429   -7.288043   -0.011486
  H      7.065522    7.266267    0.007061
  C      2.821725    0.006250    0.000155
  C      2.098345   -1.207100   -0.026231
  C      0.708294   -1.205940   -0.026298
  C     -0.010828    0.007844    0.000149
  C      0.709640    1.220907    0.026632
  C      2.099585    1.220396    0.026604
  H     -3.729805    0.011363    0.000138
  H      0.162122    2.164869    0.047653
  H      2.644831   -2.151614   -0.047263
  H      2.646650    2.164662    0.047708
  H      0.159786   -2.149317   -0.047298
  C     13.789982    0.030865   -0.006241
  C     14.563398   -1.152339   -0.033105
  C     15.951874   -1.094939   -0.034266
  C     16.621636    0.147027   -0.008504
  C     15.852075    1.329913    0.018385
  C     14.463678    1.273734    0.019439
  H     20.337203    0.302453   -0.011733
  H     16.361455    2.295067    0.038832
  H     14.057010   -2.119043   -0.053804
  H     13.878704    2.194834    0.040783
  H     16.537579   -2.015637   -0.055623
  C     18.051053    0.206171   -0.009795
  C     19.265622    0.256760   -0.010806
  C     -1.441726    0.008893    0.000141
  C     -2.657216    0.010219    0.000143

----------------------------
CARTESIAN COORDINATES (A.U.)
----------------------------
  NO LB      ZA    FRAG     MASS         X           Y           Z
   0 C     6.0000    0    12.011   23.371362   -0.047471   -0.009552
   1 C     6.0000    0    12.011   21.058193   -0.123911   -0.005841
   2 C     6.0000    0    12.011   10.336736    0.000310   -0.001625
   3 C     6.0000    0    12.011   18.376506   -0.161828   -0.003756
   4 C     6.0000    0    12.011   16.990427   -2.517614   -0.008686
   5 C     6.0000    0    12.011   14.307457   -2.333061   -0.008192
   6 C     6.0000    0    12.011   13.034519   -0.019890   -0.002184
   7 C     6.0000    0    12.011   14.425857    2.304010    0.003458
   8 C     6.0000    0    12.011   17.055979    2.151452    0.002669
   9 H     1.0000    0     1.008   13.183418   -4.059289   -0.012173
  10 H     1.0000    0     1.008   18.176132    3.879625    0.006305
  11 C     6.0000    0    12.011   18.232585   -4.876869   -0.012562
  12 H     1.0000    0     1.008   20.299013   -4.856849   -0.011503
  13 C     6.0000    0    12.011   16.937280   -7.396815   -0.016151
  14 H     1.0000    0     1.008   15.664156   -7.551381    1.643442
  15 H     1.0000    0     1.008   15.665035   -7.547458   -1.676780
  16 C     6.0000    0    12.011   18.774121   -9.639270   -0.018135
  17 H     1.0000    0     1.008   20.022328   -9.493823   -1.687513
  18 H     1.0000    0     1.008   20.022321   -9.496684    1.651487
  19 C     6.0000    0    12.011   17.437146  -12.201600   -0.020287
  20 H     1.0000    0     1.008   16.221348  -12.420925   -1.701249
  21 H     1.0000    0     1.008   16.221567  -12.423779    1.660455
  22 C     6.0000    0    12.011   13.013705    4.793377    0.008809
  23 H     1.0000    0     1.008   11.730071    4.818492   -1.641801
  24 H     1.0000    0     1.008   11.735301    4.814728    1.663587
  25 C     6.0000    0    12.011   14.609114    7.206164    0.008897
  26 H     1.0000    0     1.008   15.864881    7.226561    1.679572
  27 H     1.0000    0     1.008   15.861495    7.228569   -1.664283
  28 C     6.0000    0    12.011   12.992279    9.610378    0.011874
  29 H     1.0000    0     1.008   11.730940    9.593075   -1.655266
  30 H     1.0000    0     1.008   11.734610    9.591539    1.681775
  31 C     6.0000    0    12.011   14.563628   12.037819    0.011234
  32 H     1.0000    0     1.008   15.792680   12.144612   -1.671073
  33 H     1.0000    0     1.008   15.796500   12.143128    1.690845
  34 C     6.0000    0    12.011    8.026438    0.010002    0.000130
  35 H     1.0000    0     1.008   18.803586  -13.772405   -0.021705
  36 H     1.0000    0     1.008   13.351902   13.731255    0.013343
  37 C     6.0000    0    12.011    5.332288    0.011811    0.000294
  38 C     6.0000    0    12.011    3.965297   -2.281088   -0.049569
  39 C     6.0000    0    12.011    1.338481   -2.278895   -0.049696
  40 C     6.0000    0    12.011   -0.020462    0.014823    0.000282
  41 C     6.0000    0    12.011    1.341026    2.307180    0.050328
  42 C     6.0000    0    12.011    3.967640    2.306215    0.050274
  43 H     1.0000    0     1.008   -7.048309    0.021473    0.000260
  44 H     1.0000    0     1.008    0.306367    4.091009    0.090051
  45 H     1.0000    0     1.008    4.998006   -4.065962   -0.089314
  46 H     1.0000    0     1.008    5.001444    4.090618    0.090156
  47 H     1.0000    0     1.008    0.301951   -4.061620   -0.089381
  48 C     6.0000    0    12.011   26.059289    0.058327   -0.011794
  49 C     6.0000    0    12.011   27.520834   -2.177605   -0.062559
  50 C     6.0000    0    12.011   30.144673   -2.069134   -0.064754
  51 C     6.0000    0    12.011   31.410341    0.277840   -0.016070
  52 C     6.0000    0    12.011   29.956080    2.513171    0.034742
  53 C     6.0000    0    12.011   27.332390    2.407009    0.036735
  54 H     1.0000    0     1.008   38.431745    0.571552   -0.022172
  55 H     1.0000    0     1.008   30.918669    4.337047    0.073382
  56 H     1.0000    0     1.008   26.563899   -4.004411   -0.101676
  57 H     1.0000    0     1.008   26.226949    4.147636    0.077069
  58 H     1.0000    0     1.008   31.251496   -3.809002   -0.105113
  59 C     6.0000    0    12.011   34.111547    0.389607   -0.018509
  60 C     6.0000    0    12.011   36.406749    0.485206   -0.020420
  61 C     6.0000    0    12.011   -2.724467    0.016804    0.000267
  62 C     6.0000    0    12.011   -5.021410    0.019311    0.000270

--------------------------------
INTERNAL COORDINATES (ANGSTROEM)
--------------------------------
 C      0   0   0     0.000000000000     0.00000000     0.00000000
 C      1   0   0     1.224745957891     0.00000000     0.00000000
 C      2   1   0     5.673932187474   177.44255756     0.00000000
 C      2   1   3     1.419230016468   178.91633525     0.95116734
 C      4   2   1     1.446403787017   121.28127283   177.34690187
 C      5   4   2     1.423121441889   116.53630059   180.05151761
 C      6   5   4     1.397184887241   122.75893800   359.97254005
 C      7   6   5     1.433315338501   120.26683998     0.00000000
 C      8   7   6     1.394140055711   117.58953501     0.00000000
 H      6   5   4     1.090071931741   119.13520003   179.98814308
 H      9   8   7     1.089813987112   119.63041169   179.98251657
 C      5   4   2     1.410935125707   121.76171455     0.08094689
 H     12   5   4     1.093558284207   117.21182552     0.00000000
 C     12   5   4     1.499351840827   125.02894282   179.96026277
 H     14  12   5     1.109883348515   110.00128825   302.64339252
 H     14  12   5     1.109883631949   110.01046723    57.42119819
 C     14  12   5     1.533938138315   113.47430760   180.03959354
 H     17  14  12     1.105714340950   108.97987194   302.30500191
 H     17  14  12     1.105710975256   108.97770519    57.63356097
 C     17  14  12     1.529408279507   113.12372701   179.96754281
 H     20  17  14     1.103927564631   111.30984695    59.86476478
 H     20  17  14     1.103926400054   111.30768517   300.13198240
 C      8   7   6     1.514515135056   119.52571167   179.97422192
 H     23   8   7     1.106582672339   108.17063914   303.83578800
 H     23   8   7     1.106608447990   108.17960601    56.40940097
 C     23   8   7     1.530673801407   116.96093755   180.12900104
 H     26  23   8     1.106033786353   109.84941389   301.69019857
 H     26  23   8     1.106030068437   109.84087964    58.20775548
 C     26  23   8     1.533190689614   112.60523723   179.94374157
 H     29  26  23     1.106301027429   109.20825605   302.32540317
 H     29  26  23     1.106303705046   109.21129326    57.70392984
 C     29  26  23     1.530192107677   113.16304059   180.01638374
 H     32  29  26     1.103956721307   111.30281520    59.86589868
 H     32  29  26     1.103960020777   111.30527074   300.13244450
 C      3   2   1     1.222568191076   179.57604189   181.28432800
 H     20  17  14     1.101729533983   111.42539137   179.99925957
 H     32  29  26     1.101910663345   111.49855809   179.99791384
 C     35   3   7     1.425682997822   179.79417030   339.25188791
 C     38  35   3     1.412867227940   120.75822702     9.97605705
 C     39  38  35     1.390051523434   120.74901628   180.00750554
 C     40  39  38     1.411065301303   120.68696321     0.00000000
 C     41  40  39     1.411133785139   118.65966676     0.00000000
 C     42  41  40     1.389944205980   120.68005546     0.00000000
 H     41  40  39     3.718978633115   120.69340533   180.00286211
 H     42  41  40     1.091458530797   119.19037617   180.02716486
 H     39  38  35     1.091419727472   119.15615109   359.97345899
 H     43  42  41     1.091495862177   120.05882902   180.02969477
 H     40  39  38     1.091449981074   120.12110349   179.97050332
 C      1   2   4     1.423491488431   179.63598276     9.47069556
 C     49   1   2     1.413812736343   120.91197202   174.27309968
 C     50  49   1     1.389662654543   120.79874529   179.99696230
 C     51  50  49     1.411284200668   120.69750779     0.00000000
 C     52  51  50     1.411441999179   118.62769180     0.00000000
 C     53  52  51     1.389533331421   120.72487005     0.00000000
 H     52  51  50     3.718817658966   120.72552706   180.00287027
 H     53  52  51     1.091516165510   119.14101731   179.97545654
 H     50  49   1     1.091500871228   119.19411146     0.04019211
 H     54  53  52     1.091364264197   120.09641370   179.97392966
 H     51  50  49     1.091417413007   120.09004746   180.02918214
 C     52  51  50     1.430640334209   120.69951375   180.00447019
 C     55  52  51     1.072555675039     0.04629964   359.02884181
 C     41  40  39     1.430898283939   120.68118385   180.00300651
 C     44  41  40     1.072589613088     0.00687605     2.12526547

---------------------------
INTERNAL COORDINATES (A.U.)
---------------------------
 C      0   0   0     0.000000000000     0.00000000     0.00000000
 C      1   0   0     2.314434444042     0.00000000     0.00000000
 C      2   1   0    10.722177936767   177.44255756     0.00000000
 C      2   1   3     2.681956052166   178.91633525     0.95116734
 C      4   2   1     2.733307036528   121.28127283   177.34690187
 C      5   4   2     2.689309780481   116.53630059   180.05151761
 C      6   5   4     2.640296795340   122.75893800   359.97254005
 C      7   6   5     2.708573453316   120.26683998     0.00000000
 C      8   7   6     2.634542897624   117.58953501     0.00000000
 H      6   5   4     2.059937417265   119.13520003   179.98814308
 H      9   8   7     2.059449972559   119.63041169   179.98251657
 C      5   4   2     2.666280980315   121.76171455     0.08094689
 H     12   5   4     2.066525668632   117.21182552     0.00000000
 C     12   5   4     2.833364357554   125.02894282   179.96026277
 H     14  12   5     2.097375569294   110.00128825   302.64339252
 H     14  12   5     2.097376104906   110.01046723    57.42119819
 C     14  12   5     2.898722987793   113.47430760   180.03959354
 H     17  14  12     2.089497286746   108.97987194   302.30500191
 H     17  14  12     2.089490926505   108.97770519    57.63356097
 C     17  14  12     2.890162795220   113.12372701   179.96754281
 H     20  17  14     2.086120768840   111.30984695    59.86476478
 H     20  17  14     2.086118568108   111.30768517   300.13198240
 C      8   7   6     2.862018830934   119.52571167   179.97422192
 H     23   8   7     2.091138195264   108.17063914   303.83578800
 H     23   8   7     2.091186904185   108.17960601    56.40940097
 C     23   8   7     2.892554285028   116.96093755   180.12900104
 H     26  23   8     2.090100951071   109.84941389   301.69019857
 H     26  23   8     2.090093925229   109.84087964    58.20775548
 C     26  23   8     2.897310514448   112.60523723   179.94374157
 H     29  26  23     2.090605963517   109.20825605   302.32540317
 H     29  26  23     2.090611023478   109.21129326    57.70392984
 C     29  26  23     2.891644015798   113.16304059   180.01638374
 H     32  29  26     2.086175866971   111.30281520    59.86589868
 H     32  29  26     2.086182102067   111.30527074   300.13244450
 C      3   2   1     2.310319061177   179.57604189   181.28432800
 H     20  17  14     2.081967092881   111.42539137   179.99925957
 H     32  29  26     2.082309377770   111.49855809   179.99791384
 C     35   3   7     2.694150419671   179.79417030   339.25188791
 C     38  35   3     2.669932124399   120.75822702     9.97605705
 C     39  38  35     2.626816691331   120.74901628   180.00750554
 C     40  39  38     2.666526976541   120.68696321     0.00000000
 C     41  40  39     2.666656392237   118.65966676     0.00000000
 C     42  41  40     2.626613890732   120.68005546     0.00000000
 H     41  40  39     7.027851114492   120.69340533   180.00286211
 H     42  41  40     2.062557709739   119.19037617   180.02716486
 H     39  38  35     2.062484382081   119.15615109   359.97345899
 H     43  42  41     2.062628255823   120.05882902   180.02969477
 H     40  39  38     2.062541553103   120.12110349   179.97050332
 C      1   2   4     2.690009067103   179.63598276     9.47069556
 C     49   1   2     2.671718876338   120.91197202   174.27309968
 C     50  49   1     2.626081835625   120.79874529   179.99696230
 C     51  50  49     2.666940636393   120.69750779     0.00000000
 C     52  51  50     2.667238832362   118.62769180     0.00000000
 C     53  52  51     2.625837450342   120.72487005     0.00000000
 H     52  51  50     7.027546917437   120.72552706   180.00287027
 H     53  52  51     2.062666623561   119.14101731   179.97545654
 H     50  49   1     2.062637721557   119.19411146     0.04019211
 H     54  53  52     2.062379571681   120.09641370   179.97392966
 H     51  50  49     2.062480008376   120.09004746   180.02918214
 C     52  51  50     2.703518427797   120.69951375   180.00447019
 C     55  52  51     2.026836489206     0.04629964   359.02884181
 C     41  40  39     2.704005882143   120.68118385   180.00300651
 C     44  41  40     2.026900622824     0.00687605     2.12526547

---------------------
BASIS SET INFORMATION
---------------------
There are 2 groups of distinct atoms

 Group   1 Type C   : 17s4p1d contracted to 3s2p1d pattern {881/31/1}
 Group   2 Type H   : 4s1p contracted to 2s1p pattern {31/1}

Atom   0C    basis set group =>   1
Atom   1C    basis set group =>   1
Atom   2C    basis set group =>   1
Atom   3C    basis set group =>   1
Atom   4C    basis set group =>   1
Atom   5C    basis set group =>   1
Atom   6C    basis set group =>   1
Atom   7C    basis set group =>   1
Atom   8C    basis set group =>   1
Atom   9H    basis set group =>   2
Atom  10H    basis set group =>   2
Atom  11C    basis set group =>   1
Atom  12H    basis set group =>   2
Atom  13C    basis set group =>   1
Atom  14H    basis set group =>   2
Atom  15H    basis set group =>   2
Atom  16C    basis set group =>   1
Atom  17H    basis set group =>   2
Atom  18H    basis set group =>   2
Atom  19C    basis set group =>   1
Atom  20H    basis set group =>   2
Atom  21H    basis set group =>   2
Atom  22C    basis set group =>   1
Atom  23H    basis set group =>   2
Atom  24H    basis set group =>   2
Atom  25C    basis set group =>   1
Atom  26H    basis set group =>   2
Atom  27H    basis set group =>   2
Atom  28C    basis set group =>   1
Atom  29H    basis set group =>   2
Atom  30H    basis set group =>   2
Atom  31C    basis set group =>   1
Atom  32H    basis set group =>   2
Atom  33H    basis set group =>   2
Atom  34C    basis set group =>   1
Atom  35H    basis set group =>   2
Atom  36H    basis set group =>   2
Atom  37C    basis set group =>   1
Atom  38C    basis set group =>   1
Atom  39C    basis set group =>   1
Atom  40C    basis set group =>   1
Atom  41C    basis set group =>   1
Atom  42C    basis set group =>   1
Atom  43H    basis set group =>   2
Atom  44H    basis set group =>   2
Atom  45H    basis set group =>   2
Atom  46H    basis set group =>   2
Atom  47H    basis set group =>   2
Atom  48C    basis set group =>   1
Atom  49C    basis set group =>   1
Atom  50C    basis set group =>   1
Atom  51C    basis set group =>   1
Atom  52C    basis set group =>   1
Atom  53C    basis set group =>   1
Atom  54H    basis set group =>   2
Atom  55H    basis set group =>   2
Atom  56H    basis set group =>   2
Atom  57H    basis set group =>   2
Atom  58H    basis set group =>   2
Atom  59C    basis set group =>   1
Atom  60C    basis set group =>   1
Atom  61C    basis set group =>   1
Atom  62C    basis set group =>   1
---------------------------------
AUXILIARY/J BASIS SET INFORMATION
---------------------------------
There are 2 groups of distinct atoms

 Group   1 Type C   : 12s5p4d2f1g contracted to 6s4p3d1f1g pattern {711111/2111/211/2/1}
 Group   2 Type H   : 5s2p1d contracted to 3s1p1d pattern {311/2/1}

Atom   0C    basis set group =>   1
Atom   1C    basis set group =>   1
Atom   2C    basis set group =>   1
Atom   3C    basis set group =>   1
Atom   4C    basis set group =>   1
Atom   5C    basis set group =>   1
Atom   6C    basis set group =>   1
Atom   7C    basis set group =>   1
Atom   8C    basis set group =>   1
Atom   9H    basis set group =>   2
Atom  10H    basis set group =>   2
Atom  11C    basis set group =>   1
Atom  12H    basis set group =>   2
Atom  13C    basis set group =>   1
Atom  14H    basis set group =>   2
Atom  15H    basis set group =>   2
Atom  16C    basis set group =>   1
Atom  17H    basis set group =>   2
Atom  18H    basis set group =>   2
Atom  19C    basis set group =>   1
Atom  20H    basis set group =>   2
Atom  21H    basis set group =>   2
Atom  22C    basis set group =>   1
Atom  23H    basis set group =>   2
Atom  24H    basis set group =>   2
Atom  25C    basis set group =>   1
Atom  26H    basis set group =>   2
Atom  27H    basis set group =>   2
Atom  28C    basis set group =>   1
Atom  29H    basis set group =>   2
Atom  30H    basis set group =>   2
Atom  31C    basis set group =>   1
Atom  32H    basis set group =>   2
Atom  33H    basis set group =>   2
Atom  34C    basis set group =>   1
Atom  35H    basis set group =>   2
Atom  36H    basis set group =>   2
Atom  37C    basis set group =>   1
Atom  38C    basis set group =>   1
Atom  39C    basis set group =>   1
Atom  40C    basis set group =>   1
Atom  41C    basis set group =>   1
Atom  42C    basis set group =>   1
Atom  43H    basis set group =>   2
Atom  44H    basis set group =>   2
Atom  45H    basis set group =>   2
Atom  46H    basis set group =>   2
Atom  47H    basis set group =>   2
Atom  48C    basis set group =>   1
Atom  49C    basis set group =>   1
Atom  50C    basis set group =>   1
Atom  51C    basis set group =>   1
Atom  52C    basis set group =>   1
Atom  53C    basis set group =>   1
Atom  54H    basis set group =>   2
Atom  55H    basis set group =>   2
Atom  56H    basis set group =>   2
Atom  57H    basis set group =>   2
Atom  58H    basis set group =>   2
Atom  59C    basis set group =>   1
Atom  60C    basis set group =>   1
Atom  61C    basis set group =>   1
Atom  62C    basis set group =>   1


           ************************************************************
           *        Program running with 16 parallel MPI-processes    *
           *              working on a common directory               *
           ************************************************************
------------------------------------------------------------------------------
                           ORCA GTO INTEGRAL CALCULATION
                           -- RI-GTO INTEGRALS CHOSEN --
------------------------------------------------------------------------------
------------------------------------------------------------------------------
                   ___                                                        
                  /   \      - P O W E R E D   B Y -                         
                 /     \                                                     
                 |  |  |   _    _      __       _____    __    __             
                 |  |  |  | |  | |    /  \     |  _  \  |  |  /  |          
                  \  \/   | |  | |   /    \    | | | |  |  | /  /          
                 / \  \   | |__| |  /  /\  \   | |_| |  |  |/  /          
                |  |  |   |  __  | /  /__\  \  |    /   |      \           
                |  |  |   | |  | | |   __   |  |    \   |  |\   \          
                \     /   | |  | | |  |  |  |  | |\  \  |  | \   \       
                 \___/    |_|  |_| |__|  |__|  |_| \__\ |__|  \__/        
                                                                              
                      - O R C A' S   B I G   F R I E N D -                    
                                      &                                       
                       - I N T E G R A L  F E E D E R -                       
                                                                              
 v1 FN, 2020, v2 2021                                                         
------------------------------------------------------------------------------


Reading SHARK input file opt.SHARKINP.tmp ... ok
----------------------
SHARK INTEGRAL PACKAGE
----------------------

Number of atoms                             ...     63
Number of basis functions                   ...    825
Number of shells                            ...    495
Maximum angular momentum                    ...      2
Integral batch strategy                     ... SHARK/LIBINT Hybrid
RI-J (if used) integral strategy            ... SPLIT-RIJ (Revised 2003 algorithm where possible)
Printlevel                                  ...      1
Contraction scheme used                     ... PARTIAL GENERAL contraction
Coulomb Range Separation                    ... NOT USED
Exchange Range Separation                   ... NOT USED
Finite Nucleus Model                        ... NOT USED
Auxiliary Coulomb fitting basis             ... AVAILABLE
   # of basis functions in Aux-J            ...   1985
   # of shells in Aux-J                     ...    655
   Maximum angular momentum in Aux-J        ...      4
Auxiliary J/K fitting basis                 ... NOT available
Auxiliary Correlation fitting basis         ... NOT available
Auxiliary 'external' fitting basis          ... NOT available
Integral threshold                          ...     2.500000e-11
Primitive cut-off                           ...     2.500000e-12
Primitive pair pre-selection threshold      ...     2.500000e-12

Calculating pre-screening integrals         ... done (  0.0 sec) Dimension = 495
Calculating pre-screening integrals (ORCA)  ... done (  0.1 sec) Dimension = 291
Organizing shell pair data                  ... done (  0.2 sec)
Shell pair information
Total number of shell pairs                 ...    122760
Shell pairs after pre-screening             ...     36382
Total number of primitive shell pairs       ...    193320
Primitive shell pairs kept                  ...     48367
          la=0 lb=0:  15463 shell pairs
          la=1 lb=0:  12936 shell pairs
          la=1 lb=1:   2317 shell pairs
          la=2 lb=0:   3999 shell pairs
          la=2 lb=1:   1429 shell pairs
          la=2 lb=2:    238 shell pairs

Calculating one electron integrals          ... done (  0.1 sec)
Calculating RI/J V-Matrix + Cholesky decomp.... done (  0.3 sec)
Calculating Nuclear repulsion               ... done (  0.0 sec) ENN=   2736.016152955227 Eh

SHARK setup successfully completed in   1.2 seconds

Maximum memory used throughout the entire GTOINT-calculation: 52.7 MB


           ************************************************************
           *        Program running with 16 parallel MPI-processes    *
           *              working on a common directory               *
           ************************************************************
-------------------------------------------------------------------------------
                                 ORCA SCF
-------------------------------------------------------------------------------

------------
SCF SETTINGS
------------
Hamiltonian:
 Density Functional     Method          .... DFT(GTOs)
 Exchange Functional    Exchange        .... B88
   X-Alpha parameter    XAlpha          ....  0.666667
   Becke's b parameter  XBeta           ....  0.004200
 Correlation Functional Correlation     .... LYP
 LDA part of GGA corr.  LDAOpt          .... VWN-5
 Gradients option       PostSCFGGA      .... off
 Hybrid DFT is turned on
   Fraction HF Exchange ScalHFX         ....  0.200000
   Scaling of DF-GGA-X  ScalDFX         ....  0.720000
   Scaling of DF-GGA-C  ScalDFC         ....  0.810000
   Scaling of DF-LDA-C  ScalLDAC        ....  1.000000
   Perturbative correction              ....  0.000000
   Density functional embedding theory  .... OFF
   NL short-range parameter             ....  4.800000
 RI-approximation to the Coulomb term is turned on
   Number of AuxJ basis functions       .... 1985
   RIJ-COSX (HFX calculated with COS-X)).... on


General Settings:
 Integral files         IntName         .... opt
 Hartree-Fock type      HFTyp           .... UHF
 Total Charge           Charge          ....    0
 Multiplicity           Mult            ....    2
 Number of Electrons    NEL             ....  233
 Basis Dimension        Dim             ....  621
 Nuclear Repulsion      ENuc            ....   2736.0161529552 Eh

Convergence Acceleration:
 DIIS                   CNVDIIS         .... on
   Start iteration      DIISMaxIt       ....    12
   Startup error        DIISStart       ....  0.200000
   # of expansion vecs  DIISMaxEq       ....     5
   Bias factor          DIISBfac        ....   1.050
   Max. coefficient     DIISMaxC        ....  10.000
 Trust-Rad. Augm. Hess. CNVTRAH         .... auto
   Auto Start mean grad. ratio tolernc. ....  1.125000
   Auto Start start iteration           ....    20
   Auto Start num. interpolation iter.  ....    10
   Max. Number of Micro iterations      ....    16
   Max. Number of Macro iterations      .... Maxiter - #DIIS iter
   Number of Davidson start vectors     ....     2
   Converg. threshold I  (grad. norm)   ....   1.000e-05
   Converg. threshold II (energy diff.) ....   1.000e-08
   Grad. Scal. Fac. for Micro threshold ....   0.100
   Minimum threshold for Micro iter.    ....   0.010
   NR start threshold (gradient norm)   ....   0.001
   Initial trust radius                 ....   0.400
   Minimum AH scaling param. (alpha)    ....   1.000
   Maximum AH scaling param. (alpha)    .... 1000.000
   Orbital update algorithm             .... Taylor
   White noise on init. David. guess    .... on
   Maximum white noise                  ....   0.010
   Quad. conv. algorithm                .... NR
 SOSCF                  CNVSOSCF        .... off
 Level Shifting         CNVShift        .... on
   Level shift para.    LevelShift      ....    0.2500
   Turn off err/grad.   ShiftErr        ....    0.0010
 Zerner damping         CNVZerner       .... off
 Static damping         CNVDamp         .... on
   Fraction old density DampFac         ....    0.7000
   Max. Damping (<1)    DampMax         ....    0.9800
   Min. Damping (>=0)   DampMin         ....    0.0000
   Turn off err/grad.   DampErr         ....    0.1000
 Fernandez-Rico         CNVRico         .... off

SCF Procedure:
 Maximum # iterations   MaxIter         ....   125
 SCF integral mode      SCFMode         .... Direct
   Integral package                     .... SHARK and LIBINT hybrid scheme
 Reset frequency        DirectResetFreq ....    20
 Integral Threshold     Thresh          ....  2.500e-11 Eh
 Primitive CutOff       TCut            ....  2.500e-12 Eh

Convergence Tolerance:
 Convergence Check Mode ConvCheckMode   .... Total+1el-Energy
 Convergence forced     ConvForced      .... 0
 Energy Change          TolE            ....  1.000e-08 Eh
 1-El. energy change                    ....  1.000e-05 Eh
 DIIS Error             TolErr          ....  5.000e-07


Diagonalization of the overlap matrix:
Smallest eigenvalue                        ... 4.461e-05
Time for diagonalization                   ...    0.103 sec
Threshold for overlap eigenvalues          ... 1.000e-08
Number of eigenvalues below threshold      ... 0
Time for construction of square roots      ...    0.065 sec
Total time needed                          ...    0.170 sec

Time for model grid setup =    0.457 sec

------------------------------
INITIAL GUESS: MODEL POTENTIAL
------------------------------
Loading Hartree-Fock densities                     ... done
Calculating cut-offs                               ... done
Initializing the effective Hamiltonian             ... done
Setting up the integral package (SHARK)            ... done
Starting the Coulomb interaction                   ... done (   0.4 sec)
Reading the grid                                   ... done
Mapping shells                                     ... done
Starting the XC term evaluation                    ... done (   0.2 sec)
  promolecular density results
     # of electrons  =    232.993650121
     EX              =   -183.185834602
     EC              =     -7.721913347
     EX+EC           =   -190.907747949
Transforming the Hamiltonian                       ... done (   0.0 sec)
Diagonalizing the Hamiltonian                      ... done (   0.1 sec)
Back transforming the eigenvectors                 ... done (   0.0 sec)
Now organizing SCF variables                       ... done
                      ------------------
                      INITIAL GUESS DONE (   1.5 sec)
                      ------------------
-------------------
DFT GRID GENERATION
-------------------

General Integration Accuracy     IntAcc      ... 4.388
Radial Grid Type                 RadialGrid  ... OptM3 with GC (2021)
Angular Grid (max. ang.)         AngularGrid ... 4 (Lebedev-302)
Angular grid pruning method      GridPruning ... 4 (adaptive)
Weight generation scheme         WeightScheme... Becke
Basis function cutoff            BFCut       ... 1.0000e-11
Integration weight cutoff        WCut        ... 1.0000e-14
Angular grids for H and He will be reduced by one unit
Partially contracted basis set               ... off
Rotationally invariant grid construction     ... off

Total number of grid points                  ...   295753
Total number of batches                      ...     4658
Average number of points per batch           ...       63
Average number of grid points per atom       ...     4694
Time for grid setup =    1.912 sec

--------------------
COSX GRID GENERATION
--------------------

GRIDX 1
-------
General Integration Accuracy     IntAcc      ... 3.816
Radial Grid Type                 RadialGrid  ... OptM3 with GC (2021)
Angular Grid (max. ang.)         AngularGrid ... 1 (Lebedev-50)
Angular grid pruning method      GridPruning ... 4 (adaptive)
Weight generation scheme         WeightScheme... Becke
Basis function cutoff            BFCut       ... 1.0000e-11
Integration weight cutoff        WCut        ... 1.0000e-14
Angular grids for H and He will be reduced by one unit
Partially contracted basis set               ... on
Rotationally invariant grid construction     ... off

Total number of grid points                  ...    37650
Total number of batches                      ...      624
Average number of points per batch           ...       60
Average number of grid points per atom       ...      598
UseSFitting                                  ... on

GRIDX 2
-------
General Integration Accuracy     IntAcc      ... 4.020
Radial Grid Type                 RadialGrid  ... OptM3 with GC (2021)
Angular Grid (max. ang.)         AngularGrid ... 2 (Lebedev-110)
Angular grid pruning method      GridPruning ... 4 (adaptive)
Weight generation scheme         WeightScheme... Becke
Basis function cutoff            BFCut       ... 1.0000e-11
Integration weight cutoff        WCut        ... 1.0000e-14
Angular grids for H and He will be reduced by one unit
Partially contracted basis set               ... on
Rotationally invariant grid construction     ... off

Total number of grid points                  ...    81041
Total number of batches                      ...     1298
Average number of points per batch           ...       62
Average number of grid points per atom       ...     1286
UseSFitting                                  ... on

GRIDX 3
-------
General Integration Accuracy     IntAcc      ... 4.338
Radial Grid Type                 RadialGrid  ... OptM3 with GC (2021)
Angular Grid (max. ang.)         AngularGrid ... 3 (Lebedev-194)
Angular grid pruning method      GridPruning ... 4 (adaptive)
Weight generation scheme         WeightScheme... Becke
Basis function cutoff            BFCut       ... 1.0000e-11
Integration weight cutoff        WCut        ... 1.0000e-14
Angular grids for H and He will be reduced by one unit
Partially contracted basis set               ... on
Rotationally invariant grid construction     ... off

Total number of grid points                  ...   177428
Total number of batches                      ...     2808
Average number of points per batch           ...       63
Average number of grid points per atom       ...     2816
UseSFitting                                  ... on

Time for X-Grid setup             =    3.155 sec

 re-compute Schwartz prescreening matrix in partically contracted basis (1) ...done (   0.111 sec)
--------------
SCF ITERATIONS
--------------
ITER       Energy         Delta-E        Max-DP      RMS-DP      [F,P]     Damp
               ***  Starting incremental Fock matrix formation  ***
  0  -1311.3608824957   0.000000000000 0.07197499  0.00084399  0.0868996 0.7000
  1  -1311.6587312548  -0.297848759080 0.06365177  0.00067381  0.0457504 0.7000
                               ***Turning on DIIS***
  2  -1311.7981141776  -0.139382922781 0.13312368  0.00133814  0.0175054 0.0000
  3  -1311.9983499839  -0.200235806305 0.02925520  0.00033994  0.0248945 0.0000
  4  -1312.0457861020  -0.047436118120 0.01729196  0.00014843  0.0051413 0.0000
  5  -1312.0486872524  -0.002901150443 0.00459192  0.00003295  0.0030496 0.0000
  6  -1312.0490916822  -0.000404429749 0.00345497  0.00001815  0.0023056 0.0000
  7  -1312.0492543228  -0.000162640586 0.00233776  0.00001225  0.0015041 0.0000
  8  -1312.0493446333  -0.000090310570 0.00209305  0.00001107  0.0010403 0.0000
  9  -1312.0494066713  -0.000062038009 0.00286007  0.00001915  0.0006183 0.0000
               *** Restarting incremental Fock matrix formation ***
                                   *** Resetting DIIS ***
 10  -1312.0496954829  -0.000288811549 0.00082582  0.00001173  0.0003171 0.0000
 11  -1312.0496999941  -0.000004511189 0.00048214  0.00000315  0.0004220 0.0000
 12  -1312.0497033615  -0.000003367420 0.00029102  0.00000200  0.0002292 0.0000
 13  -1312.0497047809  -0.000001419347 0.00049899  0.00000273  0.0001480 0.0000
 14  -1312.0497061674  -0.000001386557 0.00025569  0.00000147  0.0000834 0.0000
 15  -1312.0497065279  -0.000000360490 0.00011430  0.00000086  0.0000486 0.0000
 16  -1312.0497066559  -0.000000128030 0.00004378  0.00000038  0.0000327 0.0000
 17  -1312.0497066957  -0.000000039794 0.00003993  0.00000031  0.0000228 0.0000
 18  -1312.0497067329  -0.000000037210 0.00002292  0.00000019  0.0000157 0.0000
 19  -1312.0497067189   0.000000013996 0.00001381  0.00000013  0.0000105 0.0000
 20  -1312.0497067102   0.000000008765 0.00001011  0.00000009  0.0000130 0.0000
 21  -1312.0497067376  -0.000000027449 0.00000740  0.00000007  0.0000036 0.0000
 22  -1312.0497067661  -0.000000028434 0.00000525  0.00000006  0.0000044 0.0000
 23  -1312.0497067551   0.000000010927 0.00000472  0.00000004  0.0000033 0.0000
 24  -1312.0497067454   0.000000009717 0.00000528  0.00000005  0.0000019 0.0000
 25  -1312.0497067625  -0.000000017044 0.00000535  0.00000005  0.0000017 0.0000
                 **** Energy Check signals convergence ****

               *****************************************************
               *                     SUCCESS                       *
               *           SCF CONVERGED AFTER  26 CYCLES          *
               *****************************************************

Old exchange energy                            =    -37.268578083 Eh
New exchange energy                            =    -37.268705911 Eh
Exchange energy change after final integration =     -0.000127828 Eh
Total energy after final integration           =  -1312.049834587 Eh
Final COS-X integration done in                =    13.897 sec

----------------
TOTAL SCF ENERGY
----------------

Total Energy       :        -1312.04983459 Eh          -35702.69109 eV

Components:
Nuclear Repulsion  :         2736.01615296 Eh           74450.78453 eV
Electronic Energy  :        -4048.06598754 Eh         -110153.47562 eV
One Electron Energy:        -7208.26786323 Eh         -196146.94048 eV
Two Electron Energy:         3160.20187569 Eh           85993.46486 eV
Max COSX asymmetry :            0.00000079 Eh               0.00002 eV

Virial components:
Potential Energy   :        -2615.24821172 Eh          -71164.52178 eV
Kinetic Energy     :         1303.19837713 Eh           35461.83069 eV
Virial Ratio       :            2.00679210


DFT components:
N(Alpha)           :      117.000157166084 electrons
N(Beta)            :      116.000144311509 electrons
N(Total)           :      233.000301477593 electrons
E(X)               :     -147.897389564439 Eh       
E(C)               :       -9.123530896062 Eh       
E(XC)              :     -157.020920460501 Eh       
DFET-embed. en.    :        0.000000000000 Eh       

---------------
SCF CONVERGENCE
---------------

  Last Energy change         ...    3.3936e-09  Tolerance :   1.0000e-08
  Last MAX-Density change    ...    0.0000e+00  Tolerance :   1.0000e-07
  Last RMS-Density change    ...    0.0000e+00  Tolerance :   5.0000e-09
  Last DIIS Error            ...    1.6148e-06  Tolerance :   5.0000e-07

             **** THE GBW FILE WAS UPDATED (opt.gbw) ****
             **** DENSITY opt.scfp WAS UPDATED ****
             **** ENERGY FILE WAS UPDATED (opt.en.tmp) ****
----------------------
UHF SPIN CONTAMINATION
----------------------

Warning: in a DFT calculation there is little theoretical justification to 
         calculate <S**2> as in Hartree-Fock theory. We will do it anyways
         but you should keep in mind that the values have only limited relevance

Expectation value of <S**2>     :     0.789573
Ideal value S*(S+1) for S=0.5   :     0.750000
Deviation                       :     0.039573

             **** THE GBW FILE WAS UPDATED (opt.gbw) ****
             **** DENSITY opt.scfp WAS UPDATED ****
----------------
ORBITAL ENERGIES
----------------
                 SPIN UP ORBITALS
  NO   OCC          E(Eh)            E(eV) 
   0   1.0000     -10.223972      -278.2084 
   1   1.0000     -10.222766      -278.1756 
   2   1.0000     -10.222220      -278.1607 
   3   1.0000     -10.221293      -278.1355 
   4   1.0000     -10.217821      -278.0410 
   5   1.0000     -10.215770      -277.9852 
   6   1.0000     -10.205912      -277.7170 
   7   1.0000     -10.204384      -277.6754 
   8   1.0000     -10.204311      -277.6734 
   9   1.0000     -10.203738      -277.6578 
  10   1.0000     -10.203624      -277.6547 
  11   1.0000     -10.202844      -277.6335 
  12   1.0000     -10.202682      -277.6291 
  13   1.0000     -10.202339      -277.6197 
  14   1.0000     -10.202151      -277.6146 
  15   1.0000     -10.201887      -277.6075 
  16   1.0000     -10.198334      -277.5108 
  17   1.0000     -10.196039      -277.4483 
  18   1.0000     -10.195763      -277.4408 
  19   1.0000     -10.195205      -277.4256 
  20   1.0000     -10.194366      -277.4028 
  21   1.0000     -10.193983      -277.3924 
  22   1.0000     -10.193362      -277.3755 
  23   1.0000     -10.193039      -277.3667 
  24   1.0000     -10.191937      -277.3367 
  25   1.0000     -10.191154      -277.3154 
  26   1.0000     -10.190789      -277.3055 
  27   1.0000     -10.190078      -277.2861 
  28   1.0000     -10.189533      -277.2713 
  29   1.0000     -10.186624      -277.1921 
  30   1.0000     -10.184456      -277.1331 
  31   1.0000     -10.184167      -277.1253 
  32   1.0000     -10.179249      -276.9915 
  33   1.0000     -10.177513      -276.9442 
  34   1.0000      -0.877878       -23.8883 
  35   1.0000      -0.875392       -23.8206 
  36   1.0000      -0.873936       -23.7810 
  37   1.0000      -0.824139       -22.4260 
  38   1.0000      -0.809068       -22.0159 
  39   1.0000      -0.806184       -21.9374 
  40   1.0000      -0.798991       -21.7416 
  41   1.0000      -0.793159       -21.5829 
  42   1.0000      -0.771044       -20.9812 
  43   1.0000      -0.759757       -20.6740 
  44   1.0000      -0.758700       -20.6453 
  45   1.0000      -0.758433       -20.6380 
  46   1.0000      -0.746284       -20.3074 
  47   1.0000      -0.736978       -20.0542 
  48   1.0000      -0.725991       -19.7552 
  49   1.0000      -0.712956       -19.4005 
  50   1.0000      -0.700425       -19.0595 
  51   1.0000      -0.660733       -17.9794 
  52   1.0000      -0.658093       -17.9076 
  53   1.0000      -0.642351       -17.4793 
  54   1.0000      -0.623381       -16.9631 
  55   1.0000      -0.619282       -16.8515 
  56   1.0000      -0.618571       -16.8322 
  57   1.0000      -0.617708       -16.8087 
  58   1.0000      -0.594848       -16.1866 
  59   1.0000      -0.582702       -15.8561 
  60   1.0000      -0.564675       -15.3656 
  61   1.0000      -0.553268       -15.0552 
  62   1.0000      -0.551997       -15.0206 
  63   1.0000      -0.542792       -14.7701 
  64   1.0000      -0.534282       -14.5385 
  65   1.0000      -0.510464       -13.8904 
  66   1.0000      -0.507310       -13.8046 
  67   1.0000      -0.496965       -13.5231 
  68   1.0000      -0.492442       -13.4000 
  69   1.0000      -0.482321       -13.1246 
  70   1.0000      -0.473375       -12.8812 
  71   1.0000      -0.473269       -12.8783 
  72   1.0000      -0.471585       -12.8325 
  73   1.0000      -0.465010       -12.6536 
  74   1.0000      -0.445688       -12.1278 
  75   1.0000      -0.444098       -12.0845 
  76   1.0000      -0.436324       -11.8730 
  77   1.0000      -0.432738       -11.7754 
  78   1.0000      -0.431232       -11.7344 
  79   1.0000      -0.429820       -11.6960 
  80   1.0000      -0.428881       -11.6704 
[...]
 25 C s       :     0.000036  s :     0.000036
      pz      :     0.000015  p :     0.000187
      px      :     0.000100
      py      :     0.000072
      dz2     :    -0.000014  d :    -0.000070
      dxz     :     0.000118
      dyz     :    -0.000026
      dx2y2   :    -0.000106
      dxy     :    -0.000042
 26 H s       :     0.000034  s :     0.000034
      pz      :     0.000007  p :     0.000019
      px      :     0.000010
      py      :     0.000003
 27 H s       :     0.000034  s :     0.000034
      pz      :     0.000007  p :     0.000019
      px      :     0.000010
      py      :     0.000002
 28 C s       :    -0.000047  s :    -0.000047
      pz      :     0.000173  p :     0.000064
      px      :    -0.000023
      py      :    -0.000086
      dz2     :    -0.000002  d :     0.000000
      dxz     :    -0.000003
      dyz     :     0.000012
      dx2y2   :    -0.000000
      dxy     :    -0.000007
 29 H s       :     0.000069  s :     0.000069
      pz      :     0.000001  p :     0.000019
      px      :     0.000006
      py      :     0.000012
 30 H s       :     0.000069  s :     0.000069
      pz      :     0.000001  p :     0.000019
      px      :     0.000006
      py      :     0.000012
 31 C s       :    -0.000009  s :    -0.000009
      pz      :    -0.000001  p :    -0.000045
      px      :    -0.000014
      py      :    -0.000031
      dz2     :    -0.000000  d :     0.000017
      dxz     :     0.000012
      dyz     :     0.000007
      dx2y2   :    -0.000003
      dxy     :     0.000001
 32 H s       :     0.000017  s :     0.000017
      pz      :    -0.000000  p :    -0.000002
      px      :    -0.000000
      py      :    -0.000001
 33 H s       :     0.000017  s :     0.000017
      pz      :    -0.000000  p :    -0.000001
      px      :    -0.000000
      py      :    -0.000001
 34 C s       :    -0.001163  s :    -0.001163
      pz      :    -0.029648  p :    -0.034998
      px      :    -0.000541
      py      :    -0.004809
      dz2     :     0.000124  d :     0.001982
      dxz     :     0.001459
      dyz     :    -0.000001
      dx2y2   :     0.000150
      dxy     :     0.000250
 35 H s       :    -0.000130  s :    -0.000130
      pz      :     0.000031  p :     0.000020
      px      :     0.000003
      py      :    -0.000014
 36 H s       :    -0.000004  s :    -0.000004
      pz      :    -0.000000  p :    -0.000003
      px      :    -0.000001
      py      :    -0.000002
 37 C s       :     0.000464  s :     0.000464
      pz      :     0.006594  p :     0.007677
      px      :     0.000766
      py      :     0.000318
      dz2     :    -0.000043  d :    -0.002351
      dxz     :    -0.001725
      dyz     :    -0.000184
      dx2y2   :    -0.000117
      dxy     :    -0.000283
 38 C s       :    -0.000355  s :    -0.000355
      pz      :    -0.008400  p :    -0.008955
      px      :    -0.000280
      py      :    -0.000275
      dz2     :     0.000035  d :     0.000542
      dxz     :     0.000261
      dyz     :     0.000143
      dx2y2   :     0.000053
      dxy     :     0.000051
 39 C s       :     0.000217  s :     0.000217
      pz      :     0.004309  p :     0.004741
      px      :     0.000238
      py      :     0.000194
      dz2     :    -0.000020  d :    -0.000854
      dxz     :    -0.000573
      dyz     :    -0.000184
      dx2y2   :    -0.000036
      dxy     :    -0.000040
 40 C s       :    -0.000320  s :    -0.000320
      pz      :    -0.008506  p :    -0.008985
      px      :    -0.000224
      py      :    -0.000255
      dz2     :     0.000043  d :     0.000488
      dxz     :     0.000155
      dyz     :     0.000197
      dx2y2   :     0.000035
      dxy     :     0.000058
 41 C s       :     0.000217  s :     0.000217
      pz      :     0.004303  p :     0.004735
      px      :     0.000238
      py      :     0.000194
      dz2     :    -0.000020  d :    -0.000853
      dxz     :    -0.000574
      dyz     :    -0.000183
      dx2y2   :    -0.000036
      dxy     :    -0.000040
 42 C s       :    -0.000355  s :    -0.000355
      pz      :    -0.008390  p :    -0.008942
      px      :    -0.000279
      py      :    -0.000273
      dz2     :     0.000034  d :     0.000542
      dxz     :     0.000260
      dyz     :     0.000144
      dx2y2   :     0.000053
      dxy     :     0.000051
 43 H s       :     0.000188  s :     0.000188
      pz      :    -0.000153  p :    -0.000198
      px      :    -0.000029
      py      :    -0.000016
 44 H s       :    -0.000137  s :    -0.000137
      pz      :     0.000123  p :     0.000151
      px      :     0.000011
      py      :     0.000017
 45 H s       :     0.000264  s :     0.000264
      pz      :    -0.000227  p :    -0.000274
      px      :    -0.000013
      py      :    -0.000033
 46 H s       :     0.000258  s :     0.000258
      pz      :    -0.000227  p :    -0.000273
      px      :    -0.000013
      py      :    -0.000033
 47 H s       :    -0.000138  s :    -0.000138
      pz      :     0.000123  p :     0.000151
      px      :     0.000011
      py      :     0.000017
 48 C s       :    -0.001012  s :    -0.001012
      pz      :    -0.014224  p :    -0.016605
      px      :    -0.001647
      py      :    -0.000734
      dz2     :     0.000091  d :     0.005215
      dxz     :     0.003948
      dyz     :     0.000438
      dx2y2   :     0.000260
      dxy     :     0.000477
 49 C s       :     0.000807  s :     0.000807
      pz      :     0.020003  p :     0.021224
      px      :     0.000626
      py      :     0.000595
      dz2     :    -0.000084  d :    -0.001217
      dxz     :    -0.000611
      dyz     :    -0.000284
      dx2y2   :    -0.000127
      dxy     :    -0.000111
 50 C s       :    -0.000523  s :    -0.000523
      pz      :    -0.010163  p :    -0.011213
      px      :    -0.000568
      py      :    -0.000482
      dz2     :     0.000048  d :     0.002090
      dxz     :     0.001339
      dyz     :     0.000523
      dx2y2   :     0.000089
      dxy     :     0.000091
 51 C s       :     0.000788  s :     0.000788
      pz      :     0.021081  p :     0.022256
      px      :     0.000550
      py      :     0.000624
      dz2     :    -0.000105  d :    -0.001164
      dxz     :    -0.000362
      dyz     :    -0.000468
      dx2y2   :    -0.000086
      dxy     :    -0.000144
 52 C s       :    -0.000523  s :    -0.000523
      pz      :    -0.010150  p :    -0.011200
      px      :    -0.000592
      py      :    -0.000458
      dz2     :     0.000048  d :     0.002093
      dxz     :     0.001459
      dyz     :     0.000405
      dx2y2   :     0.000086
      dxy     :     0.000095
 53 C s       :     0.000804  s :     0.000804
      pz      :     0.020068  p :     0.021297
      px      :     0.000600
      py      :     0.000629
      dz2     :    -0.000085  d :    -0.001216
      dxz     :    -0.000555
      dyz     :    -0.000339
      dx2y2   :    -0.000116
      dxy     :    -0.000122
 54 H s       :    -0.000471  s :    -0.000471
      pz      :     0.000386  p :     0.000499
      px      :     0.000074
      py      :     0.000039
 55 H s       :     0.000320  s :     0.000320
      pz      :    -0.000291  p :    -0.000358
      px      :    -0.000025
      py      :    -0.000041
 56 H s       :    -0.000631  s :    -0.000631
      pz      :     0.000548  p :     0.000654
      px      :     0.000028
      py      :     0.000078
 57 H s       :    -0.000636  s :    -0.000636
      pz      :     0.000550  p :     0.000656
      px      :     0.000034
      py      :     0.000072
 58 H s       :     0.000320  s :     0.000320
      pz      :    -0.000292  p :    -0.000358
      px      :    -0.000027
      py      :    -0.000039
 59 C s       :    -0.000472  s :    -0.000472
      pz      :    -0.004744  p :    -0.006459
      px      :    -0.000361
      py      :    -0.001355
      dz2     :     0.000025  d :     0.002538
      dxz     :     0.002331
      dyz     :     0.000002
      dx2y2   :     0.000081
      dxy     :     0.000098
 60 C s       :     0.000457  s :     0.000457
      pz      :     0.013018  p :     0.014697
      px      :     0.000196
      py      :     0.001484
      dz2     :    -0.000055  d :    -0.000431
      dxz     :    -0.000249
      dyz     :    -0.000000
      dx2y2   :    -0.000053
      dxy     :    -0.000074
 61 C s       :     0.000191  s :     0.000191
      pz      :     0.001939  p :     0.002630
      px      :     0.000145
      py      :     0.000546
      dz2     :    -0.000010  d :    -0.001012
      dxz     :    -0.000930
      dyz     :     0.000001
      dx2y2   :    -0.000033
      dxy     :    -0.000040
 62 C s       :    -0.000183  s :    -0.000183
      pz      :    -0.005197  p :    -0.005873
      px      :    -0.000077
      py      :    -0.000599
      dz2     :     0.000022  d :     0.000175
      dxz     :     0.000103
      dyz     :     0.000000
      dx2y2   :     0.000021
      dxy     :     0.000030


                      *****************************
                      * MAYER POPULATION ANALYSIS *
                      *****************************

  NA   - Mulliken gross atomic population
  ZA   - Total nuclear charge
  QA   - Mulliken gross atomic charge
  VA   - Mayer's total valence
  BVA  - Mayer's bonded valence
  FA   - Mayer's free valence

  ATOM       NA         ZA         QA         VA         BVA        FA
  0 C      5.8155     6.0000     0.1845     2.5429     2.5369     0.0060
  1 C      5.7494     6.0000     0.2506     2.4480     2.4457     0.0023
  2 C      5.7603     6.0000     0.2397     2.5032     2.5026     0.0006
  3 C      6.1892     6.0000    -0.1892     3.7513     3.7174     0.0339
  4 C      5.9289     6.0000     0.0711     4.1412     4.1262     0.0149
  5 C      6.0267     6.0000    -0.0267     3.8706     3.8360     0.0346
  6 C      6.1530     6.0000    -0.1530     3.8265     3.8195     0.0070
  7 C      6.0864     6.0000    -0.0864     4.1471     4.1105     0.0366
  8 C      5.9902     6.0000     0.0098     3.9055     3.8976     0.0079
  9 H      1.0528     1.0000    -0.0528     1.0033     1.0032     0.0001
 10 H      1.0542     1.0000    -0.0542     1.0038     1.0038     0.0000
 11 C      6.0989     6.0000    -0.0989     3.9302     3.5698     0.3604
 12 H      1.0262     1.0000    -0.0262     1.0082     1.0070     0.0012
 13 C      5.9659     6.0000     0.0341     4.0097     4.0083     0.0014
 14 H      0.9702     1.0000     0.0298     0.9627     0.9617     0.0011
 15 H      0.9702     1.0000     0.0298     0.9627     0.9617     0.0011
 16 C      6.0392     6.0000    -0.0392     4.1315     4.1315     0.0000
 17 H      0.9873     1.0000     0.0127     0.9640     0.9640     0.0000
 18 H      0.9873     1.0000     0.0127     0.9640     0.9640     0.0000
 19 C      5.9934     6.0000     0.0066     4.0164     4.0164     0.0000
 20 H      0.9822     1.0000     0.0178     0.9775     0.9775     0.0000
 21 H      0.9822     1.0000     0.0178     0.9775     0.9775     0.0000
 22 C      5.9610     6.0000     0.0390     4.0309     4.0307     0.0002
 23 H      0.9677     1.0000     0.0323     0.9688     0.9687     0.0001
 24 H      0.9677     1.0000     0.0323     0.9688     0.9686     0.0001
 25 C      6.0340     6.0000    -0.0340     4.1141     4.1141     0.0000
 26 H      0.9830     1.0000     0.0170     0.9630     0.9630     0.0000
 27 H      0.9830     1.0000     0.0170     0.9630     0.9630     0.0000
 28 C      6.0248     6.0000    -0.0248     4.1177     4.1177     0.0000
 29 H      0.9944     1.0000     0.0056     0.9674     0.9674     0.0000
 30 H      0.9944     1.0000     0.0056     0.9674     0.9674     0.0000
 31 C      5.9960     6.0000     0.0040     4.0170     4.0170     0.0000
 32 H      0.9826     1.0000     0.0174     0.9773     0.9773     0.0000
 33 H      0.9826     1.0000     0.0174     0.9773     0.9773     0.0000
 34 C      5.8296     6.0000     0.1704     2.5778     2.5765     0.0013
 35 H      0.9859     1.0000     0.0141     0.9734     0.9734     0.0000
 36 H      0.9868     1.0000     0.0132     0.9735     0.9735     0.0000
 37 C      6.2436     6.0000    -0.2436     3.8865     3.8864     0.0001
 38 C      5.9635     6.0000     0.0365     3.9741     3.9740     0.0001
 39 C      5.9521     6.0000     0.0479     3.9622     3.9622     0.0000
 40 C      6.1015     6.0000    -0.1015     3.8891     3.8890     0.0001
 41 C      5.9524     6.0000     0.0476     3.9623     3.9623     0.0000
 42 C      5.9654     6.0000     0.0346     3.9726     3.9725     0.0001
 43 H      1.0257     1.0000    -0.0257     1.0297     1.0297     0.0000
 44 H      1.0323     1.0000    -0.0323     0.9823     0.9823     0.0000
 45 H      1.0358     1.0000    -0.0358     0.9841     0.9841     0.0000
 46 H      1.0347     1.0000    -0.0347     0.9837     0.9837     0.0000
 47 H      1.0321     1.0000    -0.0321     0.9823     0.9823     0.0000
 48 C      6.2474     6.0000    -0.2474     3.8882     3.8879     0.0004
 49 C      5.9689     6.0000     0.0311     3.9734     3.9729     0.0005
 50 C      5.9526     6.0000     0.0474     3.9623     3.9621     0.0002
 51 C      6.1019     6.0000    -0.1019     3.8880     3.8874     0.0006
 52 C      5.9519     6.0000     0.0481     3.9626     3.9625     0.0002
 53 C      5.9634     6.0000     0.0366     3.9724     3.9718     0.0005
 54 H      1.0263     1.0000    -0.0263     1.0297     1.0297     0.0000
 55 H      1.0327     1.0000    -0.0327     0.9821     0.9821     0.0000
 56 H      1.0347     1.0000    -0.0347     0.9816     0.9816     0.0000
 57 H      1.0366     1.0000    -0.0366     0.9842     0.9842     0.0000
 58 H      1.0332     1.0000    -0.0332     0.9823     0.9823     0.0000
 59 C      5.3519     6.0000     0.6481     2.8944     2.8943     0.0000
 60 C      6.5626     6.0000    -0.5626     3.3957     3.3955     0.0002
 61 C      5.3518     6.0000     0.6482     2.8937     2.8937     0.0000
 62 C      6.5618     6.0000    -0.5618     3.3951     3.3951     0.0000

  Mayer bond orders larger than 0.100000
B(  0-C ,  1-C ) :   1.6749 B(  0-C ,  3-C ) :  -0.1100 B(  0-C , 48-C ) :   0.9097 
B(  1-C ,  3-C ) :   0.8814 B(  1-C , 48-C ) :  -0.1789 B(  2-C ,  6-C ) :   0.8809 
B(  2-C , 34-C ) :   1.7187 B(  2-C , 37-C ) :  -0.1721 B(  3-C ,  4-C ) :   1.2771 
B(  3-C ,  8-C ) :   1.3960 B(  3-C , 48-C ) :   0.1085 B(  4-C ,  5-C ) :   1.2902 
B(  4-C , 11-C ) :   1.3831 B(  5-C ,  6-C ) :   1.4480 B(  5-C ,  9-H ) :   0.9178 
B(  6-C ,  7-C ) :   1.3417 B(  6-C , 34-C ) :  -0.1079 B(  6-C , 37-C ) :   0.1003 
B(  7-C ,  8-C ) :   1.4309 B(  7-C , 22-C ) :   1.0956 B(  8-C , 10-H ) :   0.9201 
B( 11-C , 12-H ) :   0.8985 B( 11-C , 13-C ) :   1.0843 B( 13-C , 14-H ) :   0.9113 
B( 13-C , 15-H ) :   0.9113 B( 13-C , 16-C ) :   1.0713 B( 16-C , 17-H ) :   0.9437 
B( 16-C , 18-H ) :   0.9437 B( 16-C , 19-C ) :   1.1067 B( 19-C , 20-H ) :   0.9653 
B( 19-C , 21-H ) :   0.9653 B( 19-C , 35-H ) :   0.9607 B( 22-C , 23-H ) :   0.8956 
B( 22-C , 24-H ) :   0.8957 B( 22-C , 25-C ) :   1.1046 B( 25-C , 26-H ) :   0.9292 
B( 25-C , 27-H ) :   0.9292 B( 25-C , 28-C ) :   1.0747 B( 28-C , 29-H ) :   0.9410 
B( 28-C , 30-H ) :   0.9410 B( 28-C , 31-C ) :   1.1063 B( 31-C , 32-H ) :   0.9662 
B( 31-C , 33-H ) :   0.9662 B( 31-C , 36-H ) :   0.9616 B( 34-C , 37-C ) :   0.9061 
B( 37-C , 38-C ) :   1.4254 B( 37-C , 42-C ) :   1.4210 B( 38-C , 39-C ) :   1.4706 
B( 38-C , 45-H ) :   0.9384 B( 39-C , 40-C ) :   1.4100 B( 39-C , 47-H ) :   0.9381 
B( 40-C , 41-C ) :   1.4098 B( 40-C , 61-C ) :   0.9042 B( 41-C , 42-C ) :   1.4708 
B( 41-C , 44-H ) :   0.9381 B( 42-C , 46-H ) :   0.9387 B( 43-H , 62-C ) :   1.1126 
B( 48-C , 49-C ) :   1.4185 B( 48-C , 53-C ) :   1.4203 B( 49-C , 50-C ) :   1.4728 
B( 49-C , 56-H ) :   0.9388 B( 50-C , 51-C ) :   1.4074 B( 50-C , 58-H ) :   0.9380 
B( 51-C , 52-C ) :   1.4079 B( 51-C , 59-C ) :   0.9053 B( 52-C , 53-C ) :   1.4736 
B( 52-C , 55-H ) :   0.9379 B( 53-C , 57-H ) :   0.9381 B( 54-H , 60-C ) :   1.1126 
B( 59-C , 60-C ) :   2.1515 B( 61-C , 62-C ) :   2.1522 

-------
TIMINGS
-------

Total SCF time: 0 days 0 hours 1 min 31 sec 

Total time                  ....      91.666 sec
Sum of individual times     ....      87.251 sec  ( 95.2%)

Fock matrix formation       ....      78.331 sec  ( 85.5%)
  Split-RI-J                ....       5.796 sec  (  7.4% of F)
  Chain of spheres X        ....      56.387 sec  ( 72.0% of F)
  XC integration            ....      12.412 sec  ( 15.8% of F)
    Basis function eval.    ....       1.176 sec  (  9.5% of XC)
    Density eval.           ....       1.391 sec  ( 11.2% of XC)
    XC-Functional eval.     ....       0.289 sec  (  2.3% of XC)
    XC-Potential eval.      ....       0.757 sec  (  6.1% of XC)
Diagonalization             ....       1.857 sec  (  2.0%)
Density matrix formation    ....       0.173 sec  (  0.2%)
Population analysis         ....       0.516 sec  (  0.6%)
Initial guess               ....       0.388 sec  (  0.4%)
Orbital Transformation      ....       0.000 sec  (  0.0%)
Orbital Orthonormalization  ....       0.307 sec  (  0.3%)
DIIS solution               ....       0.928 sec  (  1.0%)
Grid generation             ....       5.057 sec  (  5.5%)

Maximum memory used throughout the entire SCF-calculation: 182.4 MB

-------------------------   --------------------
FINAL SINGLE POINT ENERGY     -1312.049838289307
-------------------------   --------------------

                                *** OPTIMIZATION RUN DONE ***

                            ***************************************
                            *     ORCA property calculations      *
                            ***************************************

                                    ---------------------
                                    Active property flags
                                    ---------------------
   (+) Dipole Moment


------------------------------------------------------------------------------
                       ORCA ELECTRIC PROPERTIES CALCULATION
------------------------------------------------------------------------------

Dipole Moment Calculation                       ... on
Quadrupole Moment Calculation                   ... off
Polarizability Calculation                      ... off
GBWName                                         ... opt.gbw
Electron density                                ... opt.scfp
The origin for moment calculation is the CENTER OF MASS  = (15.722621,  0.033581 -0.004796)

-------------
DIPOLE MOMENT
-------------
                                X             Y             Z
Electronic contribution:      0.39480      -1.96856       0.00380
Nuclear contribution   :     -0.55927       1.92253      -0.00390
                        -----------------------------------------
Total Dipole Moment    :     -0.16447      -0.04603      -0.00010
                        -----------------------------------------
Magnitude (a.u.)       :      0.17079
Magnitude (Debye)      :      0.43412



--------------------
Rotational spectrum 
--------------------
 
Rotational constants in cm-1:     0.005920     0.001229     0.001019 
Rotational constants in MHz :   177.478005    36.835670    30.545032 

 Dipole components along the rotational axes: 
x,y,z [a.u.] :    -0.162543    -0.052439    -0.000045 
x,y,z [Debye]:    -0.413151    -0.133290    -0.000115 

 

Timings for individual modules:

Sum of individual times         ...      531.473 sec (=   8.858 min)
GTO integral calculation        ...       10.176 sec (=   0.170 min)   1.9 %
SCF iterations                  ...      449.579 sec (=   7.493 min)  84.6 %
SCF Gradient evaluation         ...       71.049 sec (=   1.184 min)  13.4 %
Geometry relaxation             ...        0.669 sec (=   0.011 min)   0.1 %
                             ****ORCA TERMINATED NORMALLY****
TOTAL RUN TIME: 0 days 0 hours 8 minutes 59 seconds 559 msec
