
                                 *****************
                                 * O   R   C   A *
                                 *****************

                                            #,                                       
                                            ###                                      
                                            ####                                     
                                            #####                                    
                                            ######                                   
                                           ########,                                 
                                     ,,################,,,,,                         
                               ,,#################################,,                 
                          ,,##########################################,,             
                       ,#########################################, ''#####,          
                    ,#############################################,,   '####,        
                  ,##################################################,,,,####,       
                ,###########''''           ''''###############################       
              ,#####''   ,,,,##########,,,,          '''####'''          '####       
            ,##' ,,,,###########################,,,                        '##       
           ' ,,###''''                  '''############,,,                           
         ,,##''                                '''############,,,,        ,,,,,,###''
      ,#''                                            '''#######################'''  
     '                                                          ''''####''''         
             ,#######,   #######,   ,#######,      ##                                
            ,#'     '#,  ##    ##  ,#'     '#,    #''#        ######   ,####,        
            ##       ##  ##   ,#'  ##            #'  '#       #        #'  '#        
            ##       ##  #######   ##           ,######,      #####,   #    #        
            '#,     ,#'  ##    ##  '#,     ,#' ,#      #,         ##   #,  ,#        
             '#######'   ##     ##  '#######'  #'      '#     #####' # '####'        



                  #######################################################
                  #                        -***-                        #
                  #          Department of theory and spectroscopy      #
                  #    Directorship and core code : Frank Neese         #
                  #        Max Planck Institute fuer Kohlenforschung    #
                  #                Kaiser Wilhelm Platz 1               #
                  #                 D-45470 Muelheim/Ruhr               #
                  #                      Germany                        #
                  #                                                     #
                  #                  All rights reserved                #
                  #                        -***-                        #
                  #######################################################


                         Program Version 5.0.4 -  RELEASE  -


 With contributions from (in alphabetic order):
   Daniel Aravena         : Magnetic Suceptibility
   Michael Atanasov       : Ab Initio Ligand Field Theory (pilot matlab implementation)
   Alexander A. Auer      : GIAO ZORA, VPT2 properties, NMR spectrum
   Ute Becker             : Parallelization
   Giovanni Bistoni       : ED, misc. LED, open-shell LED, HFLD
   Martin Brehm           : Molecular dynamics
   Dmytro Bykov           : SCF Hessian
   Vijay G. Chilkuri      : MRCI spin determinant printing, contributions to CSF-ICE
   Dipayan Datta          : RHF DLPNO-CCSD density
   Achintya Kumar Dutta   : EOM-CC, STEOM-CC
   Dmitry Ganyushin       : Spin-Orbit,Spin-Spin,Magnetic field MRCI
   Miquel Garcia          : C-PCM and meta-GGA Hessian, CC/C-PCM, Gaussian charge scheme
   Yang Guo               : DLPNO-NEVPT2, F12-NEVPT2, CIM, IAO-localization
   Andreas Hansen         : Spin unrestricted coupled pair/coupled cluster methods
   Benjamin Helmich-Paris : MC-RPA, TRAH-SCF, COSX integrals
   Lee Huntington         : MR-EOM, pCC
   Robert Izsak           : Overlap fitted RIJCOSX, COSX-SCS-MP3, EOM
   Marcus Kettner         : VPT2
   Christian Kollmar      : KDIIS, OOCD, Brueckner-CCSD(T), CCSD density, CASPT2, CASPT2-K
   Simone Kossmann        : Meta GGA functionals, TD-DFT gradient, OOMP2, MP2 Hessian
   Martin Krupicka        : Initial AUTO-CI
   Lucas Lang             : DCDCAS
   Marvin Lechner         : AUTO-CI (C++ implementation), FIC-MRCC
   Dagmar Lenk            : GEPOL surface, SMD
   Dimitrios Liakos       : Extrapolation schemes; Compound Job, initial MDCI parallelization
   Dimitrios Manganas     : Further ROCIS development; embedding schemes
   Dimitrios Pantazis     : SARC Basis sets
   Anastasios Papadopoulos: AUTO-CI, single reference methods and gradients
   Taras Petrenko         : DFT Hessian,TD-DFT gradient, ASA, ECA, R-Raman, ABS, FL, XAS/XES, NRVS
   Peter Pinski           : DLPNO-MP2, DLPNO-MP2 Gradient
   Christoph Reimann      : Effective Core Potentials
   Marius Retegan         : Local ZFS, SOC
   Christoph Riplinger    : Optimizer, TS searches, QM/MM, DLPNO-CCSD(T), (RO)-DLPNO pert. Triples
   Tobias Risthaus        : Range-separated hybrids, TD-DFT gradient, RPA, STAB
   Michael Roemelt        : Original ROCIS implementation
   Masaaki Saitow         : Open-shell DLPNO-CCSD energy and density
   Barbara Sandhoefer     : DKH picture change effects
   Avijit Sen             : IP-ROCIS
   Kantharuban Sivalingam : CASSCF convergence, NEVPT2, FIC-MRCI
   Bernardo de Souza      : ESD, SOC TD-DFT
   Georgi Stoychev        : AutoAux, RI-MP2 NMR, DLPNO-MP2 response
   Willem Van den Heuvel  : Paramagnetic NMR
   Boris Wezisla          : Elementary symmetry handling
   Frank Wennmohs         : Technical directorship


 We gratefully acknowledge several colleagues who have allowed us to
 interface, adapt or use parts of their codes:
   Stefan Grimme, W. Hujo, H. Kruse, P. Pracht,  : VdW corrections, initial TS optimization,
                  C. Bannwarth, S. Ehlert          DFT functionals, gCP, sTDA/sTD-DF
   Ed Valeev, F. Pavosevic, A. Kumar             : LibInt (2-el integral package), F12 methods
   Garnet Chan, S. Sharma, J. Yang, R. Olivares  : DMRG
   Ulf Ekstrom                                   : XCFun DFT Library
   Mihaly Kallay                                 : mrcc  (arbitrary order and MRCC methods)
   Jiri Pittner, Ondrej Demel                    : Mk-CCSD
   Frank Weinhold                                : gennbo (NPA and NBO analysis)
   Christopher J. Cramer and Donald G. Truhlar   : smd solvation model
   Lars Goerigk                                  : TD-DFT with DH, B97 family of functionals
   V. Asgeirsson, H. Jonsson                     : NEB implementation
   FAccTs GmbH                                   : IRC, NEB, NEB-TS, DLPNO-Multilevel, CI-OPT
                                                   MM, QMMM, 2- and 3-layer-ONIOM, Crystal-QMMM,
                                                   LR-CPCM, SF, NACMEs, symmetry and pop. for TD-DFT,
                                                   nearIR, NL-DFT gradient (VV10), updates on ESD,
                                                   ML-optimized integration grids
   S Lehtola, MJT Oliveira, MAL Marques          : LibXC Library
   Liviu Ungur et al                             : ANISO software


 Your calculation uses the libint2 library for the computation of 2-el integrals
 For citations please refer to: http://libint.valeyev.net

 Your ORCA version has been built with support for libXC version: 5.1.0
 For citations please refer to: https://tddft.org/programs/libxc/

 This ORCA versions uses:
   CBLAS   interface :  Fast vector & matrix operations
   LAPACKE interface :  Fast linear algebra routines
   SCALAPACK package :  Parallel linear algebra routines
   Shared memory     :  Shared parallel matrices
   BLAS/LAPACK       :  OpenBLAS 0.3.15  USE64BITINT DYNAMIC_ARCH NO_AFFINITY SkylakeX SINGLE_THREADED
        Core in use  :  SkylakeX
   Copyright (c) 2011-2014, The OpenBLAS Project




***************************************
The coordinates will be read from file: opt.xyz
***************************************


================================================================================

----- Orbital basis set information -----
Your calculation utilizes the basis: cc-pVDZ 
       H, B-Ne : Obtained from the ccRepo (grant-hill.group.shef.ac.uk/ccrepo) Feb. 2017
                 T. H. Dunning, Jr., J. Chem. Phys. 90, 1007 (1989)
            He : Obtained from the ccRepo (grant-hill.group.shef.ac.uk/ccrepo) Feb. 2017
                 D. E. Woon, T. H. Dunning, Jr., J. Chem. Phys. 100, 2975 (1994)
  Li-Be, Na-Mg : Obtained from the ccRepo (grant-hill.group.shef.ac.uk/ccrepo) Feb. 2017
                 B. P. Prascher, D. E. Woon, K. A. Peterson, T. H. Dunning, Jr., A. K. Wilson, Theor. Chem. Acc. 128, 69 (2011)
         Al-Ar : Obtained from the ccRepo (grant-hill.group.shef.ac.uk/ccrepo) Feb. 2017
                 D. E. Woon, T. H. Dunning, Jr., J. Chem. Phys. 98, 1358 (1993)
            Ca : Obtained from the Peterson Research Group Website (tyr0.chem.wsu.edu/~kipeters) Feb. 2017
                 J. Koput, K. A. Peterson, J. Phys. Chem. 106, 9595 (2002)
         Sc-Zn : Obtained from the ccRepo (grant-hill.group.shef.ac.uk/ccrepo) Feb. 2017
                 N. B. Balabanov, K. A. Peterson, J. Chem. Phys. 123, 064107 (2005)
                 N. B. Balabanov, K. A. Peterson, J. Chem. Phys. 125, 074110 (2006)
         Ga-Kr : Obtained from the ccRepo (grant-hill.group.shef.ac.uk/ccrepo) Feb. 2017
                 A. K. Wilson, D. E. Woon, K. A. Peterson, T. H. Dunning, Jr., J. Chem. Phys. 110, 7667 (1999)

----- AuxJ basis set information -----
Your calculation utilizes the AutoAux generation procedure.
  G. L. Stoychev, A. A. Auer, F. Neese, J. Chem. Theory Comput. 13, 554 (2017)

----- AuxC basis set information -----
Your calculation utilizes the AutoAux generation procedure.
  G. L. Stoychev, A. A. Auer, F. Neese, J. Chem. Theory Comput. 13, 554 (2017)

----- AuxJK basis set information -----
Your calculation utilizes the AutoAux generation procedure.
  G. L. Stoychev, A. A. Auer, F. Neese, J. Chem. Theory Comput. 13, 554 (2017)

================================================================================
                                        WARNINGS
                       Please study these warnings very carefully!
================================================================================


WARNING: your system is open-shell and RHF/RKS was chosen
  ===> : WILL SWITCH to UHF/UKS


INFO   : the flag for use of the SHARK integral package has been found!

================================================================================
                                       INPUT FILE
================================================================================
NAME = cc-pVDZ_i.inp
|  1> ! B3LYP cc-pVDZ AUTOAUX
|  2> %pal nprocs 16 end
|  3> *XYZFile 0 2 opt.xyz
|  4> %EPRNMR
|  5>         GTENSOR   TRUE
|  6>         NUCLEI    = ALL H {SHIFT, AISO, ADIP, AORB}
|  7>         ORI       GIAO
|  8> END
|  9> 
| 10>                          ****END OF INPUT****
================================================================================

                       ****************************
                       * Single Point Calculation *
                       ****************************

---------------------------------
CARTESIAN COORDINATES (ANGSTROEM)
---------------------------------
  C      4.260893   -0.079127   -0.043591
  C      0.045387   -0.014079   -0.133807
  C      0.704757   -1.253015   -0.085632
  C      2.101931   -1.235147   -0.057350
  C      2.827985   -0.025998   -0.075534
  C      2.154195    1.220084   -0.123807
  C      0.753332    1.188758   -0.152097
  H      2.668495   -2.165884   -0.020281
  H      0.193946    2.124579   -0.189644
  C     -0.111949   -2.534903   -0.064556
  H     -0.786166   -2.529706   -0.941570
  H     -0.783040   -2.503561    0.814548
  C      0.667170   -3.852699   -0.045898
  H      1.334018   -3.903925   -0.926359
  H      1.326150   -3.884500    0.841308
  C     -0.246311   -5.084124   -0.035413
  H     -0.916771   -5.033046    0.842757
  H     -0.906915   -5.055142   -0.922002
  C      0.524988   -6.406261   -0.014444
  H      1.168051   -6.480501    0.879526
  H      1.177898   -6.502965   -0.899066
  C      2.952208    2.510100   -0.142411
  H      3.610046    2.523794    0.746200
  H      3.648976    2.474747   -1.000122
  C      2.153064    3.815083   -0.196314
  H      1.507351    3.823318   -1.093673
  H      1.473136    3.874674    0.673437
  C      3.051950    5.057494   -0.215340
  H      3.705089    5.050199    0.677686
  H      3.731774    5.003740   -1.086612
  C      2.270402    6.375297   -0.262074
  H      1.591515    6.428490    0.610416
  H      1.615926    6.380765   -1.154594
  C      3.165360    7.619459   -0.283638
  H      3.840573    7.577327   -1.158008
  H      3.819142    7.623303    0.607847
  C      2.361317    8.944123   -0.328166
  H      1.709747    8.920359   -1.221882
  H      1.689242    8.967418    0.550198
  C      3.214355   10.168422   -0.351043
  H      3.591753   10.606491    0.577387
  H      3.614830   10.555345   -1.292458
  C      5.475492   -0.133120   -0.017706
  H      6.546487   -0.180814    0.006549
  H     -0.157012   -7.272012   -0.007233
  H     -1.048373    0.011018   -0.157638

----------------------------
CARTESIAN COORDINATES (A.U.)
----------------------------
  NO LB      ZA    FRAG     MASS         X           Y           Z
   0 C     6.0000    0    12.011    8.051921   -0.149527   -0.082375
   1 C     6.0000    0    12.011    0.085769   -0.026606   -0.252858
   2 C     6.0000    0    12.011    1.331798   -2.367856   -0.161822
   3 C     6.0000    0    12.011    3.972075   -2.334090   -0.108376
   4 C     6.0000    0    12.011    5.344118   -0.049130   -0.142739
   5 C     6.0000    0    12.011    4.070839    2.305624   -0.233961
   6 C     6.0000    0    12.011    1.423591    2.246428   -0.287422
   7 H     1.0000    0     1.008    5.042724   -4.092928   -0.038325
   8 H     1.0000    0     1.008    0.366505    4.014872   -0.358375
   9 C     6.0000    0    12.011   -0.211552   -4.790273   -0.121992
  10 H     1.0000    0     1.008   -1.485639   -4.780452   -1.779310
  11 H     1.0000    0     1.008   -1.479730   -4.731045    1.539273
  12 C     6.0000    0    12.011    1.260769   -7.280546   -0.086736
  13 H     1.0000    0     1.008    2.520928   -7.377350   -1.750565
  14 H     1.0000    0     1.008    2.506061   -7.340641    1.589841
  15 C     6.0000    0    12.011   -0.465461   -9.607602   -0.066921
  16 H     1.0000    0     1.008   -1.732446   -9.511078    1.592581
  17 H     1.0000    0     1.008   -1.713821   -9.552835   -1.742332
  18 C     6.0000    0    12.011    0.992083  -12.106079   -0.027295
  19 H     1.0000    0     1.008    2.207296  -12.246371    1.662064
  20 H     1.0000    0     1.008    2.225904  -12.288822   -1.698988
  21 C     6.0000    0    12.011    5.578866    4.743402   -0.269117
  22 H     1.0000    0     1.008    6.821997    4.769279    1.410114
  23 H     1.0000    0     1.008    6.895565    4.676594   -1.889956
  24 C     6.0000    0    12.011    4.068702    7.209462   -0.370980
  25 H     1.0000    0     1.008    2.848481    7.225024   -2.066743
  26 H     1.0000    0     1.008    2.783823    7.322072    1.272612
  27 C     6.0000    0    12.011    5.767350    9.557279   -0.406934
  28 H     1.0000    0     1.008    7.001603    9.543493    1.280641
  29 H     1.0000    0     1.008    7.052031    9.455698   -2.053399
  30 C     6.0000    0    12.011    4.290438   12.047566   -0.495248
  31 H     1.0000    0     1.008    3.007528   12.148085    1.153519
  32 H     1.0000    0     1.008    3.053658   12.057898   -2.181866
  33 C     6.0000    0    12.011    5.981664   14.398691   -0.535997
  34 H     1.0000    0     1.008    7.257631   14.319073   -2.188318
  35 H     1.0000    0     1.008    7.217132   14.405955    1.148665
  36 C     6.0000    0    12.011    4.462243   16.901943   -0.620145
  37 H     1.0000    0     1.008    3.230954   16.857035   -2.309022
  38 H     1.0000    0     1.008    3.192205   16.945964    1.039723
  39 C     6.0000    0    12.011    6.074251   19.215532   -0.663375
  40 H     1.0000    0     1.008    6.787430   20.043363    1.091103
  41 H     1.0000    0     1.008    6.831038   19.946710   -2.442393
  42 C     6.0000    0    12.011   10.347180   -0.251561   -0.033459
  43 H     1.0000    0     1.008   12.371067   -0.341690    0.012376
  44 H     1.0000    0     1.008   -0.296710  -13.742112   -0.013668
  45 H     1.0000    0     1.008   -1.981137    0.020820   -0.297893

--------------------------------
INTERNAL COORDINATES (ANGSTROEM)
--------------------------------
 C      0   0   0     0.000000000000     0.00000000     0.00000000
 C      1   0   0     4.216973050903     0.00000000     0.00000000
 C      2   1   0     1.404297663835    61.07157903     0.00000000
 C      3   2   1     1.397574938989   117.31081954   359.97574981
 C      4   3   2     1.410505485863   121.68836685     0.02957880
 C      5   4   3     1.417407170048   120.62203779     0.00000000
 C      2   1   3     1.395829163165    60.43327217   179.99025674
 H      4   3   2     1.090247485185   120.61650907   180.03591054
 H      7   2   1     1.090908691622   118.65991718   179.99821819
 C      3   2   1     1.520094892272   119.48523502   179.88447569
 H     10   3   2     1.106232804804   108.20987074    55.25002497
 H     10   3   2     1.106421646020   108.24053344   301.87619314
 C     10   3   2     1.530999771383   116.91141135   178.57054599
 H     13  10   3     1.105676426908   109.70002962   302.29864521
 H     13  10   3     1.105622267263   109.74601720    58.56061334
 C     13  10   3     1.533286186949   112.84168152   180.40549086
 H     16  13  10     1.106032877553   109.23749204   302.41768295
 H     16  13  10     1.106018995976   109.22712235    57.76765630
 C     16  13  10     1.530812900751   113.17649123   180.09341718
 H     19  16  13     1.103732092454   111.26880495    59.84756998
 H     19  16  13     1.103720125842   111.26903915   300.15197974
 C      6   5   4     1.517008437075   119.86353544   179.98649276
 H     22   6   5     1.105697286815   108.27913343   303.58225359
 H     22   6   5     1.105623015192   108.29062918    56.24301330
 C     22   6   5     1.531181618759   116.78396571   179.94186029
 H     25  22   6     1.105561635964   109.86168126   301.92989220
 H     25  22   6     1.105586778046   109.82910333    58.38772567
 C     25  22   6     1.533604625879   112.64225838   180.15998477
 H     28  25  22     1.106408163561   109.30815499   302.61138614
 H     28  25  22     1.106419619242   109.30198175    57.99734098
 C     28  25  22     1.532842714433   113.45350966   180.29336405
 H     31  28  25     1.106777006556   109.27074348    57.77947014
 H     31  28  25     1.106779430495   109.28913699   302.40788865
 C     31  28  25     1.532760128398   113.61337066   180.09916100
 H     34  31  28     1.105536344064   109.68231869    58.17317324
 H     34  31  28     1.105527048041   109.68044540   302.06525954
 C     34  31  28     1.550226867025   113.02738246   180.10848276
 H     37  34  31     1.106271241842   108.07910415   302.60001569
 H     37  34  31     1.106233160989   108.07679053    57.49168387
 C     37  34  31     1.492348336213   113.89018819   180.05530061
 H     40  37  34     1.093762176410   120.85021729   275.02677486
 H     40  37  34     1.093779008390   120.84323892    84.84498082
 C      1   2   3     1.216074245338   178.33904773     1.76439299
 H     43   1   5     1.072330402508   179.92346806   265.72951072
 H     19  16  13     1.102134827954   111.51533622   179.99665919
 H      2   1   3     1.094306812644   179.56910554   181.36193359

---------------------------
INTERNAL COORDINATES (A.U.)
---------------------------
 C      0   0   0     0.000000000000     0.00000000     0.00000000
 C      1   0   0     7.968924180334     0.00000000     0.00000000
 C      2   1   0     2.653737995154    61.07157903     0.00000000
 C      3   2   1     2.641033886321   117.31081954   359.97574981
 C      4   3   2     2.665469078675   121.68836685     0.02957880
 C      5   4   3     2.678511371647   120.62203779     0.00000000
 C      2   1   3     2.637734848122    60.43327217   179.99025674
 H      4   3   2     2.060269165196   120.61650907   180.03591054
 H      7   2   1     2.061518664279   118.65991718   179.99821819
 C      3   2   1     2.872563043966   119.48523502   179.88447569
 H     10   3   2     2.090477041439   108.20987074    55.25002497
 H     10   3   2     2.090833899621   108.24053344   301.87619314
 C     10   3   2     2.893170279010   116.91141135   178.57054599
 H     13  10   3     2.089425639588   109.70002962   302.29864521
 H     13  10   3     2.089323292692   109.74601720    58.56061334
 C     13  10   3     2.897490978258   112.84168152   180.40549086
 H     16  13  10     2.090099233689   109.23749204   302.41768295
 H     16  13  10     2.090073001309   109.22712235    57.76765630
 C     16  13  10     2.892817144693   113.17649123   180.09341718
 H     19  16  13     2.085751379957   111.26880495    59.84756998
 H     19  16  13     2.085728766339   111.26903915   300.15197974
 C      6   5   4     2.866730488921   119.86353544   179.98649276
 H     22   6   5     2.089465059100   108.27913343   303.58225359
 H     22   6   5     2.089324706072   108.29062918    56.24301330
 C     22   6   5     2.893513920748   116.78396571   179.94186029
 H     25  22   6     2.089208716142   109.86168126   301.92989220
 H     25  22   6     2.089256227791   109.82910333    58.38772567
 C     25  22   6     2.898092740626   112.64225838   180.15998477
 H     28  25  22     2.090808421465   109.30815499   302.61138614
 H     28  25  22     2.090830069566   109.30198175    57.99734098
 C     28  25  22     2.896652936654   113.45350966   180.29336405
 H     31  28  25     2.091505433712   109.27074348    57.77947014
 H     31  28  25     2.091510014293   109.28913699   302.40788865
 C     31  28  25     2.896496871666   113.61337066   180.09916100
 H     34  31  28     2.089160921378   109.68231869    58.17317324
 H     34  31  28     2.089143354440   109.68044540   302.06525954
 C     34  31  28     2.929504224124   113.02738246   180.10848276
 H     37  34  31     2.090549676915   108.07910415   302.60001569
 H     37  34  31     2.090477714531   108.07679053    57.49168387
 C     37  34  31     2.820129651856   113.89018819   180.05530061
 H     40  37  34     2.066910969057   120.85021729   275.02677486
 H     40  37  34     2.066942776888   120.84323892    84.84498082
 C      1   2   3     2.298047282204   178.33904773     1.76439299
 H     43   1   5     2.026410785818   179.92346806   265.72951072
 H     19  16  13     2.082732987490   111.51533622   179.99665919
 H      2   1   3     2.067940182381   179.56910554   181.36193359

---------------------
BASIS SET INFORMATION
---------------------
There are 2 groups of distinct atoms

 Group   1 Type C   : 17s4p1d contracted to 3s2p1d pattern {881/31/1}
 Group   2 Type H   : 4s1p contracted to 2s1p pattern {31/1}

Atom   0C    basis set group =>   1
Atom   1C    basis set group =>   1
Atom   2C    basis set group =>   1
Atom   3C    basis set group =>   1
Atom   4C    basis set group =>   1
Atom   5C    basis set group =>   1
Atom   6C    basis set group =>   1
Atom   7H    basis set group =>   2
Atom   8H    basis set group =>   2
Atom   9C    basis set group =>   1
Atom  10H    basis set group =>   2
Atom  11H    basis set group =>   2
Atom  12C    basis set group =>   1
Atom  13H    basis set group =>   2
Atom  14H    basis set group =>   2
Atom  15C    basis set group =>   1
Atom  16H    basis set group =>   2
Atom  17H    basis set group =>   2
Atom  18C    basis set group =>   1
Atom  19H    basis set group =>   2
Atom  20H    basis set group =>   2
Atom  21C    basis set group =>   1
Atom  22H    basis set group =>   2
Atom  23H    basis set group =>   2
Atom  24C    basis set group =>   1
Atom  25H    basis set group =>   2
Atom  26H    basis set group =>   2
Atom  27C    basis set group =>   1
Atom  28H    basis set group =>   2
Atom  29H    basis set group =>   2
Atom  30C    basis set group =>   1
Atom  31H    basis set group =>   2
Atom  32H    basis set group =>   2
Atom  33C    basis set group =>   1
Atom  34H    basis set group =>   2
Atom  35H    basis set group =>   2
Atom  36C    basis set group =>   1
Atom  37H    basis set group =>   2
Atom  38H    basis set group =>   2
Atom  39C    basis set group =>   1
Atom  40H    basis set group =>   2
Atom  41H    basis set group =>   2
Atom  42C    basis set group =>   1
Atom  43H    basis set group =>   2
Atom  44H    basis set group =>   2
Atom  45H    basis set group =>   2
---------------------------------
AUXILIARY/J BASIS SET INFORMATION
---------------------------------
There are 2 groups of distinct atoms

 Group   1 Type C   : 14s11p10d2f contracted to 14s11p10d2f pattern {11111111111111/11111111111/1111111111/11}
 Group   2 Type H   : 9s2p1d contracted to 9s2p1d pattern {111111111/11/1}

Atom   0C    basis set group =>   1
Atom   1C    basis set group =>   1
Atom   2C    basis set group =>   1
Atom   3C    basis set group =>   1
Atom   4C    basis set group =>   1
Atom   5C    basis set group =>   1
Atom   6C    basis set group =>   1
Atom   7H    basis set group =>   2
Atom   8H    basis set group =>   2
Atom   9C    basis set group =>   1
Atom  10H    basis set group =>   2
Atom  11H    basis set group =>   2
Atom  12C    basis set group =>   1
Atom  13H    basis set group =>   2
Atom  14H    basis set group =>   2
Atom  15C    basis set group =>   1
Atom  16H    basis set group =>   2
Atom  17H    basis set group =>   2
Atom  18C    basis set group =>   1
Atom  19H    basis set group =>   2
Atom  20H    basis set group =>   2
Atom  21C    basis set group =>   1
Atom  22H    basis set group =>   2
Atom  23H    basis set group =>   2
Atom  24C    basis set group =>   1
Atom  25H    basis set group =>   2
Atom  26H    basis set group =>   2
Atom  27C    basis set group =>   1
Atom  28H    basis set group =>   2
Atom  29H    basis set group =>   2
Atom  30C    basis set group =>   1
Atom  31H    basis set group =>   2
Atom  32H    basis set group =>   2
Atom  33C    basis set group =>   1
Atom  34H    basis set group =>   2
Atom  35H    basis set group =>   2
Atom  36C    basis set group =>   1
Atom  37H    basis set group =>   2
Atom  38H    basis set group =>   2
Atom  39C    basis set group =>   1
Atom  40H    basis set group =>   2
Atom  41H    basis set group =>   2
Atom  42C    basis set group =>   1
Atom  43H    basis set group =>   2
Atom  44H    basis set group =>   2
Atom  45H    basis set group =>   2
---------------------------------
AUXILIARY/C BASIS SET INFORMATION
---------------------------------
There are 2 groups of distinct atoms

 Group   1 Type C   : 14s11p10d2f contracted to 14s11p10d2f pattern {11111111111111/11111111111/1111111111/11}
 Group   2 Type H   : 9s2p1d contracted to 9s2p1d pattern {111111111/11/1}

Atom   0C    basis set group =>   1
Atom   1C    basis set group =>   1
Atom   2C    basis set group =>   1
Atom   3C    basis set group =>   1
Atom   4C    basis set group =>   1
Atom   5C    basis set group =>   1
Atom   6C    basis set group =>   1
Atom   7H    basis set group =>   2
Atom   8H    basis set group =>   2
Atom   9C    basis set group =>   1
Atom  10H    basis set group =>   2
Atom  11H    basis set group =>   2
Atom  12C    basis set group =>   1
Atom  13H    basis set group =>   2
Atom  14H    basis set group =>   2
Atom  15C    basis set group =>   1
Atom  16H    basis set group =>   2
Atom  17H    basis set group =>   2
Atom  18C    basis set group =>   1
Atom  19H    basis set group =>   2
Atom  20H    basis set group =>   2
Atom  21C    basis set group =>   1
Atom  22H    basis set group =>   2
Atom  23H    basis set group =>   2
Atom  24C    basis set group =>   1
Atom  25H    basis set group =>   2
Atom  26H    basis set group =>   2
Atom  27C    basis set group =>   1
Atom  28H    basis set group =>   2
Atom  29H    basis set group =>   2
Atom  30C    basis set group =>   1
Atom  31H    basis set group =>   2
Atom  32H    basis set group =>   2
Atom  33C    basis set group =>   1
Atom  34H    basis set group =>   2
Atom  35H    basis set group =>   2
Atom  36C    basis set group =>   1
Atom  37H    basis set group =>   2
Atom  38H    basis set group =>   2
Atom  39C    basis set group =>   1
Atom  40H    basis set group =>   2
Atom  41H    basis set group =>   2
Atom  42C    basis set group =>   1
Atom  43H    basis set group =>   2
Atom  44H    basis set group =>   2
Atom  45H    basis set group =>   2
----------------------------------
AUXILIARY/JK BASIS SET INFORMATION
----------------------------------
There are 2 groups of distinct atoms

 Group   1 Type C   : 14s11p10d2f contracted to 14s11p10d2f pattern {11111111111111/11111111111/1111111111/11}
 Group   2 Type H   : 9s2p1d contracted to 9s2p1d pattern {111111111/11/1}

Atom   0C    basis set group =>   1
Atom   1C    basis set group =>   1
Atom   2C    basis set group =>   1
Atom   3C    basis set group =>   1
Atom   4C    basis set group =>   1
Atom   5C    basis set group =>   1
Atom   6C    basis set group =>   1
Atom   7H    basis set group =>   2
Atom   8H    basis set group =>   2
Atom   9C    basis set group =>   1
Atom  10H    basis set group =>   2
Atom  11H    basis set group =>   2
Atom  12C    basis set group =>   1
Atom  13H    basis set group =>   2
Atom  14H    basis set group =>   2
Atom  15C    basis set group =>   1
Atom  16H    basis set group =>   2
Atom  17H    basis set group =>   2
Atom  18C    basis set group =>   1
Atom  19H    basis set group =>   2
Atom  20H    basis set group =>   2
Atom  21C    basis set group =>   1
Atom  22H    basis set group =>   2
Atom  23H    basis set group =>   2
Atom  24C    basis set group =>   1
Atom  25H    basis set group =>   2
Atom  26H    basis set group =>   2
Atom  27C    basis set group =>   1
Atom  28H    basis set group =>   2
Atom  29H    basis set group =>   2
Atom  30C    basis set group =>   1
Atom  31H    basis set group =>   2
Atom  32H    basis set group =>   2
Atom  33C    basis set group =>   1
Atom  34H    basis set group =>   2
Atom  35H    basis set group =>   2
Atom  36C    basis set group =>   1
Atom  37H    basis set group =>   2
Atom  38H    basis set group =>   2
Atom  39C    basis set group =>   1
Atom  40H    basis set group =>   2
Atom  41H    basis set group =>   2
Atom  42C    basis set group =>   1
Atom  43H    basis set group =>   2
Atom  44H    basis set group =>   2
Atom  45H    basis set group =>   2


           ************************************************************
           *        Program running with 16 parallel MPI-processes    *
           *              working on a common directory               *
           ************************************************************
------------------------------------------------------------------------------
                           ORCA GTO INTEGRAL CALCULATION
                           -- RI-GTO INTEGRALS CHOSEN --
------------------------------------------------------------------------------
------------------------------------------------------------------------------
                   ___                                                        
                  /   \      - P O W E R E D   B Y -                         
                 /     \                                                     
                 |  |  |   _    _      __       _____    __    __             
                 |  |  |  | |  | |    /  \     |  _  \  |  |  /  |          
                  \  \/   | |  | |   /    \    | | | |  |  | /  /          
                 / \  \   | |__| |  /  /\  \   | |_| |  |  |/  /          
                |  |  |   |  __  | /  /__\  \  |    /   |      \           
                |  |  |   | |  | | |   __   |  |    \   |  |\   \          
                \     /   | |  | | |  |  |  |  | |\  \  |  | \   \       
                 \___/    |_|  |_| |__|  |__|  |_| \__\ |__|  \__/        
                                                                              
                      - O R C A' S   B I G   F R I E N D -                    
                                      &                                       
                       - I N T E G R A L  F E E D E R -                       
                                                                              
 v1 FN, 2020, v2 2021                                                         
------------------------------------------------------------------------------


Reading SHARK input file cc-pVDZ_i.SHARKINP.tmp ... ok
----------------------
SHARK INTEGRAL PACKAGE
----------------------

Number of atoms                             ...     46
Number of basis functions                   ...    515
Number of shells                            ...    309
Maximum angular momentum                    ...      2
Integral batch strategy                     ... SHARK/LIBINT Hybrid
RI-J (if used) integral strategy            ... SPLIT-RIJ (Revised 2003 algorithm where possible)
Printlevel                                  ...      1
Contraction scheme used                     ... PARTIAL GENERAL contraction
Coulomb Range Separation                    ... NOT USED
Exchange Range Separation                   ... NOT USED
Finite Nucleus Model                        ... NOT USED
Auxiliary Coulomb fitting basis             ... AVAILABLE
   # of basis functions in Aux-J            ...   2649
   # of shells in Aux-J                     ...   1027
   Maximum angular momentum in Aux-J        ...      3
Auxiliary J/K fitting basis                 ... AVAILABLE
   # of basis functions in Aux-JK           ...   2649
   # of shells in Aux-JK                    ...   1027
   Maximum angular momentum in Aux-JK       ...      3
Auxiliary Correlation fitting basis         ... AVAILABLE
   # of basis functions in Aux-C            ...   2649
   # of shells in Aux-C                     ...   1027
   Maximum angular momentum in Aux-C        ...      3
Auxiliary 'external' fitting basis          ... NOT available
Integral threshold                          ...     1.000000e-10
Primitive cut-off                           ...     1.000000e-11
Primitive pair pre-selection threshold      ...     1.000000e-11

Calculating pre-screening integrals         ... done (  0.0 sec) Dimension = 309
Calculating pre-screening integrals (ORCA)  ... done (  0.1 sec) Dimension = 195
Organizing shell pair data                  ... done (  0.1 sec)
Shell pair information
Total number of shell pairs                 ...     47895
Shell pairs after pre-screening             ...     20375
Total number of primitive shell pairs       ...     80739
Primitive shell pairs kept                  ...     28604
          la=0 lb=0:   9145 shell pairs
          la=1 lb=0:   7143 shell pairs
          la=1 lb=1:   1264 shell pairs
          la=2 lb=0:   1999 shell pairs
          la=2 lb=1:    712 shell pairs
          la=2 lb=2:    112 shell pairs

Calculating one electron integrals          ... done (  0.0 sec)
Calculating RI/J V-Matrix + Cholesky decomp.... done (  0.5 sec)
Calculating RI/JK V-Matrix + Cholesky decomp... done (  0.5 sec)
Calculating RI/C V-Matrix + Cholesky decomp.... done (  0.5 sec)
Calculating Nuclear repulsion               ... done (  0.0 sec) ENN=   1249.871733714571 Eh

SHARK setup successfully completed in   2.1 seconds

Maximum memory used throughout the entire GTOINT-calculation: 32.4 MB


           ************************************************************
           *        Program running with 16 parallel MPI-processes    *
           *              working on a common directory               *
           ************************************************************
-------------------------------------------------------------------------------
                                 ORCA SCF
-------------------------------------------------------------------------------

------------
SCF SETTINGS
------------
Hamiltonian:
 Density Functional     Method          .... DFT(GTOs)
 Exchange Functional    Exchange        .... B88
   X-Alpha parameter    XAlpha          ....  0.666667
   Becke's b parameter  XBeta           ....  0.004200
 Correlation Functional Correlation     .... LYP
 LDA part of GGA corr.  LDAOpt          .... VWN-5
 Gradients option       PostSCFGGA      .... off
 Hybrid DFT is turned on
   Fraction HF Exchange ScalHFX         ....  0.200000
   Scaling of DF-GGA-X  ScalDFX         ....  0.720000
   Scaling of DF-GGA-C  ScalDFC         ....  0.810000
   Scaling of DF-LDA-C  ScalLDAC        ....  1.000000
   Perturbative correction              ....  0.000000
   Density functional embedding theory  .... OFF
   NL short-range parameter             ....  4.800000
 RI-approximation to the Coulomb term is turned on
   Number of AuxJ basis functions       .... 2649
   RIJ-COSX (HFX calculated with COS-X)).... on


General Settings:
 Integral files         IntName         .... cc-pVDZ_i
 Hartree-Fock type      HFTyp           .... UHF
 Total Charge           Charge          ....    0
 Multiplicity           Mult            ....    2
 Number of Electrons    NEL             ....  141
 Basis Dimension        Dim             ....  401
 Nuclear Repulsion      ENuc            ....   1249.8717337146 Eh

Convergence Acceleration:
 DIIS                   CNVDIIS         .... on
   Start iteration      DIISMaxIt       ....    12
   Startup error        DIISStart       ....  0.200000
   # of expansion vecs  DIISMaxEq       ....     5
   Bias factor          DIISBfac        ....   1.050
   Max. coefficient     DIISMaxC        ....  10.000
 Trust-Rad. Augm. Hess. CNVTRAH         .... auto
   Auto Start mean grad. ratio tolernc. ....  1.125000
   Auto Start start iteration           ....    20
   Auto Start num. interpolation iter.  ....    10
   Max. Number of Micro iterations      ....    16
   Max. Number of Macro iterations      .... Maxiter - #DIIS iter
   Number of Davidson start vectors     ....     2
   Converg. threshold I  (grad. norm)   ....   5.000e-05
   Converg. threshold II (energy diff.) ....   1.000e-06
   Grad. Scal. Fac. for Micro threshold ....   0.100
   Minimum threshold for Micro iter.    ....   0.010
   NR start threshold (gradient norm)   ....   0.001
   Initial trust radius                 ....   0.400
   Minimum AH scaling param. (alpha)    ....   1.000
   Maximum AH scaling param. (alpha)    .... 1000.000
   Orbital update algorithm             .... Taylor
   White noise on init. David. guess    .... on
   Maximum white noise                  ....   0.010
   Quad. conv. algorithm                .... NR
 SOSCF                  CNVSOSCF        .... off
 Level Shifting         CNVShift        .... on
   Level shift para.    LevelShift      ....    0.2500
   Turn off err/grad.   ShiftErr        ....    0.0010
 Zerner damping         CNVZerner       .... off
 Static damping         CNVDamp         .... on
   Fraction old density DampFac         ....    0.7000
   Max. Damping (<1)    DampMax         ....    0.9800
   Min. Damping (>=0)   DampMin         ....    0.0000
   Turn off err/grad.   DampErr         ....    0.1000
 Fernandez-Rico         CNVRico         .... off

SCF Procedure:
 Maximum # iterations   MaxIter         ....   125
 SCF integral mode      SCFMode         .... Direct
   Integral package                     .... SHARK and LIBINT hybrid scheme
 Reset frequency        DirectResetFreq ....    20
 Integral Threshold     Thresh          ....  1.000e-10 Eh
 Primitive CutOff       TCut            ....  1.000e-11 Eh

Convergence Tolerance:
 Convergence Check Mode ConvCheckMode   .... Total+1el-Energy
 Convergence forced     ConvForced      .... 0
 Energy Change          TolE            ....  1.000e-06 Eh
 1-El. energy change                    ....  1.000e-03 Eh
 DIIS Error             TolErr          ....  1.000e-06


Diagonalization of the overlap matrix:
Smallest eigenvalue                        ... 1.543e-04
Time for diagonalization                   ...    0.031 sec
Threshold for overlap eigenvalues          ... 1.000e-08
Number of eigenvalues below threshold      ... 0
Time for construction of square roots      ...    0.033 sec
Total time needed                          ...    0.064 sec

Time for model grid setup =    0.263 sec

------------------------------
INITIAL GUESS: MODEL POTENTIAL
------------------------------
Loading Hartree-Fock densities                     ... done
Calculating cut-offs                               ... done
Initializing the effective Hamiltonian             ... done
Setting up the integral package (SHARK)            ... done
Starting the Coulomb interaction                   ... done (   0.2 sec)
Reading the grid                                   ... done
Mapping shells                                     ... done
Starting the XC term evaluation                    ... done (   0.1 sec)
  promolecular density results
     # of electrons  =    140.999846494
     EX              =   -105.601133991
     EC              =     -4.582645391
     EX+EC           =   -110.183779383
Transforming the Hamiltonian                       ... done (   0.0 sec)
Diagonalizing the Hamiltonian                      ... done (   0.0 sec)
Back transforming the eigenvectors                 ... done (   0.0 sec)
Now organizing SCF variables                       ... done
                      ------------------
                      INITIAL GUESS DONE (   0.8 sec)
                      ------------------
-------------------
DFT GRID GENERATION
-------------------

General Integration Accuracy     IntAcc      ... 4.388
Radial Grid Type                 RadialGrid  ... OptM3 with GC (2021)
Angular Grid (max. ang.)         AngularGrid ... 4 (Lebedev-302)
Angular grid pruning method      GridPruning ... 4 (adaptive)
Weight generation scheme         WeightScheme... Becke
Basis function cutoff            BFCut       ... 1.0000e-10
Integration weight cutoff        WCut        ... 1.0000e-14
Angular grids for H and He will be reduced by one unit
Partially contracted basis set               ... off
Rotationally invariant grid construction     ... off

Total number of grid points                  ...   199575
Total number of batches                      ...     3141
Average number of points per batch           ...       63
Average number of grid points per atom       ...     4339
Time for grid setup =    1.048 sec

--------------------
COSX GRID GENERATION
--------------------

GRIDX 1
-------
General Integration Accuracy     IntAcc      ... 3.816
Radial Grid Type                 RadialGrid  ... OptM3 with GC (2021)
Angular Grid (max. ang.)         AngularGrid ... 1 (Lebedev-50)
Angular grid pruning method      GridPruning ... 4 (adaptive)
Weight generation scheme         WeightScheme... Becke
Basis function cutoff            BFCut       ... 1.0000e-10
Integration weight cutoff        WCut        ... 1.0000e-14
Angular grids for H and He will be reduced by one unit
Partially contracted basis set               ... on
Rotationally invariant grid construction     ... off

Total number of grid points                  ...    25466
Total number of batches                      ...      424
Average number of points per batch           ...       60
Average number of grid points per atom       ...      554
UseSFitting                                  ... on

GRIDX 2
-------
General Integration Accuracy     IntAcc      ... 4.020
Radial Grid Type                 RadialGrid  ... OptM3 with GC (2021)
Angular Grid (max. ang.)         AngularGrid ... 2 (Lebedev-110)
Angular grid pruning method      GridPruning ... 4 (adaptive)
Weight generation scheme         WeightScheme... Becke
Basis function cutoff            BFCut       ... 1.0000e-10
Integration weight cutoff        WCut        ... 1.0000e-14
Angular grids for H and He will be reduced by one unit
Partially contracted basis set               ... on
Rotationally invariant grid construction     ... off

Total number of grid points                  ...    53462
Total number of batches                      ...      857
Average number of points per batch           ...       62
Average number of grid points per atom       ...     1162
UseSFitting                                  ... on

GRIDX 3
-------
General Integration Accuracy     IntAcc      ... 4.338
Radial Grid Type                 RadialGrid  ... OptM3 with GC (2021)
Angular Grid (max. ang.)         AngularGrid ... 3 (Lebedev-194)
Angular grid pruning method      GridPruning ... 4 (adaptive)
Weight generation scheme         WeightScheme... Becke
Basis function cutoff            BFCut       ... 1.0000e-10
Integration weight cutoff        WCut        ... 1.0000e-14
Angular grids for H and He will be reduced by one unit
Partially contracted basis set               ... on
Rotationally invariant grid construction     ... off

Total number of grid points                  ...   116756
Total number of batches                      ...     1850
Average number of points per batch           ...       63
Average number of grid points per atom       ...     2538
UseSFitting                                  ... on

Time for X-Grid setup             =    2.014 sec

 re-compute Schwartz prescreening matrix in partically contracted basis (1) ...done (   0.111 sec)
--------------
SCF ITERATIONS
--------------
ITER       Energy         Delta-E        Max-DP      RMS-DP      [F,P]     Damp
               ***  Starting incremental Fock matrix formation  ***
  0   -739.1834757393   0.000000000000 0.06504018  0.00079439  0.0869641 0.7000
  1   -739.4099039092  -0.226428169841 0.04789848  0.00059017  0.0458237 0.7000
                               ***Turning on DIIS***
  2   -739.5097175313  -0.099813622119 0.09355293  0.00110361  0.0194141 0.0000
  3   -739.6475944449  -0.137876913638 0.01889512  0.00032987  0.0249304 0.0000
  4   -739.6863901070  -0.038795662038 0.00897623  0.00011074  0.0065281 0.0000
  5   -739.6885788197  -0.002188712739 0.00118332  0.00003450  0.0015179 0.0000
  6   -739.6887630035  -0.000184183830 0.00134601  0.00002088  0.0007272 0.0000
               *** Restarting incremental Fock matrix formation ***
                                   *** Resetting DIIS ***
  7   -739.6891210851  -0.000358081553 0.00105488  0.00000985  0.0010876 0.0000
  8   -739.6891192691   0.000001816003 0.00036542  0.00000343  0.0013111 0.0000
  9   -739.6891268637  -0.000007594601 0.00021312  0.00000216  0.0004319 0.0000
                 **** Energy Check signals convergence ****

               *****************************************************
               *                     SUCCESS                       *
               *           SCF CONVERGED AFTER  10 CYCLES          *
               *****************************************************

Old exchange energy                            =    -21.608783259 Eh
New exchange energy                            =    -21.608867862 Eh
Exchange energy change after final integration =     -0.000084602 Eh
Total energy after final integration           =   -739.689212409 Eh
Final COS-X integration done in                =     5.330 sec

----------------
TOTAL SCF ENERGY
----------------

Total Energy       :         -739.68921241 Eh          -20127.96676 eV

Components:
Nuclear Repulsion  :         1249.87173371 Eh           34010.73895 eV
Electronic Energy  :        -1989.56094612 Eh          -54138.70570 eV
One Electron Energy:        -3477.46813434 Eh          -94626.71866 eV
Two Electron Energy:         1487.90718822 Eh           40488.01296 eV
Max COSX asymmetry :            0.00000044 Eh               0.00001 eV

Virial components:
Potential Energy   :        -1473.97003092 Eh          -40108.76363 eV
Kinetic Energy     :          734.28081851 Eh           19980.79688 eV
Virial Ratio       :            2.00736557


DFT components:
N(Alpha)           :       71.000178981756 electrons
N(Beta)            :       70.000176407259 electrons
N(Total)           :      141.000355389015 electrons
E(X)               :      -85.623718064048 Eh       
E(C)               :       -5.414294488394 Eh       
E(XC)              :      -91.038012552442 Eh       
DFET-embed. en.    :        0.000000000000 Eh       

---------------
SCF CONVERGENCE
---------------

  Last Energy change         ...   -9.4287e-07  Tolerance :   1.0000e-06
  Last MAX-Density change    ...    0.0000e+00  Tolerance :   1.0000e-05
  Last RMS-Density change    ...    0.0000e+00  Tolerance :   1.0000e-06
  Last DIIS Error            ...    5.1526e-05  Tolerance :   1.0000e-06

             **** THE GBW FILE WAS UPDATED (cc-pVDZ_i.gbw) ****
             **** DENSITY cc-pVDZ_i.scfp WAS UPDATED ****
             **** ENERGY FILE WAS UPDATED (cc-pVDZ_i.en.tmp) ****
----------------------
UHF SPIN CONTAMINATION
----------------------

Warning: in a DFT calculation there is little theoretical justification to 
         calculate <S**2> as in Hartree-Fock theory. We will do it anyways
         but you should keep in mind that the values have only limited relevance

Expectation value of <S**2>     :     0.753886
Ideal value S*(S+1) for S=0.5   :     0.750000
Deviation                       :     0.003886

             **** THE GBW FILE WAS UPDATED (cc-pVDZ_i.gbw) ****
             **** DENSITY cc-pVDZ_i.scfp WAS UPDATED ****
----------------
ORBITAL ENERGIES
----------------
                 SPIN UP ORBITALS
  NO   OCC          E(Eh)            E(eV) 
   0   1.0000     -10.205539      -277.7068 
   1   1.0000     -10.195961      -277.4462 
   2   1.0000     -10.192342      -277.3477 
   3   1.0000     -10.187886      -277.2265 
   4   1.0000     -10.186987      -277.2020 
   5   1.0000     -10.186598      -277.1914 
   6   1.0000     -10.185700      -277.1670 
   7   1.0000     -10.185342      -277.1572 
   8   1.0000     -10.184344      -277.1301 
   9   1.0000     -10.183790      -277.1150 
  10   1.0000     -10.183628      -277.1106 
  11   1.0000     -10.182259      -277.0734 
  12   1.0000     -10.181589      -277.0551 
  13   1.0000     -10.181572      -277.0547 
  14   1.0000     -10.181188      -277.0442 
  15   1.0000     -10.180826      -277.0344 
  16   1.0000     -10.179174      -276.9894 
  17   1.0000     -10.178889      -276.9816 
  18   1.0000     -10.175898      -276.9002 
  19   1.0000      -0.863851       -23.5066 
  20   1.0000      -0.813311       -22.1313 
  21   1.0000      -0.804054       -21.8794 
  22   1.0000      -0.784796       -21.3554 
  23   1.0000      -0.776709       -21.1353 
  24   1.0000      -0.758525       -20.6405 
  25   1.0000      -0.732347       -19.9282 
  26   1.0000      -0.721467       -19.6321 
  27   1.0000      -0.704440       -19.1688 
  28   1.0000      -0.668038       -18.1782 
  29   1.0000      -0.637541       -17.3484 
  30   1.0000      -0.618006       -16.8168 
  31   1.0000      -0.608592       -16.5606 
  32   1.0000      -0.583029       -15.8650 
  33   1.0000      -0.576668       -15.6919 
  34   1.0000      -0.570718       -15.5300 
  35   1.0000      -0.559228       -15.2174 
  36   1.0000      -0.525437       -14.2979 
  37   1.0000      -0.493459       -13.4277 
  38   1.0000      -0.479968       -13.0606 
  39   1.0000      -0.470450       -12.8016 
  40   1.0000      -0.467803       -12.7296 
  41   1.0000      -0.459708       -12.5093 
  42   1.0000      -0.458544       -12.4776 
  43   1.0000      -0.426405       -11.6031 
  44   1.0000      -0.425794       -11.5864 
  45   1.0000      -0.422140       -11.4870 
  46   1.0000      -0.418748       -11.3947 
  47   1.0000      -0.418437       -11.3862 
  48   1.0000      -0.410936       -11.1821 
  49   1.0000      -0.399165       -10.8618 
  50   1.0000      -0.388616       -10.5748 
  51   1.0000      -0.380508       -10.3541 
  52   1.0000      -0.370864       -10.0917 
  53   1.0000      -0.365912        -9.9570 
  54   1.0000      -0.357934        -9.7399 
  55   1.0000      -0.353527        -9.6199 
  56   1.0000      -0.352424        -9.5900 
  57   1.0000      -0.337628        -9.1873 
  58   1.0000      -0.337102        -9.1730 
  59   1.0000      -0.328944        -8.9510 
  60   1.0000      -0.324593        -8.8326 
  61   1.0000      -0.324244        -8.8231 
  62   1.0000      -0.322576        -8.7777 
  63   1.0000      -0.322197        -8.7674 
  64   1.0000      -0.318719        -8.6728 
  65   1.0000      -0.314488        -8.5576 
  66   1.0000      -0.298591        -8.1251 
  67   1.0000      -0.270444        -7.3591 
  68   1.0000      -0.240982        -6.5575 
  69   1.0000      -0.222626        -6.0580 
  70   1.0000      -0.198461        -5.4004 
  71   0.0000      -0.030204        -0.8219 
  72   0.0000       0.002372         0.0645 
  73   0.0000       0.049381         1.3437 
  74   0.0000       0.061376         1.6701 
  75   0.0000       0.062361         1.6969 
  76   0.0000       0.074956         2.0397 
  77   0.0000       0.075258         2.0479 
  78   0.0000       0.076140         2.0719 
  79   0.0000       0.083528         2.2729 
  80   0.0000       0.083679         2.2770 
  81   0.0000       0.086676         2.3586 
  82   0.0000       0.095014         2.5854 
  83   0.0000       0.096229         2.6185 
  84   0.0000       0.097056         2.6410 
  85   0.0000       0.102285         2.7833 
  86   0.0000       0.111723         3.0401 
  87   0.0000       0.114368         3.1121 
  88   0.0000       0.128059         3.4847 
  89   0.0000       0.133849         3.6422 
  90   0.0000       0.143898         3.9157 
  91   0.0000       0.151059         4.1105 
  92   0.0000       0.151374         4.1191 
  93   0.0000       0.158324         4.3082 
  94   0.0000       0.160449         4.3660 
  95   0.0000       0.160804         4.3757 
  96   0.0000       0.167284         4.5520 
  97   0.0000       0.174320         4.7435 
  98   0.0000       0.176489         4.8025 
  99   0.0000       0.182413         4.9637 
 100   0.0000       0.183434         4.9915 
 101   0.0000       0.190961         5.1963 
 102   0.0000       0.199563         5.4304 
 103   0.0000       0.201788         5.4909 
 104   0.0000       0.210988         5.7413 
 105   0.0000       0.213728         5.8158 
 106   0.0000       0.218057         5.9336 
 107   0.0000       0.225264         6.1298 
 108   0.0000       0.232925         6.3382 
 109   0.0000       0.244903         6.6642 
 110   0.0000       0.253867         6.9081 
 111   0.0000       0.272062         7.4032 
 112   0.0000       0.275698         7.5021 
 113   0.0000       0.289571         7.8796 
 114   0.0000       0.299368         8.1462 
 115   0.0000       0.330422         8.9913 
 116   0.0000       0.338643         9.2149 
 117   0.0000       0.354551         9.6478 
 118   0.0000       0.359948         9.7947 
 119   0.0000       0.375161        10.2087 
 120   0.0000       0.398548        10.8451 
 121   0.0000       0.407341        11.0843 
 122   0.0000       0.411939        11.2094 
 123   0.0000       0.413614        11.2550 
 124   0.0000       0.417825        11.3696 
 125   0.0000       0.420388        11.4393 
 126   0.0000       0.425241        11.5714 
 127   0.0000       0.427677        11.6377 
 128   0.0000       0.439946        11.9715 
 129   0.0000       0.442386        12.0379 
 130   0.0000       0.462518        12.5857 
 131   0.0000       0.463026        12.5996 
 132   0.0000       0.478719        13.0266 
 133   0.0000       0.484958        13.1964 
 134   0.0000       0.487845        13.2749 
 135   0.0000       0.493707        13.4344 
 136   0.0000       0.497767        13.5449 
 137   0.0000       0.498245        13.5579 
 138   0.0000       0.504719        13.7341 
 139   0.0000       0.520141        14.1538 
 140   0.0000       0.522659        14.2223 
 141   0.0000       0.523922        14.2566 
 142   0.0000       0.532239        14.4829 
 143   0.0000       0.538110        14.6427 
 144   0.0000       0.540226        14.7003 
 145   0.0000       0.545581        14.8460 
 146   0.0000       0.563305        15.3283 
 147   0.0000       0.568709        15.4754 
 148   0.0000       0.586934        15.9713 
 149   0.0000       0.591143        16.0858 
 150   0.0000       0.605174        16.4676 
 151   0.0000       0.607252        16.5242 
 152   0.0000       0.611121        16.6294 
 153   0.0000       0.618752        16.8371 
 154   0.0000       0.621954        16.9242 
 155   0.0000       0.630328        17.1521 
 156   0.0000       0.630734        17.1631 
 157   0.0000       0.633523        17.2390 
 158   0.0000       0.636546        17.3213 
 159   0.0000       0.641662        17.4605 
 160   0.0000       0.643140        17.5007 
 161   0.0000       0.648437        17.6449 
 162   0.0000       0.650613        17.7041 
 163   0.0000       0.653331        17.7781 
 164   0.0000       0.657349        17.8874 
 165   0.0000       0.660294        17.9675 
 166   0.0000       0.661080        17.9889 
 167   0.0000       0.661150        17.9908 
 168   0.0000       0.664585        18.0843 
 169   0.0000       0.666660        18.1407 
 170   0.0000       0.670544        18.2464 
 171   0.0000       0.676524        18.4091 
 172   0.0000       0.684635        18.6299 
 173   0.0000       0.686975        18.6935 
 174   0.0000       0.688351        18.7310 
 175   0.0000       0.692825        18.8527 
 176   0.0000       0.693823        18.8799 
 177   0.0000       0.699355        19.0304 
 178   0.0000       0.699951        19.0466 
 179   0.0000       0.704049        19.1582 
 180   0.0000       0.705936        19.2095 
 181   0.0000       0.711428        19.3589 
 182   0.0000       0.714331        19.4379 
 183   0.0000       0.722623        19.6636 
 184   0.0000       0.727236        19.7891 
 185   0.0000       0.728241        19.8164 
 186   0.0000       0.737058        20.0564 
 187   0.0000       0.742070        20.1928 
 188   0.0000       0.759113        20.6565 
 189   0.0000       0.764699        20.8085 
 190   0.0000       0.770995        20.9798 
 191   0.0000       0.778665        21.1886 
 192   0.0000       0.803539        21.8654 
 193   0.0000       0.812765        22.1165 
 194   0.0000       0.825922        22.4745 
 195   0.0000       0.838347        22.8126 
 196   0.0000       0.839674        22.8487 
 197   0.0000       0.856110        23.2959 
 198   0.0000       0.862672        23.4745 
 199   0.0000       0.874060        23.7844 
 200   0.0000       0.891440        24.2573 
 201   0.0000       0.904235        24.6055 
 202   0.0000       0.927026        25.2257 
 203   0.0000       0.946274        25.7494 
 204   0.0000       0.977684        26.6041 
 205   0.0000       0.980353        26.6768 
 206   0.0000       0.995387        27.0859 
 207   0.0000       0.996616        27.1193 
 208   0.0000       1.008694        27.4480 
 209   0.0000       1.008842        27.4520 
 210   0.0000       1.029794        28.0221 
 211   0.0000       1.033778        28.1305 
 212   0.0000       1.038835        28.2681 
 213   0.0000       1.047991        28.5173 
 214   0.0000       1.056261        28.7423 
 215   0.0000       1.067564        29.0499 
 216   0.0000       1.071521        29.1576 
 217   0.0000       1.086389        29.5622 
 218   0.0000       1.092779        29.7360 
 219   0.0000       1.118835        30.4450 
 220   0.0000       1.132790        30.8248 
 221   0.0000       1.153073        31.3767 
 222   0.0000       1.176766        32.0214 
 223   0.0000       1.186812        32.2948 
 224   0.0000       1.199046        32.6277 
 225   0.0000       1.204486        32.7757 
 226   0.0000       1.205678        32.8082 
 227   0.0000       1.208973        32.8978 
 228   0.0000       1.215385        33.0723 
 229   0.0000       1.216951        33.1149 
 230   0.0000       1.217944        33.1419 
 231   0.0000       1.224514        33.3207 
 232   0.0000       1.227102        33.3912 
 233   0.0000       1.232265        33.5316 
 234   0.0000       1.242668        33.8147 
 235   0.0000       1.265229        34.4286 
 236   0.0000       1.286916        35.0188 
 237   0.0000       1.310434        35.6587 
 238   0.0000       1.320304        35.9273 
 239   0.0000       1.323768        36.0216 
 240   0.0000       1.333577        36.2885 
 241   0.0000       1.338007        36.4090 
 242   0.0000       1.343599        36.5612 
 243   0.0000       1.350523        36.7496 
 244   0.0000       1.361122        37.0380 
 245   0.0000       1.378636        37.5146 
 246   0.0000       1.412091        38.4249 
 247   0.0000       1.412750        38.4429 
 248   0.0000       1.425016        38.7767 
 249   0.0000       1.426251        38.8103 
 250   0.0000       1.445216        39.3263 
 251   0.0000       1.455544        39.6074 
 252   0.0000       1.462101        39.7858 
 253   0.0000       1.472244        40.0618 
 254   0.0000       1.473337        40.0915 
 255   0.0000       1.474324        40.1184 
 256   0.0000       1.486633        40.4533 
 257   0.0000       1.498732        40.7826 
 258   0.0000       1.508867        41.0584 
 259   0.0000       1.517383        41.2901 
 260   0.0000       1.526042        41.5257 
 261   0.0000       1.548909        42.1480 
 262   0.0000       1.552296        42.2401 
 263   0.0000       1.558782        42.4166 
 264   0.0000       1.585402        43.1410 
 265   0.0000       1.593652        43.3655 
 266   0.0000       1.595633        43.4194 
 267   0.0000       1.597577        43.4723 
 268   0.0000       1.607693        43.7475 
 269   0.0000       1.613316        43.9006 
 270   0.0000       1.628345        44.3095 
 271   0.0000       1.629268        44.3346 
 272   0.0000       1.629674        44.3457 
 273   0.0000       1.631158        44.3861 
 274   0.0000       1.638920        44.5973 
 275   0.0000       1.641227        44.6601 
 276   0.0000       1.646006        44.7901 
 277   0.0000       1.647982        44.8439 
 278   0.0000       1.650966        44.9251 
 279   0.0000       1.658227        45.1227 
 280   0.0000       1.665690        45.3257 
 281   0.0000       1.673894        45.5490 
 282   0.0000       1.681840        45.7652 
 283   0.0000       1.682291        45.7775 
 284   0.0000       1.689947        45.9858 
 285   0.0000       1.691425        46.0260 
 286   0.0000       1.695427        46.1349 
 287   0.0000       1.701232        46.2929 
 288   0.0000       1.705623        46.4124 
 289   0.0000       1.708308        46.4854 
 290   0.0000       1.709029        46.5051 
 291   0.0000       1.711006        46.5588 
 292   0.0000       1.712493        46.5993 
 293   0.0000       1.717890        46.7462 
 294   0.0000       1.722379        46.8683 
 295   0.0000       1.733775        47.1784 
 296   0.0000       1.739790        47.3421 
 297   0.0000       1.750086        47.6222 
 298   0.0000       1.754489        47.7421 
 299   0.0000       1.760695        47.9110 
 300   0.0000       1.766361        48.0651 
 301   0.0000       1.767728        48.1023 
 302   0.0000       1.776339        48.3366 
 303   0.0000       1.781645        48.4810 
 304   0.0000       1.787975        48.6533 
 305   0.0000       1.792641        48.7802 
 306   0.0000       1.794269        48.8245 
 307   0.0000       1.798796        48.9477 
 308   0.0000       1.804339        49.0986 
 309   0.0000       1.809707        49.2446 
 310   0.0000       1.823377        49.6166 
 311   0.0000       1.833400        49.8893 
 312   0.0000       1.836274        49.9676 
 313   0.0000       1.854812        50.4720 
 314   0.0000       1.866316        50.7850 
 315   0.0000       1.871040        50.9136 
 316   0.0000       1.878984        51.1297 
 317   0.0000       1.899228        51.6806 
 318   0.0000       1.902965        51.7823 
 319   0.0000       1.911599        52.0173 
 320   0.0000       1.918776        52.2125 
 321   0.0000       1.925930        52.4072 
 322   0.0000       1.945082        52.9284 
 323   0.0000       1.955668        53.2164 
 324   0.0000       1.963350        53.4255 
 325   0.0000       1.967281        53.5324 
 326   0.0000       1.981045        53.9070 
 327   0.0000       1.985013        54.0149 
 328   0.0000       1.992840        54.2279 
 329   0.0000       2.010661        54.7129 
 330   0.0000       2.026999        55.1574 
 331   0.0000       2.040010        55.5115 
 332   0.0000       2.046410        55.6857 
 333   0.0000       2.055807        55.9413 
 334   0.0000       2.059110        56.0312 
 335   0.0000       2.075180        56.4685 
 336   0.0000       2.090412        56.8830 
 337   0.0000       2.100863        57.1674 
 338   0.0000       2.102042        57.1995 
 339   0.0000       2.114663        57.5429 
 340   0.0000       2.151348        58.5411 
 341   0.0000       2.152610        58.5755 
 342   0.0000       2.161041        58.8049 
 343   0.0000       2.181322        59.3568 
 344   0.0000       2.190058        59.5945 
 345   0.0000       2.206226        60.0345 
 346   0.0000       2.210444        60.1492 
 347   0.0000       2.217303        60.3359 
 348   0.0000       2.227382        60.6102 
 349   0.0000       2.231484        60.7218 
 350   0.0000       2.235430        60.8291 
 351   0.0000       2.243135        61.0388 
 352   0.0000       2.275153        61.9101 
 353   0.0000       2.276943        61.9588 
 354   0.0000       2.288417        62.2710 
 355   0.0000       2.289813        62.3090 
 356   0.0000       2.307733        62.7966 
 357   0.0000       2.309774        62.8521 
 358   0.0000       2.319550        63.1182 
 359   0.0000       2.326782        63.3149 
 360   0.0000       2.336616        63.5825 
 361   0.0000       2.340318        63.6833 
 362   0.0000       2.341897        63.7263 
 363   0.0000       2.347937        63.8906 
 364   0.0000       2.353963        64.0546 
 365   0.0000       2.371181        64.5231 
 366   0.0000       2.378209        64.7144 
 367   0.0000       2.406808        65.4926 
 368   0.0000       2.412540        65.6485 
 369   0.0000       2.417052        65.7713 
 370   0.0000       2.426629        66.0319 
 371   0.0000       2.442723        66.4699 
 372   0.0000       2.449296        66.6487 
 373   0.0000       2.458958        66.9116 
 374   0.0000       2.479562        67.4723 
 375   0.0000       2.480035        67.4852 
 376   0.0000       2.485954        67.6462 
 377   0.0000       2.514240        68.4160 
 378   0.0000       2.528876        68.8142 
 379   0.0000       2.530439        68.8568 
 380   0.0000       2.568016        69.8793 
 381   0.0000       2.572649        70.0053 
 382   0.0000       2.590138        70.4812 
 383   0.0000       2.597525        70.6822 
 384   0.0000       2.611238        71.0554 
 385   0.0000       2.614049        71.1319 
 386   0.0000       2.628086        71.5139 
 387   0.0000       2.665542        72.5331 
 388   0.0000       2.703061        73.5540 
 389   0.0000       2.711889        73.7942 
 390   0.0000       2.720201        74.0204 
 391   0.0000       2.730807        74.3090 
 392   0.0000       2.741728        74.6062 
 393   0.0000       2.761368        75.1407 
 394   0.0000       2.811950        76.5170 
 395   0.0000       2.814459        76.5853 
 396   0.0000       2.827180        76.9315 
 397   0.0000       2.883439        78.4624 
 398   0.0000       2.935595        79.8816 
 399   0.0000       3.196766        86.9884 
 400   0.0000       3.419509        93.0496 

                 SPIN DOWN ORBITALS
  NO   OCC          E(Eh)            E(eV) 
   0   1.0000     -10.205538      -277.7068 
   1   1.0000     -10.195958      -277.4461 
   2   1.0000     -10.192342      -277.3477 
   3   1.0000     -10.187886      -277.2265 
   4   1.0000     -10.186987      -277.2020 
   5   1.0000     -10.186598      -277.1914 
   6   1.0000     -10.185342      -277.1572 
   7   1.0000     -10.184665      -277.1388 
   8   1.0000     -10.184344      -277.1301 
   9   1.0000     -10.183621      -277.1104 
  10   1.0000     -10.182259      -277.0734 
  11   1.0000     -10.181589      -277.0551 
  12   1.0000     -10.181572      -277.0547 
  13   1.0000     -10.180791      -277.0334 
  14   1.0000     -10.179622      -277.0016 
  15   1.0000     -10.179130      -276.9882 
  16   1.0000     -10.178707      -276.9767 
  17   1.0000     -10.175898      -276.9002 
  18   1.0000     -10.171671      -276.7852 
  19   1.0000      -0.863848       -23.5065 
  20   1.0000      -0.812835       -22.1184 
  21   1.0000      -0.802471       -21.8364 
  22   1.0000      -0.782414       -21.2906 
  23   1.0000      -0.775714       -21.1083 
  24   1.0000      -0.755747       -20.5649 
  25   1.0000      -0.728532       -19.8244 
  26   1.0000      -0.721466       -19.6321 
  27   1.0000      -0.700486       -19.0612 
  28   1.0000      -0.662299       -18.0221 
  29   1.0000      -0.634213       -17.2578 
  30   1.0000      -0.617126       -16.7928 
  31   1.0000      -0.603527       -16.4228 
  32   1.0000      -0.580346       -15.7920 
  33   1.0000      -0.575221       -15.6526 
  34   1.0000      -0.563799       -15.3418 
  35   1.0000      -0.557149       -15.1608 
  36   1.0000      -0.525425       -14.2975 
  37   1.0000      -0.493429       -13.4269 
  38   1.0000      -0.479111       -13.0373 
  39   1.0000      -0.470446       -12.8015 
  40   1.0000      -0.467760       -12.7284 
  41   1.0000      -0.459629       -12.5071 
  42   1.0000      -0.456316       -12.4170 
  43   1.0000      -0.425808       -11.5868 
  44   1.0000      -0.423265       -11.5176 
  45   1.0000      -0.421803       -11.4779 
  46   1.0000      -0.418129       -11.3779 
  47   1.0000      -0.416642       -11.3374 
  48   1.0000      -0.409107       -11.1324 
  49   1.0000      -0.395232       -10.7548 
  50   1.0000      -0.386395       -10.5143 
  51   1.0000      -0.378080       -10.2881 
  52   1.0000      -0.368651       -10.0315 
  53   1.0000      -0.365093        -9.9347 
  54   1.0000      -0.356257        -9.6943 
  55   1.0000      -0.352041        -9.5795 
  56   1.0000      -0.351674        -9.5695 
  57   1.0000      -0.336680        -9.1615 
  58   1.0000      -0.335552        -9.1308 
  59   1.0000      -0.328134        -8.9290 
  60   1.0000      -0.324300        -8.8246 
  61   1.0000      -0.323981        -8.8160 
  62   1.0000      -0.322061        -8.7637 
  63   1.0000      -0.321179        -8.7397 
  64   1.0000      -0.318215        -8.6591 
  65   1.0000      -0.311500        -8.4764 
  66   1.0000      -0.298590        -8.1251 
  67   1.0000      -0.270436        -7.3589 
  68   1.0000      -0.240982        -6.5574 
  69   1.0000      -0.222625        -6.0579 
  70   0.0000      -0.044727        -1.2171 
  71   0.0000      -0.030203        -0.8219 
  72   0.0000       0.002373         0.0646 
  73   0.0000       0.049385         1.3438 
  74   0.0000       0.061618         1.6767 
  75   0.0000       0.062926         1.7123 
  76   0.0000       0.075318         2.0495 
  77   0.0000       0.075984         2.0676 
  78   0.0000       0.076998         2.0952 
  79   0.0000       0.083651         2.2763 
  80   0.0000       0.083968         2.2849 
  81   0.0000       0.087273         2.3748 
  82   0.0000       0.095231         2.5914 
  83   0.0000       0.097031         2.6403 
  84   0.0000       0.098719         2.6863 
  85   0.0000       0.104023         2.8306 
  86   0.0000       0.112663         3.0657 
  87   0.0000       0.116399         3.1674 
  88   0.0000       0.128347         3.4925 
  89   0.0000       0.135968         3.6999 
  90   0.0000       0.144529         3.9328 
  91   0.0000       0.151484         4.1221 
  92   0.0000       0.151781         4.1302 
  93   0.0000       0.158436         4.3113 
  94   0.0000       0.160627         4.3709 
  95   0.0000       0.161359         4.3908 
  96   0.0000       0.168403         4.5825 
  97   0.0000       0.174545         4.7496 
  98   0.0000       0.176578         4.8049 
  99   0.0000       0.182979         4.9791 
 100   0.0000       0.183580         4.9955 
 101   0.0000       0.192203         5.2301 
 102   0.0000       0.199586         5.4310 
 103   0.0000       0.203524         5.5382 
 104   0.0000       0.211158         5.7459 
 105   0.0000       0.213976         5.8226 
 106   0.0000       0.218898         5.9565 
 107   0.0000       0.225769         6.1435 
 108   0.0000       0.233558         6.3554 
 109   0.0000       0.246309         6.7024 
 110   0.0000       0.255929         6.9642 
 111   0.0000       0.273782         7.4500 
 112   0.0000       0.278382         7.5752 
 113   0.0000       0.290821         7.9136 
 114   0.0000       0.301882         8.2146 
 115   0.0000       0.331438         9.0189 
 116   0.0000       0.340473         9.2647 
 117   0.0000       0.355391         9.6707 
 118   0.0000       0.360092         9.7986 
 119   0.0000       0.375515        10.2183 
 120   0.0000       0.400224        10.8906 
 121   0.0000       0.408253        11.1091 
 122   0.0000       0.411940        11.2095 
 123   0.0000       0.414870        11.2892 
 124   0.0000       0.417954        11.3731 
 125   0.0000       0.420394        11.4395 
 126   0.0000       0.426334        11.6011 
 127   0.0000       0.427965        11.6455 
 128   0.0000       0.442051        12.0288 
 129   0.0000       0.444121        12.0852 
 130   0.0000       0.462690        12.5904 
 131   0.0000       0.467939        12.7333 
 132   0.0000       0.480854        13.0847 
 133   0.0000       0.487838        13.2747 
 134   0.0000       0.489203        13.3119 
 135   0.0000       0.496595        13.5130 
 136   0.0000       0.498520        13.5654 
 137   0.0000       0.498947        13.5771 
 138   0.0000       0.513239        13.9659 
 139   0.0000       0.523755        14.2521 
 140   0.0000       0.523873        14.2553 
 141   0.0000       0.533394        14.5144 
 142   0.0000       0.538250        14.6465 
 143   0.0000       0.540944        14.7198 
 144   0.0000       0.545590        14.8462 
 145   0.0000       0.555720        15.1219 
 146   0.0000       0.569205        15.4889 
 147   0.0000       0.578275        15.7357 
 148   0.0000       0.587169        15.9777 
 149   0.0000       0.592570        16.1247 
 150   0.0000       0.607391        16.5279 
 151   0.0000       0.607794        16.5389 
 152   0.0000       0.613257        16.6876 
 153   0.0000       0.618811        16.8387 
 154   0.0000       0.623630        16.9698 
 155   0.0000       0.630982        17.1699 
 156   0.0000       0.631677        17.1888 
 157   0.0000       0.634233        17.2584 
 158   0.0000       0.637621        17.3505 
 159   0.0000       0.643019        17.4974 
 160   0.0000       0.643187        17.5020 
 161   0.0000       0.648906        17.6576 
 162   0.0000       0.651558        17.7298 
 163   0.0000       0.654860        17.8197 
 164   0.0000       0.659279        17.9399 
 165   0.0000       0.660597        17.9758 
 166   0.0000       0.661303        17.9950 
 167   0.0000       0.662021        18.0145 
 168   0.0000       0.665545        18.1104 
 169   0.0000       0.669145        18.2084 
 170   0.0000       0.671754        18.2794 
 171   0.0000       0.678469        18.4621 
 172   0.0000       0.684728        18.6324 
 173   0.0000       0.687282        18.7019 
 174   0.0000       0.688918        18.7464 
 175   0.0000       0.693419        18.8689 
 176   0.0000       0.694715        18.9042 
 177   0.0000       0.701714        19.0946 
 178   0.0000       0.702050        19.1038 
 179   0.0000       0.704454        19.1692 
 180   0.0000       0.705986        19.2108 
 181   0.0000       0.714361        19.4387 
 182   0.0000       0.715561        19.4714 
 183   0.0000       0.722744        19.6669 
 184   0.0000       0.727281        19.7903 
 185   0.0000       0.729839        19.8599 
 186   0.0000       0.737358        20.0645 
 187   0.0000       0.744578        20.2610 
 188   0.0000       0.759496        20.6669 
 189   0.0000       0.765896        20.8411 
 190   0.0000       0.771970        21.0064 
 191   0.0000       0.779024        21.1983 
 192   0.0000       0.803543        21.8655 
 193   0.0000       0.812929        22.1209 
 194   0.0000       0.829312        22.5667 
 195   0.0000       0.839402        22.8413 
 196   0.0000       0.841250        22.8916 
 197   0.0000       0.856801        23.3147 
 198   0.0000       0.866464        23.5777 
 199   0.0000       0.874401        23.7937 
 200   0.0000       0.891466        24.2580 
 201   0.0000       0.905382        24.6367 
 202   0.0000       0.927052        25.2264 
 203   0.0000       0.947719        25.7887 
 204   0.0000       0.978105        26.6156 
 205   0.0000       0.995506        27.0891 
 206   0.0000       0.997591        27.1458 
 207   0.0000       1.008716        27.4486 
 208   0.0000       1.009103        27.4591 
 209   0.0000       1.012786        27.5593 
 210   0.0000       1.033272        28.1168 
 211   0.0000       1.037458        28.2307 
 212   0.0000       1.039800        28.2944 
 213   0.0000       1.047993        28.5173 
 214   0.0000       1.056368        28.7452 
 215   0.0000       1.070979        29.1428 
 216   0.0000       1.078067        29.3357 
 217   0.0000       1.086400        29.5625 
 218   0.0000       1.095503        29.8101 
 219   0.0000       1.122142        30.5350 
 220   0.0000       1.134590        30.8738 
 221   0.0000       1.153166        31.3792 
 222   0.0000       1.180167        32.1140 
 223   0.0000       1.189066        32.3561 
 224   0.0000       1.200358        32.6634 
 225   0.0000       1.204566        32.7779 
 226   0.0000       1.205714        32.8092 
 227   0.0000       1.209052        32.9000 
 228   0.0000       1.215448        33.0740 
 229   0.0000       1.217274        33.1237 
 230   0.0000       1.218958        33.1695 
 231   0.0000       1.224528        33.3211 
 232   0.0000       1.227218        33.3943 
 233   0.0000       1.232438        33.5363 
 234   0.0000       1.243115        33.8269 
 235   0.0000       1.266005        34.4498 
 236   0.0000       1.286917        35.0188 
 237   0.0000       1.310701        35.6660 
 238   0.0000       1.320308        35.9274 
 239   0.0000       1.332982        36.2723 
 240   0.0000       1.333578        36.2885 
 241   0.0000       1.338325        36.4177 
 242   0.0000       1.343704        36.5640 
 243   0.0000       1.351601        36.7789 
 244   0.0000       1.361578        37.0504 
 245   0.0000       1.390533        37.8383 
 246   0.0000       1.412092        38.4250 
 247   0.0000       1.413082        38.4519 
 248   0.0000       1.425325        38.7851 
 249   0.0000       1.426252        38.8103 
 250   0.0000       1.445476        39.3334 
 251   0.0000       1.456562        39.6351 
 252   0.0000       1.462117        39.7862 
 253   0.0000       1.472647        40.0728 
 254   0.0000       1.476005        40.1641 
 255   0.0000       1.476499        40.1776 
 256   0.0000       1.486931        40.4615 
[...]
  Z           0.8638252            0.0856915            0.4964503

Notes:  (1) The A matrix conforms to the "SAI" spin Hamiltonian convention.
        (2) Tensor is right-handed.

 -----------------------------------------------------------
 Nucleus  43H : A:ISTP=    1 I=  0.5 P=533.5514 MHz/au**3
                Q:ISTP=    2 I=  1.0 Q=  0.0029 barn     
 -----------------------------------------------------------
 Solving for nuclear perturbation:
Forming RHS of the CP-SCF equations         ... 
Calc. nucleus orbit integrals (SHARK)       ... done

------------------------------------------------------------------------------
                           ORCA CP-SCF CALCULATION
------------------------------------------------------------------------------

Input orbitals are from        ... cc-pVDZ_i.gbw
Input Perturbation             ... cc-pVDZ_i.pin.tmp
Wavefunction output            ... cc-pVDZ_i.pout.tmp
Perturbation mode              ... Imaginary perturbation
Solver                         ... POPLE
Max. number of iterations      ... 64
Convergence tolerance          ... 1.000e-03
Integral handling              ... Direct
DFT GridXC                     ... 1
COSX GridX                     ... 1
COSX IntAccX                   ... 3.067
COSX Algorithm                 ... Auto
Number of perturbations        ... 3
Number of operators            ... 2
Orbital ranges used for CP-SCF:
 Operator 0:  Orbitals   0... 70  to  71...400
 Operator 1:  Orbitals   0... 69  to  70...400
Variables per perturbation     ... 46600
DFT calculation                         ... on
XC functional terms                     ... off
Hybrid DFT                              ... on
   Exchange mixing (SCF)                ...  0.200
   Exchange mixing (CP-SCF)             ...  0.200
   GGA exch. scaling(SCF)               ...  0.720
   GGA exch. scaling (CP-SCF)           ...  0.720
   GGA corr. scaling (SCF)              ...  0.810
   GGA corr. scaling (CP-SCF)           ...  0.810

CP-SCF GRID
-----------

General Integration Accuracy     IntAcc      ... 3.467
Radial Grid Type                 RadialGrid  ... OptM3 with GC (2021)
Angular Grid (max. ang.)         AngularGrid ... 1 (Lebedev-50)
Angular grid pruning method      GridPruning ... 4 (adaptive)
Weight generation scheme         WeightScheme... Becke
Basis function cutoff            BFCut       ... 1.0000e-10
Integration weight cutoff        WCut        ... 1.0000e-14
Angular grids for H and He will be reduced by one unit
Partially contracted basis set               ... off
Rotationally invariant grid construction     ... off

Total number of grid points                  ...    27866
Total number of batches                      ...      455
Average number of points per batch           ...       61
Average number of grid points per atom       ...      606

CP-SCF GRIDX
------------

General Integration Accuracy     IntAcc      ... 3.067
Radial Grid Type                 RadialGrid  ... OptM3 with GC (2021)
Angular Grid (max. ang.)         AngularGrid ... 1 (Lebedev-50)
Angular grid pruning method      GridPruning ... 4 (adaptive)
Weight generation scheme         WeightScheme... Becke
Basis function cutoff            BFCut       ... 1.0000e-10
Integration weight cutoff        WCut        ... 1.0000e-14
Angular grids for H and He will be reduced by one unit
Partially contracted basis set               ... on
Rotationally invariant grid construction     ... off

Total number of grid points                  ...    13256
Total number of batches                      ...      234
Average number of points per batch           ...       56
Average number of grid points per atom       ...      288

Memory available               ... 896.0 MB
Memory needed per perturbation ...  10.1 MB
Perturbations treated per batch... 3
Number of batches              ... 1
     CP-SCF ITERATION   0:   1.0048e-01 (   1.4 sec   0/  3 done)
     CP-SCF ITERATION   1:   1.5302e-03 (   1.4 sec   2/  3 done)
     CP-SCF ITERATION   2:   8.0790e-05 (   0.9 sec   3/  3 done)
                    *** THE CP-SCF HAS CONVERGED ***

Forming final perturbed densities           ... done
Transforming perturbed density to AO basis  ... done

 Raw HFC matrix (all values in MHz): 
 -----------------------------------
                -0.0437              -0.0595               0.0021
                -0.0596               0.1097              -0.0061
                 0.0021              -0.0061              -0.0654

 A(FC)           0.0002               0.0002               0.0002
 A(SD)          -0.0643              -0.0658               0.1301
 A(ORB+DIA)      0.0000               0.0000               0.0000    A(PC) =   0.0000
 A(ORB)         -0.0000              -0.0000               0.0000    A(PC) =  -0.0000
 A(DIA)          0.0000               0.0000               0.0000    A(PC) =   0.0000
             ----------           ----------           ----------
 A(Tot)         -0.0641              -0.0656               0.1303    A(iso)=    0.0002
 Orientation: 
  X           0.9458777           -0.0183567            0.3240036
  Y           0.3244234            0.0287192           -0.9454759
  Z           0.0080507            0.9994190            0.0331202

Notes:  (1) The A matrix conforms to the "SAI" spin Hamiltonian convention.
        (2) Tensor is right-handed.

 -----------------------------------------------------------
 Nucleus  44H : A:ISTP=    1 I=  0.5 P=533.5514 MHz/au**3
                Q:ISTP=    2 I=  1.0 Q=  0.0029 barn     
 -----------------------------------------------------------
 Solving for nuclear perturbation:
Forming RHS of the CP-SCF equations         ... 
Calc. nucleus orbit integrals (SHARK)       ... done

------------------------------------------------------------------------------
                           ORCA CP-SCF CALCULATION
------------------------------------------------------------------------------

Input orbitals are from        ... cc-pVDZ_i.gbw
Input Perturbation             ... cc-pVDZ_i.pin.tmp
Wavefunction output            ... cc-pVDZ_i.pout.tmp
Perturbation mode              ... Imaginary perturbation
Solver                         ... POPLE
Max. number of iterations      ... 64
Convergence tolerance          ... 1.000e-03
Integral handling              ... Direct
DFT GridXC                     ... 1
COSX GridX                     ... 1
COSX IntAccX                   ... 3.067
COSX Algorithm                 ... Auto
Number of perturbations        ... 3
Number of operators            ... 2
Orbital ranges used for CP-SCF:
 Operator 0:  Orbitals   0... 70  to  71...400
 Operator 1:  Orbitals   0... 69  to  70...400
Variables per perturbation     ... 46600
DFT calculation                         ... on
XC functional terms                     ... off
Hybrid DFT                              ... on
   Exchange mixing (SCF)                ...  0.200
   Exchange mixing (CP-SCF)             ...  0.200
   GGA exch. scaling(SCF)               ...  0.720
   GGA exch. scaling (CP-SCF)           ...  0.720
   GGA corr. scaling (SCF)              ...  0.810
   GGA corr. scaling (CP-SCF)           ...  0.810

CP-SCF GRID
-----------

General Integration Accuracy     IntAcc      ... 3.467
Radial Grid Type                 RadialGrid  ... OptM3 with GC (2021)
Angular Grid (max. ang.)         AngularGrid ... 1 (Lebedev-50)
Angular grid pruning method      GridPruning ... 4 (adaptive)
Weight generation scheme         WeightScheme... Becke
Basis function cutoff            BFCut       ... 1.0000e-10
Integration weight cutoff        WCut        ... 1.0000e-14
Angular grids for H and He will be reduced by one unit
Partially contracted basis set               ... off
Rotationally invariant grid construction     ... off

Total number of grid points                  ...    27866
Total number of batches                      ...      455
Average number of points per batch           ...       61
Average number of grid points per atom       ...      606

CP-SCF GRIDX
------------

General Integration Accuracy     IntAcc      ... 3.067
Radial Grid Type                 RadialGrid  ... OptM3 with GC (2021)
Angular Grid (max. ang.)         AngularGrid ... 1 (Lebedev-50)
Angular grid pruning method      GridPruning ... 4 (adaptive)
Weight generation scheme         WeightScheme... Becke
Basis function cutoff            BFCut       ... 1.0000e-10
Integration weight cutoff        WCut        ... 1.0000e-14
Angular grids for H and He will be reduced by one unit
Partially contracted basis set               ... on
Rotationally invariant grid construction     ... off

Total number of grid points                  ...    13256
Total number of batches                      ...      234
Average number of points per batch           ...       56
Average number of grid points per atom       ...      288

Memory available               ... 895.6 MB
Memory needed per perturbation ...  10.1 MB
Perturbations treated per batch... 3
Number of batches              ... 1
     CP-SCF ITERATION   0:   3.6531e-02 (   1.4 sec   0/  3 done)
     CP-SCF ITERATION   1:   5.7377e-04 (   1.4 sec   3/  3 done)
                    *** THE CP-SCF HAS CONVERGED ***

Forming final perturbed densities           ... done
Transforming perturbed density to AO basis  ... done

 Raw HFC matrix (all values in MHz): 
 -----------------------------------
                -0.0130               0.0081              -0.0002
                 0.0081               0.0277              -0.0008
                -0.0002              -0.0008              -0.0146

 A(FC)           0.0000               0.0000               0.0000
 A(SD)          -0.0146              -0.0146               0.0292
 A(ORB+DIA)      0.0000               0.0000               0.0000    A(PC) =   0.0000
 A(ORB)         -0.0000              -0.0000               0.0000    A(PC) =  -0.0000
 A(DIA)          0.0000               0.0000               0.0000    A(PC) =   0.0000
             ----------           ----------           ----------
 A(Tot)         -0.0146              -0.0146               0.0292    A(iso)=    0.0000
 Orientation: 
  X           0.9817610           -0.0168736           -0.1893690
  Y          -0.1889675            0.0228694           -0.9817170
  Z           0.0208959            0.9995961            0.0192637

Notes:  (1) The A matrix conforms to the "SAI" spin Hamiltonian convention.
        (2) Tensor is right-handed.

 -----------------------------------------------------------
 Nucleus  45H : A:ISTP=    1 I=  0.5 P=533.5514 MHz/au**3
                Q:ISTP=    2 I=  1.0 Q=  0.0029 barn     
 -----------------------------------------------------------
 Solving for nuclear perturbation:
Forming RHS of the CP-SCF equations         ... 
Calc. nucleus orbit integrals (SHARK)       ... done

------------------------------------------------------------------------------
                           ORCA CP-SCF CALCULATION
------------------------------------------------------------------------------

Input orbitals are from        ... cc-pVDZ_i.gbw
Input Perturbation             ... cc-pVDZ_i.pin.tmp
Wavefunction output            ... cc-pVDZ_i.pout.tmp
Perturbation mode              ... Imaginary perturbation
Solver                         ... POPLE
Max. number of iterations      ... 64
Convergence tolerance          ... 1.000e-03
Integral handling              ... Direct
DFT GridXC                     ... 1
COSX GridX                     ... 1
COSX IntAccX                   ... 3.067
COSX Algorithm                 ... Auto
Number of perturbations        ... 3
Number of operators            ... 2
Orbital ranges used for CP-SCF:
 Operator 0:  Orbitals   0... 70  to  71...400
 Operator 1:  Orbitals   0... 69  to  70...400
Variables per perturbation     ... 46600
DFT calculation                         ... on
XC functional terms                     ... off
Hybrid DFT                              ... on
   Exchange mixing (SCF)                ...  0.200
   Exchange mixing (CP-SCF)             ...  0.200
   GGA exch. scaling(SCF)               ...  0.720
   GGA exch. scaling (CP-SCF)           ...  0.720
   GGA corr. scaling (SCF)              ...  0.810
   GGA corr. scaling (CP-SCF)           ...  0.810

CP-SCF GRID
-----------

General Integration Accuracy     IntAcc      ... 3.467
Radial Grid Type                 RadialGrid  ... OptM3 with GC (2021)
Angular Grid (max. ang.)         AngularGrid ... 1 (Lebedev-50)
Angular grid pruning method      GridPruning ... 4 (adaptive)
Weight generation scheme         WeightScheme... Becke
Basis function cutoff            BFCut       ... 1.0000e-10
Integration weight cutoff        WCut        ... 1.0000e-14
Angular grids for H and He will be reduced by one unit
Partially contracted basis set               ... off
Rotationally invariant grid construction     ... off

Total number of grid points                  ...    27866
Total number of batches                      ...      455
Average number of points per batch           ...       61
Average number of grid points per atom       ...      606

CP-SCF GRIDX
------------

General Integration Accuracy     IntAcc      ... 3.067
Radial Grid Type                 RadialGrid  ... OptM3 with GC (2021)
Angular Grid (max. ang.)         AngularGrid ... 1 (Lebedev-50)
Angular grid pruning method      GridPruning ... 4 (adaptive)
Weight generation scheme         WeightScheme... Becke
Basis function cutoff            BFCut       ... 1.0000e-10
Integration weight cutoff        WCut        ... 1.0000e-14
Angular grids for H and He will be reduced by one unit
Partially contracted basis set               ... on
Rotationally invariant grid construction     ... off

Total number of grid points                  ...    13256
Total number of batches                      ...      234
Average number of points per batch           ...       56
Average number of grid points per atom       ...      288

Memory available               ... 895.2 MB
Memory needed per perturbation ...  10.1 MB
Perturbations treated per batch... 3
Number of batches              ... 1
     CP-SCF ITERATION   0:   4.2807e-02 (   1.4 sec   0/  3 done)
     CP-SCF ITERATION   1:   1.6700e-03 (   1.5 sec   2/  3 done)
     CP-SCF ITERATION   2:   7.5156e-05 (   1.0 sec   3/  3 done)
                    *** THE CP-SCF HAS CONVERGED ***

Forming final perturbed densities           ... done
Transforming perturbed density to AO basis  ... done

 Raw HFC matrix (all values in MHz): 
 -----------------------------------
                -0.0327               0.0694              -0.0013
                 0.0694               0.0964              -0.0030
                -0.0013              -0.0030              -0.0644

 A(FC)          -0.0003              -0.0003              -0.0003
 A(SD)          -0.0627              -0.0642               0.1269
 A(ORB+DIA)      0.0000               0.0000               0.0000    A(PC) =   0.0000
 A(ORB)         -0.0000              -0.0000               0.0000    A(PC) =  -0.0000
 A(DIA)          0.0000               0.0000               0.0000    A(PC) =   0.0000
             ----------           ----------           ----------
 A(Tot)         -0.0629              -0.0644               0.1267    A(iso)=   -0.0002
 Orientation: 
  X           0.9166875           -0.0181370           -0.3991930
  Y          -0.3986758            0.0265674           -0.9167070
  Z           0.0272318            0.9994825            0.0171232

Notes:  (1) The A matrix conforms to the "SAI" spin Hamiltonian convention.
        (2) Tensor is right-handed.


--------------------------------------------------------------------------------
----------------------------------------------------------------------------
                           ORCA EULER ANGLE PROGRAM
----------------------------------------------------------------------------

Only g-tensor available        -->  using g-tensor as reference tensor

Reference tensor               ...  g

g-tensor ordering              ...  |g_min> --> |gx>
                                    |g_mid> --> |gy>
                                    |g_max> --> |gz>

A- and EFG-tensor ordering     ...  the axes |Ax>, |Qx>, |Ay>, etc. are assigned
                                    such that the Euler rotation is minimal. You
                                    can find the respective eigenvalues as Ax,
                                    EFGx, Ay, etc. in the tables below.
                                    The relation of |Ax>, |Ay>,  etc. to Amin, Amid, etc.
                                    (as printed in the ORCA EPR/NMR CALCULATION Output)
                                    is obtained in the detailed printout.

Euler rotation around          ...  z - y - z
   First rotation              -->  by alpha around z
   Second rotation             -->  by beta around y'
   Third rotation              -->  by gamma around z''
   Positive / Negative angle   -->  clockwise / counterclockwise rotation

Plot EFG-tensors                    (-)
Plot HFC-tensors                    (-)
Detailed Printout                   (-)

-------------------------------------------------------------------------
          Euler rotation of hyperfine tensor to g-tensor
-------------------------------------------------------------------------

-------------------------------------------------------------------
 Atom  |   Alpha    Beta    Gamma   |   Ax       Ay       Az 
       |          [degrees]         |           [MHz]         
-------------------------------------------------------------------
  7H     -102.9      0.9     71.0      -0.04     0.10    -0.04
  8H      -80.2      0.9     68.8      -0.14     0.28    -0.15
 10H       33.2      5.4    -49.2      -0.04     0.07    -0.04
 11H     -134.9      7.0    118.8      -0.04     0.07    -0.04
 13H       34.7      5.2    -60.9      -0.03     0.06    -0.03
 14H     -128.6      5.7    102.3      -0.03     0.06    -0.03
 16H     -142.3      6.7    123.7      -0.02     0.04    -0.02
 17H       25.6      5.7    -44.2      -0.02     0.04    -0.02
 19H     -112.2      4.1     85.1      -0.02     0.03    -0.02
 20H       69.2      2.6    -96.2      -0.02     0.03    -0.02
 22H      -16.7     34.2    -26.1      -0.19     0.38    -0.23
 23H      166.7     34.0    151.1      -0.19     0.38    -0.23
 25H       16.7     42.0    -26.9      -0.35     0.58    -0.47
 26H     -160.5     42.2    151.0      -0.35     0.58    -0.47
 28H       61.6     33.6    -20.6       1.51    -0.37    -0.60
 29H     -115.0     34.1    156.5       1.52    -0.36    -0.60
 31H     -153.0     43.9    156.7      -1.29     1.85    -2.17
 32H       24.2     43.2    -21.3      -1.29     1.85    -2.16
 34H     -137.3     41.4    160.2       4.17    -5.52    -8.95
 35H       39.7     40.6    -17.5       4.16    -5.53    -8.95
 37H      140.4     36.1   -135.3      24.06    37.95    23.63
 38H      -42.1     37.6     46.7      23.85    37.73    23.41
 40H      -96.1     31.8    101.7     -59.02   -96.09   -17.94
 41H       82.9     29.7    -77.5     -59.01   -96.09   -17.94
 43H      -33.0      1.0     70.1       0.13    -0.06    -0.07
 44H     -106.3      0.7     83.2      -0.01     0.03    -0.01
 45H      -83.3      0.9     72.8      -0.06     0.13    -0.06
-------------------------------------------------------------------


Maximum memory used throughout the entire EPRNMR-calculation: 181.9 MB

Timings for individual modules:

Sum of individual times         ...     3322.899 sec (=  55.382 min)
GTO integral calculation        ...        4.431 sec (=   0.074 min)   0.1 %
Spin-Orbit-Coupling Matrices    ...        7.399 sec (=   0.123 min)   0.2 %
SCF iterations                  ...       59.672 sec (=   0.995 min)   1.8 %
EPR/NMR calculation             ...     3251.396 sec (=  54.190 min)  97.8 %
                             ****ORCA TERMINATED NORMALLY****
TOTAL RUN TIME: 0 days 0 hours 55 minutes 26 seconds 844 msec
