
                                 *****************
                                 * O   R   C   A *
                                 *****************

                                            #,                                       
                                            ###                                      
                                            ####                                     
                                            #####                                    
                                            ######                                   
                                           ########,                                 
                                     ,,################,,,,,                         
                               ,,#################################,,                 
                          ,,##########################################,,             
                       ,#########################################, ''#####,          
                    ,#############################################,,   '####,        
                  ,##################################################,,,,####,       
                ,###########''''           ''''###############################       
              ,#####''   ,,,,##########,,,,          '''####'''          '####       
            ,##' ,,,,###########################,,,                        '##       
           ' ,,###''''                  '''############,,,                           
         ,,##''                                '''############,,,,        ,,,,,,###''
      ,#''                                            '''#######################'''  
     '                                                          ''''####''''         
             ,#######,   #######,   ,#######,      ##                                
            ,#'     '#,  ##    ##  ,#'     '#,    #''#        ######   ,####,        
            ##       ##  ##   ,#'  ##            #'  '#       #        #'  '#        
            ##       ##  #######   ##           ,######,      #####,   #    #        
            '#,     ,#'  ##    ##  '#,     ,#' ,#      #,         ##   #,  ,#        
             '#######'   ##     ##  '#######'  #'      '#     #####' # '####'        



                  #######################################################
                  #                        -***-                        #
                  #          Department of theory and spectroscopy      #
                  #    Directorship and core code : Frank Neese         #
                  #        Max Planck Institute fuer Kohlenforschung    #
                  #                Kaiser Wilhelm Platz 1               #
                  #                 D-45470 Muelheim/Ruhr               #
                  #                      Germany                        #
                  #                                                     #
                  #                  All rights reserved                #
                  #                        -***-                        #
                  #######################################################


                         Program Version 5.0.4 -  RELEASE  -


 With contributions from (in alphabetic order):
   Daniel Aravena         : Magnetic Suceptibility
   Michael Atanasov       : Ab Initio Ligand Field Theory (pilot matlab implementation)
   Alexander A. Auer      : GIAO ZORA, VPT2 properties, NMR spectrum
   Ute Becker             : Parallelization
   Giovanni Bistoni       : ED, misc. LED, open-shell LED, HFLD
   Martin Brehm           : Molecular dynamics
   Dmytro Bykov           : SCF Hessian
   Vijay G. Chilkuri      : MRCI spin determinant printing, contributions to CSF-ICE
   Dipayan Datta          : RHF DLPNO-CCSD density
   Achintya Kumar Dutta   : EOM-CC, STEOM-CC
   Dmitry Ganyushin       : Spin-Orbit,Spin-Spin,Magnetic field MRCI
   Miquel Garcia          : C-PCM and meta-GGA Hessian, CC/C-PCM, Gaussian charge scheme
   Yang Guo               : DLPNO-NEVPT2, F12-NEVPT2, CIM, IAO-localization
   Andreas Hansen         : Spin unrestricted coupled pair/coupled cluster methods
   Benjamin Helmich-Paris : MC-RPA, TRAH-SCF, COSX integrals
   Lee Huntington         : MR-EOM, pCC
   Robert Izsak           : Overlap fitted RIJCOSX, COSX-SCS-MP3, EOM
   Marcus Kettner         : VPT2
   Christian Kollmar      : KDIIS, OOCD, Brueckner-CCSD(T), CCSD density, CASPT2, CASPT2-K
   Simone Kossmann        : Meta GGA functionals, TD-DFT gradient, OOMP2, MP2 Hessian
   Martin Krupicka        : Initial AUTO-CI
   Lucas Lang             : DCDCAS
   Marvin Lechner         : AUTO-CI (C++ implementation), FIC-MRCC
   Dagmar Lenk            : GEPOL surface, SMD
   Dimitrios Liakos       : Extrapolation schemes; Compound Job, initial MDCI parallelization
   Dimitrios Manganas     : Further ROCIS development; embedding schemes
   Dimitrios Pantazis     : SARC Basis sets
   Anastasios Papadopoulos: AUTO-CI, single reference methods and gradients
   Taras Petrenko         : DFT Hessian,TD-DFT gradient, ASA, ECA, R-Raman, ABS, FL, XAS/XES, NRVS
   Peter Pinski           : DLPNO-MP2, DLPNO-MP2 Gradient
   Christoph Reimann      : Effective Core Potentials
   Marius Retegan         : Local ZFS, SOC
   Christoph Riplinger    : Optimizer, TS searches, QM/MM, DLPNO-CCSD(T), (RO)-DLPNO pert. Triples
   Tobias Risthaus        : Range-separated hybrids, TD-DFT gradient, RPA, STAB
   Michael Roemelt        : Original ROCIS implementation
   Masaaki Saitow         : Open-shell DLPNO-CCSD energy and density
   Barbara Sandhoefer     : DKH picture change effects
   Avijit Sen             : IP-ROCIS
   Kantharuban Sivalingam : CASSCF convergence, NEVPT2, FIC-MRCI
   Bernardo de Souza      : ESD, SOC TD-DFT
   Georgi Stoychev        : AutoAux, RI-MP2 NMR, DLPNO-MP2 response
   Willem Van den Heuvel  : Paramagnetic NMR
   Boris Wezisla          : Elementary symmetry handling
   Frank Wennmohs         : Technical directorship


 We gratefully acknowledge several colleagues who have allowed us to
 interface, adapt or use parts of their codes:
   Stefan Grimme, W. Hujo, H. Kruse, P. Pracht,  : VdW corrections, initial TS optimization,
                  C. Bannwarth, S. Ehlert          DFT functionals, gCP, sTDA/sTD-DF
   Ed Valeev, F. Pavosevic, A. Kumar             : LibInt (2-el integral package), F12 methods
   Garnet Chan, S. Sharma, J. Yang, R. Olivares  : DMRG
   Ulf Ekstrom                                   : XCFun DFT Library
   Mihaly Kallay                                 : mrcc  (arbitrary order and MRCC methods)
   Jiri Pittner, Ondrej Demel                    : Mk-CCSD
   Frank Weinhold                                : gennbo (NPA and NBO analysis)
   Christopher J. Cramer and Donald G. Truhlar   : smd solvation model
   Lars Goerigk                                  : TD-DFT with DH, B97 family of functionals
   V. Asgeirsson, H. Jonsson                     : NEB implementation
   FAccTs GmbH                                   : IRC, NEB, NEB-TS, DLPNO-Multilevel, CI-OPT
                                                   MM, QMMM, 2- and 3-layer-ONIOM, Crystal-QMMM,
                                                   LR-CPCM, SF, NACMEs, symmetry and pop. for TD-DFT,
                                                   nearIR, NL-DFT gradient (VV10), updates on ESD,
                                                   ML-optimized integration grids
   S Lehtola, MJT Oliveira, MAL Marques          : LibXC Library
   Liviu Ungur et al                             : ANISO software


 Your calculation uses the libint2 library for the computation of 2-el integrals
 For citations please refer to: http://libint.valeyev.net

 Your ORCA version has been built with support for libXC version: 5.1.0
 For citations please refer to: https://tddft.org/programs/libxc/

 This ORCA versions uses:
   CBLAS   interface :  Fast vector & matrix operations
   LAPACKE interface :  Fast linear algebra routines
   SCALAPACK package :  Parallel linear algebra routines
   Shared memory     :  Shared parallel matrices
   BLAS/LAPACK       :  OpenBLAS 0.3.15  USE64BITINT DYNAMIC_ARCH NO_AFFINITY SkylakeX SINGLE_THREADED
        Core in use  :  SkylakeX
   Copyright (c) 2011-2014, The OpenBLAS Project




***************************************
The coordinates will be read from file: opt_cc-pVDZ.xyz
***************************************


================================================================================

----- Orbital basis set information -----
Your calculation utilizes the basis: cc-pVDZ 
       H, B-Ne : Obtained from the ccRepo (grant-hill.group.shef.ac.uk/ccrepo) Feb. 2017
                 T. H. Dunning, Jr., J. Chem. Phys. 90, 1007 (1989)
            He : Obtained from the ccRepo (grant-hill.group.shef.ac.uk/ccrepo) Feb. 2017
                 D. E. Woon, T. H. Dunning, Jr., J. Chem. Phys. 100, 2975 (1994)
  Li-Be, Na-Mg : Obtained from the ccRepo (grant-hill.group.shef.ac.uk/ccrepo) Feb. 2017
                 B. P. Prascher, D. E. Woon, K. A. Peterson, T. H. Dunning, Jr., A. K. Wilson, Theor. Chem. Acc. 128, 69 (2011)
         Al-Ar : Obtained from the ccRepo (grant-hill.group.shef.ac.uk/ccrepo) Feb. 2017
                 D. E. Woon, T. H. Dunning, Jr., J. Chem. Phys. 98, 1358 (1993)
            Ca : Obtained from the Peterson Research Group Website (tyr0.chem.wsu.edu/~kipeters) Feb. 2017
                 J. Koput, K. A. Peterson, J. Phys. Chem. 106, 9595 (2002)
         Sc-Zn : Obtained from the ccRepo (grant-hill.group.shef.ac.uk/ccrepo) Feb. 2017
                 N. B. Balabanov, K. A. Peterson, J. Chem. Phys. 123, 064107 (2005)
                 N. B. Balabanov, K. A. Peterson, J. Chem. Phys. 125, 074110 (2006)
         Ga-Kr : Obtained from the ccRepo (grant-hill.group.shef.ac.uk/ccrepo) Feb. 2017
                 A. K. Wilson, D. E. Woon, K. A. Peterson, T. H. Dunning, Jr., J. Chem. Phys. 110, 7667 (1999)

----- AuxJ basis set information -----
Your calculation utilizes the AutoAux generation procedure.
  G. L. Stoychev, A. A. Auer, F. Neese, J. Chem. Theory Comput. 13, 554 (2017)

----- AuxC basis set information -----
Your calculation utilizes the AutoAux generation procedure.
  G. L. Stoychev, A. A. Auer, F. Neese, J. Chem. Theory Comput. 13, 554 (2017)

----- AuxJK basis set information -----
Your calculation utilizes the AutoAux generation procedure.
  G. L. Stoychev, A. A. Auer, F. Neese, J. Chem. Theory Comput. 13, 554 (2017)

================================================================================
                                        WARNINGS
                       Please study these warnings very carefully!
================================================================================

WARNING: Old DensityContainer found on disk!
         Will remove this file - 
         If you want to keep old densities, please start your calculation with a different basename. 


WARNING: your system is open-shell and RHF/RKS was chosen
  ===> : WILL SWITCH to UHF/UKS


INFO   : the flag for use of the SHARK integral package has been found!

================================================================================
                                       INPUT FILE
================================================================================
NAME = cc-pVDZ_i.inp
|  1> ! B3LYP cc-pVDZ AUTOAUX
|  2> %pal nprocs 16 end
|  3> *XYZFile 0 2 opt_cc-pVDZ.xyz
|  4> %EPRNMR
|  5>         GTENSOR   TRUE
|  6>         NUCLEI    = ALL H {SHIFT, AISO, ADIP, AORB}
|  7>         ORI       GIAO
|  8> END
|  9> 
| 10>                          ****END OF INPUT****
================================================================================

                       ****************************
                       * Single Point Calculation *
                       ****************************

---------------------------------
CARTESIAN COORDINATES (ANGSTROEM)
---------------------------------
  C      4.260858   -0.079059   -0.044003
  C      0.045450   -0.014090   -0.134842
  C      0.704771   -1.253031   -0.086291
  C      2.101954   -1.235180   -0.057796
  C      2.827944   -0.025995   -0.076106
  C      2.154189    1.220083   -0.124789
  C      0.753308    1.188798   -0.153319
  H      2.668497   -2.165912   -0.020459
  H      0.193918    2.124593   -0.191201
  C     -0.111958   -2.534895   -0.065106
  H     -0.785744   -2.530067   -0.942454
  H     -0.783440   -2.503205    0.813682
  C      0.667159   -3.852682   -0.045539
  H      1.334359   -3.904332   -0.925707
  H      1.325797   -3.884054    0.841939
  C     -0.246306   -5.084114   -0.034816
  H     -0.917017   -5.032681    0.843142
  H     -0.906655   -5.055516   -0.921607
  C      0.525018   -6.406223   -0.013061
  H      1.167844   -6.480056    0.881113
  H      1.178165   -6.503305   -0.897466
  C      2.952249    2.510065   -0.143621
  H      3.610531    2.523573    0.744656
  H      3.648581    2.474855   -1.001696
  C      2.153089    3.815066   -0.196858
  H      1.507145    3.823673   -1.094046
  H      1.473378    3.874270    0.673093
  C      3.051924    5.057517   -0.215562
  H      3.705029    5.049994    0.677487
  H      3.731779    5.004054   -1.086825
  C      2.270280    6.375265   -0.261870
  H      1.591532    6.428197    0.610746
  H      1.615679    6.380969   -1.154296
  C      3.165182    7.619488   -0.283178
  H      3.840345    7.577562   -1.157596
  H      3.818996    7.623060    0.608287
  C      2.361207    8.944210   -0.327269
  H      1.709407    8.920675   -1.220825
  H      1.689330    8.967401    0.551250
  C      3.214261   10.168439   -0.350108
  H      3.592496   10.605925    0.578245
  H      3.615223   10.555065   -1.291427
  C      5.475459   -0.132927   -0.017936
  H      6.546452   -0.180592    0.006458
  H     -0.156964   -7.271987   -0.005648
  H     -1.048305    0.010962   -0.158875

----------------------------
CARTESIAN COORDINATES (A.U.)
----------------------------
  NO LB      ZA    FRAG     MASS         X           Y           Z
   0 C     6.0000    0    12.011    8.051854   -0.149400   -0.083153
   1 C     6.0000    0    12.011    0.085888   -0.026627   -0.254814
   2 C     6.0000    0    12.011    1.331824   -2.367885   -0.163067
   3 C     6.0000    0    12.011    3.972117   -2.334153   -0.109218
   4 C     6.0000    0    12.011    5.344039   -0.049124   -0.143819
   5 C     6.0000    0    12.011    4.070827    2.305623   -0.235817
   6 C     6.0000    0    12.011    1.423546    2.246503   -0.289730
   7 H     1.0000    0     1.008    5.042729   -4.092981   -0.038662
   8 H     1.0000    0     1.008    0.366453    4.014898   -0.361317
   9 C     6.0000    0    12.011   -0.211571   -4.790258   -0.123033
  10 H     1.0000    0     1.008   -1.484842   -4.781134   -1.780979
  11 H     1.0000    0     1.008   -1.480486   -4.730372    1.537637
  12 C     6.0000    0    12.011    1.260748   -7.280513   -0.086056
  13 H     1.0000    0     1.008    2.521573   -7.378118   -1.749334
  14 H     1.0000    0     1.008    2.505393   -7.339799    1.591033
  15 C     6.0000    0    12.011   -0.465451   -9.607584   -0.065792
  16 H     1.0000    0     1.008   -1.732912   -9.510388    1.593307
  17 H     1.0000    0     1.008   -1.713330   -9.553541   -1.741585
  18 C     6.0000    0    12.011    0.992140  -12.106007   -0.024683
  19 H     1.0000    0     1.008    2.206905  -12.245531    1.665062
  20 H     1.0000    0     1.008    2.226410  -12.289465   -1.695965
  21 C     6.0000    0    12.011    5.578942    4.743336   -0.271404
  22 H     1.0000    0     1.008    6.822915    4.768862    1.407195
  23 H     1.0000    0     1.008    6.894820    4.676799   -1.892931
  24 C     6.0000    0    12.011    4.068748    7.209430   -0.372008
  25 H     1.0000    0     1.008    2.848092    7.225694   -2.067448
  26 H     1.0000    0     1.008    2.784280    7.321309    1.271961
  27 C     6.0000    0    12.011    5.767300    9.557322   -0.407354
  28 H     1.0000    0     1.008    7.001491    9.543105    1.280265
  29 H     1.0000    0     1.008    7.052041    9.456292   -2.053802
  30 C     6.0000    0    12.011    4.290207   12.047505   -0.494862
  31 H     1.0000    0     1.008    3.007559   12.147531    1.154142
  32 H     1.0000    0     1.008    3.053191   12.058284   -2.181304
  33 C     6.0000    0    12.011    5.981326   14.398746   -0.535128
  34 H     1.0000    0     1.008    7.257200   14.319518   -2.187540
  35 H     1.0000    0     1.008    7.216856   14.405496    1.149495
  36 C     6.0000    0    12.011    4.462035   16.902107   -0.618449
  37 H     1.0000    0     1.008    3.230310   16.857632   -2.307026
  38 H     1.0000    0     1.008    3.192371   16.945932    1.041712
  39 C     6.0000    0    12.011    6.074074   19.215564   -0.661608
  40 H     1.0000    0     1.008    6.788834   20.042294    1.092724
  41 H     1.0000    0     1.008    6.831782   19.946182   -2.440444
  42 C     6.0000    0    12.011   10.347118   -0.251197   -0.033895
  43 H     1.0000    0     1.008   12.371001   -0.341269    0.012205
  44 H     1.0000    0     1.008   -0.296619  -13.742064   -0.010674
  45 H     1.0000    0     1.008   -1.981010    0.020715   -0.300230

--------------------------------
INTERNAL COORDINATES (ANGSTROEM)
--------------------------------
 C      0   0   0     0.000000000000     0.00000000     0.00000000
 C      1   0   0     4.216886946045     0.00000000     0.00000000
 C      2   1   0     1.404291531551    61.07416861     0.00000000
 C      3   2   1     1.397587342993   117.31001597   359.97639140
 C      4   3   2     1.410505596039   121.68424912     0.03109556
 C      5   4   3     1.417401409721   120.62626657     0.00000000
 C      2   1   3     1.395831319551    60.43682442   179.99087668
 H      4   3   2     1.090241841547   120.61677633   180.03750678
 H      7   2   1     1.090900517362   118.66334412   179.99627892
 C      3   2   1     1.520089653150   119.48594383   179.88719686
 H     10   3   2     1.106231895230   108.21116833    55.27138093
 H     10   3   2     1.106417914889   108.23983911   301.89419807
 C     10   3   2     1.531002180283   116.91039242   178.59136700
 H     13  10   3     1.105676276706   109.70127536   302.29184799
 H     13  10   3     1.105624019439   109.74527456    58.55314262
 C     13  10   3     1.533283930179   112.84238519   180.39750044
 H     16  13  10     1.106033052287   109.23707348   302.41169761
 H     16  13  10     1.106018624371   109.22771012    57.76191422
 C     16  13  10     1.530811687140   113.17597271   180.08835129
 H     19  16  13     1.103732097801   111.26880915    59.84523047
 H     19  16  13     1.103719961123   111.26931563   300.14944410
 C      6   5   4     1.517006921708   119.86269377   179.99097063
 H     22   6   5     1.105691238740   108.27745537   303.62601537
 H     22   6   5     1.105626959626   108.29323986    56.28751996
 C     22   6   5     1.531181614880   116.78196806   179.98839135
 H     25  22   6     1.105560159940   109.86434020   301.90829703
 H     25  22   6     1.105589053736   109.82556226    58.36529942
 C     25  22   6     1.533603258439   112.64414425   180.13496783
 H     28  25  22     1.106408654752   109.30605188   302.59676953
 H     28  25  22     1.106417969549   109.30465283    57.98322939
 C     28  25  22     1.532831283796   113.45148450   180.28348934
 H     31  28  25     1.106778234222   109.27000389    57.78675185
 H     31  28  25     1.106779140312   109.29237343   302.41233417
 C     31  28  25     1.532773142941   113.61203199   180.10184952
 H     34  31  28     1.105536599917   109.68029237    58.16976369
 H     34  31  28     1.105529034738   109.67600218   302.06426363
 C     34  31  28     1.550227972564   113.03342153   180.10882303
 H     37  34  31     1.106273448717   108.08061925   302.61016947
 H     37  34  31     1.106233443830   108.07803396    57.50123908
 C     37  34  31     1.492299931336   113.89129600   180.06458804
 H     40  37  34     1.093752247095   120.85216694   275.07089663
 H     40  37  34     1.093769867420   120.84442750    84.79401635
 C      1   2   3     1.216074775027   178.34389730     1.77566418
 H     43   1   5     1.072330497013   179.92415773   269.26139244
 H     19  16  13     1.102135149388   111.51530939   179.99403574
 H      2   1   3     1.094306083323   179.57028509   181.63381856

---------------------------
INTERNAL COORDINATES (A.U.)
---------------------------
 C      0   0   0     0.000000000000     0.00000000     0.00000000
 C      1   0   0     7.968761465732     0.00000000     0.00000000
 C      2   1   0     2.653726406816    61.07416861     0.00000000
 C      3   2   1     2.641057326492   117.31001597   359.97639140
 C      4   3   2     2.665469286876   121.68424912     0.03109556
 C      5   4   3     2.678500486206   120.62626657     0.00000000
 C      2   1   3     2.637738923102    60.43682442   179.99087668
 H      4   3   2     2.060258500265   120.61677633   180.03750678
 H      7   2   1     2.061503217167   118.66334412   179.99627892
 C      3   2   1     2.872553143461   119.48594383   179.88719686
 H     10   3   2     2.090475322594   108.21116833    55.27138093
 H     10   3   2     2.090826848805   108.23983911   301.89419807
 C     10   3   2     2.893174831172   116.91039242   178.59136700
 H     13  10   3     2.089425355747   109.70127536   302.29184799
 H     13  10   3     2.089326603825   109.74527456    58.55314262
 C     13  10   3     2.897486713580   112.84238519   180.39750044
 H     16  13  10     2.090099563887   109.23707348   302.41169761
 H     16  13  10     2.090072299078   109.22771012    57.76191422
 C     16  13  10     2.892814851300   113.17597271   180.08835129
 H     19  16  13     2.085751390063   111.26880915    59.84523047
 H     19  16  13     2.085728455065   111.26931563   300.14944410
 C      6   5   4     2.866727625291   119.86269377   179.99097063
 H     22   6   5     2.089453629895   108.27745537   303.62601537
 H     22   6   5     2.089332159973   108.29323986    56.28751996
 C     22   6   5     2.893513913418   116.78196806   179.98839135
 H     25  22   6     2.089205926860   109.86434020   301.90829703
 H     25  22   6     2.089260528221   109.82556226    58.36529942
 C     25  22   6     2.898090156539   112.64414425   180.13496783
 H     28  25  22     2.090809349682   109.30605188   302.59676953
 H     28  25  22     2.090826952097   109.30465283    57.98322939
 C     28  25  22     2.896631335881   113.45148450   180.28348934
 H     31  28  25     2.091507753664   109.27000389    57.78675185
 H     31  28  25     2.091509465926   109.29237343   302.41233417
 C     31  28  25     2.896521465587   113.61203199   180.10184952
 H     34  31  28     2.089161404869   109.68029237    58.16976369
 H     34  31  28     2.089147108753   109.67600218   302.06426363
 C     34  31  28     2.929506313289   113.03342153   180.10882303
 H     37  34  31     2.090553847304   108.08061925   302.61016947
 H     37  34  31     2.090478249024   108.07803396    57.50123908
 C     37  34  31     2.820038179894   113.89129600   180.06458804
 H     40  37  34     2.066892205370   120.85216694   275.07089663
 H     40  37  34     2.066925502959   120.84442750    84.79401635
 C      1   2   3     2.298048283171   178.34389730     1.77566418
 H     43   1   5     2.026410964407   179.92415773   269.26139244
 H     19  16  13     2.082733594911   111.51530939   179.99403574
 H      2   1   3     2.067938804164   179.57028509   181.63381856

---------------------
BASIS SET INFORMATION
---------------------
There are 2 groups of distinct atoms

 Group   1 Type C   : 17s4p1d contracted to 3s2p1d pattern {881/31/1}
 Group   2 Type H   : 4s1p contracted to 2s1p pattern {31/1}

Atom   0C    basis set group =>   1
Atom   1C    basis set group =>   1
Atom   2C    basis set group =>   1
Atom   3C    basis set group =>   1
Atom   4C    basis set group =>   1
Atom   5C    basis set group =>   1
Atom   6C    basis set group =>   1
Atom   7H    basis set group =>   2
Atom   8H    basis set group =>   2
Atom   9C    basis set group =>   1
Atom  10H    basis set group =>   2
Atom  11H    basis set group =>   2
Atom  12C    basis set group =>   1
Atom  13H    basis set group =>   2
Atom  14H    basis set group =>   2
Atom  15C    basis set group =>   1
Atom  16H    basis set group =>   2
Atom  17H    basis set group =>   2
Atom  18C    basis set group =>   1
Atom  19H    basis set group =>   2
Atom  20H    basis set group =>   2
Atom  21C    basis set group =>   1
Atom  22H    basis set group =>   2
Atom  23H    basis set group =>   2
Atom  24C    basis set group =>   1
Atom  25H    basis set group =>   2
Atom  26H    basis set group =>   2
Atom  27C    basis set group =>   1
Atom  28H    basis set group =>   2
Atom  29H    basis set group =>   2
Atom  30C    basis set group =>   1
Atom  31H    basis set group =>   2
Atom  32H    basis set group =>   2
Atom  33C    basis set group =>   1
Atom  34H    basis set group =>   2
Atom  35H    basis set group =>   2
Atom  36C    basis set group =>   1
Atom  37H    basis set group =>   2
Atom  38H    basis set group =>   2
Atom  39C    basis set group =>   1
Atom  40H    basis set group =>   2
Atom  41H    basis set group =>   2
Atom  42C    basis set group =>   1
Atom  43H    basis set group =>   2
Atom  44H    basis set group =>   2
Atom  45H    basis set group =>   2
---------------------------------
AUXILIARY/J BASIS SET INFORMATION
---------------------------------
There are 2 groups of distinct atoms

 Group   1 Type C   : 14s11p10d2f contracted to 14s11p10d2f pattern {11111111111111/11111111111/1111111111/11}
 Group   2 Type H   : 9s2p1d contracted to 9s2p1d pattern {111111111/11/1}

Atom   0C    basis set group =>   1
Atom   1C    basis set group =>   1
Atom   2C    basis set group =>   1
Atom   3C    basis set group =>   1
Atom   4C    basis set group =>   1
Atom   5C    basis set group =>   1
Atom   6C    basis set group =>   1
Atom   7H    basis set group =>   2
Atom   8H    basis set group =>   2
Atom   9C    basis set group =>   1
Atom  10H    basis set group =>   2
Atom  11H    basis set group =>   2
Atom  12C    basis set group =>   1
Atom  13H    basis set group =>   2
Atom  14H    basis set group =>   2
Atom  15C    basis set group =>   1
Atom  16H    basis set group =>   2
Atom  17H    basis set group =>   2
Atom  18C    basis set group =>   1
Atom  19H    basis set group =>   2
Atom  20H    basis set group =>   2
Atom  21C    basis set group =>   1
Atom  22H    basis set group =>   2
Atom  23H    basis set group =>   2
Atom  24C    basis set group =>   1
Atom  25H    basis set group =>   2
Atom  26H    basis set group =>   2
Atom  27C    basis set group =>   1
Atom  28H    basis set group =>   2
Atom  29H    basis set group =>   2
Atom  30C    basis set group =>   1
Atom  31H    basis set group =>   2
Atom  32H    basis set group =>   2
Atom  33C    basis set group =>   1
Atom  34H    basis set group =>   2
Atom  35H    basis set group =>   2
Atom  36C    basis set group =>   1
Atom  37H    basis set group =>   2
Atom  38H    basis set group =>   2
Atom  39C    basis set group =>   1
Atom  40H    basis set group =>   2
Atom  41H    basis set group =>   2
Atom  42C    basis set group =>   1
Atom  43H    basis set group =>   2
Atom  44H    basis set group =>   2
Atom  45H    basis set group =>   2
---------------------------------
AUXILIARY/C BASIS SET INFORMATION
---------------------------------
There are 2 groups of distinct atoms

 Group   1 Type C   : 14s11p10d2f contracted to 14s11p10d2f pattern {11111111111111/11111111111/1111111111/11}
 Group   2 Type H   : 9s2p1d contracted to 9s2p1d pattern {111111111/11/1}

Atom   0C    basis set group =>   1
Atom   1C    basis set group =>   1
Atom   2C    basis set group =>   1
Atom   3C    basis set group =>   1
Atom   4C    basis set group =>   1
Atom   5C    basis set group =>   1
Atom   6C    basis set group =>   1
Atom   7H    basis set group =>   2
Atom   8H    basis set group =>   2
Atom   9C    basis set group =>   1
Atom  10H    basis set group =>   2
Atom  11H    basis set group =>   2
Atom  12C    basis set group =>   1
Atom  13H    basis set group =>   2
Atom  14H    basis set group =>   2
Atom  15C    basis set group =>   1
Atom  16H    basis set group =>   2
Atom  17H    basis set group =>   2
Atom  18C    basis set group =>   1
Atom  19H    basis set group =>   2
Atom  20H    basis set group =>   2
Atom  21C    basis set group =>   1
Atom  22H    basis set group =>   2
Atom  23H    basis set group =>   2
Atom  24C    basis set group =>   1
Atom  25H    basis set group =>   2
Atom  26H    basis set group =>   2
Atom  27C    basis set group =>   1
Atom  28H    basis set group =>   2
Atom  29H    basis set group =>   2
Atom  30C    basis set group =>   1
Atom  31H    basis set group =>   2
Atom  32H    basis set group =>   2
Atom  33C    basis set group =>   1
Atom  34H    basis set group =>   2
Atom  35H    basis set group =>   2
Atom  36C    basis set group =>   1
Atom  37H    basis set group =>   2
Atom  38H    basis set group =>   2
Atom  39C    basis set group =>   1
Atom  40H    basis set group =>   2
Atom  41H    basis set group =>   2
Atom  42C    basis set group =>   1
Atom  43H    basis set group =>   2
Atom  44H    basis set group =>   2
Atom  45H    basis set group =>   2
----------------------------------
AUXILIARY/JK BASIS SET INFORMATION
----------------------------------
There are 2 groups of distinct atoms

 Group   1 Type C   : 14s11p10d2f contracted to 14s11p10d2f pattern {11111111111111/11111111111/1111111111/11}
 Group   2 Type H   : 9s2p1d contracted to 9s2p1d pattern {111111111/11/1}

Atom   0C    basis set group =>   1
Atom   1C    basis set group =>   1
Atom   2C    basis set group =>   1
Atom   3C    basis set group =>   1
Atom   4C    basis set group =>   1
Atom   5C    basis set group =>   1
Atom   6C    basis set group =>   1
Atom   7H    basis set group =>   2
Atom   8H    basis set group =>   2
Atom   9C    basis set group =>   1
Atom  10H    basis set group =>   2
Atom  11H    basis set group =>   2
Atom  12C    basis set group =>   1
Atom  13H    basis set group =>   2
Atom  14H    basis set group =>   2
Atom  15C    basis set group =>   1
Atom  16H    basis set group =>   2
Atom  17H    basis set group =>   2
Atom  18C    basis set group =>   1
Atom  19H    basis set group =>   2
Atom  20H    basis set group =>   2
Atom  21C    basis set group =>   1
Atom  22H    basis set group =>   2
Atom  23H    basis set group =>   2
Atom  24C    basis set group =>   1
Atom  25H    basis set group =>   2
Atom  26H    basis set group =>   2
Atom  27C    basis set group =>   1
Atom  28H    basis set group =>   2
Atom  29H    basis set group =>   2
Atom  30C    basis set group =>   1
Atom  31H    basis set group =>   2
Atom  32H    basis set group =>   2
Atom  33C    basis set group =>   1
Atom  34H    basis set group =>   2
Atom  35H    basis set group =>   2
Atom  36C    basis set group =>   1
Atom  37H    basis set group =>   2
Atom  38H    basis set group =>   2
Atom  39C    basis set group =>   1
Atom  40H    basis set group =>   2
Atom  41H    basis set group =>   2
Atom  42C    basis set group =>   1
Atom  43H    basis set group =>   2
Atom  44H    basis set group =>   2
Atom  45H    basis set group =>   2

Checking for AutoStart:
The File: cc-pVDZ_i.gbw exists
Trying to determine its content:
     ... Fine, the file contains calculation information
     ... Fine, the calculation information was read
     ... Fine, the file contains a basis set
     ... Fine, the basis set was read
     ... Fine, the file contains a geometry
     ... Fine, the geometry was read
     ... Fine, the file contains a set of orbitals
     ... Fine, the orbitals can be read
     => possible old guess file was deleted
     => GBW file was renamed to GES file
     => GES file is set as startup file
     => Guess is set to MORead
     ... now leaving AutoStart



           ************************************************************
           *        Program running with 16 parallel MPI-processes    *
           *              working on a common directory               *
           ************************************************************
------------------------------------------------------------------------------
                           ORCA GTO INTEGRAL CALCULATION
                           -- RI-GTO INTEGRALS CHOSEN --
------------------------------------------------------------------------------
------------------------------------------------------------------------------
                   ___                                                        
                  /   \      - P O W E R E D   B Y -                         
                 /     \                                                     
                 |  |  |   _    _      __       _____    __    __             
                 |  |  |  | |  | |    /  \     |  _  \  |  |  /  |          
                  \  \/   | |  | |   /    \    | | | |  |  | /  /          
                 / \  \   | |__| |  /  /\  \   | |_| |  |  |/  /          
                |  |  |   |  __  | /  /__\  \  |    /   |      \           
                |  |  |   | |  | | |   __   |  |    \   |  |\   \          
                \     /   | |  | | |  |  |  |  | |\  \  |  | \   \       
                 \___/    |_|  |_| |__|  |__|  |_| \__\ |__|  \__/        
                                                                              
                      - O R C A' S   B I G   F R I E N D -                    
                                      &                                       
                       - I N T E G R A L  F E E D E R -                       
                                                                              
 v1 FN, 2020, v2 2021                                                         
------------------------------------------------------------------------------


Reading SHARK input file cc-pVDZ_i.SHARKINP.tmp ... ok
----------------------
SHARK INTEGRAL PACKAGE
----------------------

Number of atoms                             ...     46
Number of basis functions                   ...    515
Number of shells                            ...    309
Maximum angular momentum                    ...      2
Integral batch strategy                     ... SHARK/LIBINT Hybrid
RI-J (if used) integral strategy            ... SPLIT-RIJ (Revised 2003 algorithm where possible)
Printlevel                                  ...      1
Contraction scheme used                     ... PARTIAL GENERAL contraction
Coulomb Range Separation                    ... NOT USED
Exchange Range Separation                   ... NOT USED
Finite Nucleus Model                        ... NOT USED
Auxiliary Coulomb fitting basis             ... AVAILABLE
   # of basis functions in Aux-J            ...   2649
   # of shells in Aux-J                     ...   1027
   Maximum angular momentum in Aux-J        ...      3
Auxiliary J/K fitting basis                 ... AVAILABLE
   # of basis functions in Aux-JK           ...   2649
   # of shells in Aux-JK                    ...   1027
   Maximum angular momentum in Aux-JK       ...      3
Auxiliary Correlation fitting basis         ... AVAILABLE
   # of basis functions in Aux-C            ...   2649
   # of shells in Aux-C                     ...   1027
   Maximum angular momentum in Aux-C        ...      3
Auxiliary 'external' fitting basis          ... NOT available
Integral threshold                          ...     1.000000e-10
Primitive cut-off                           ...     1.000000e-11
Primitive pair pre-selection threshold      ...     1.000000e-11

Calculating pre-screening integrals         ... done (  0.0 sec) Dimension = 309
Calculating pre-screening integrals (ORCA)  ... done (  0.1 sec) Dimension = 195
Organizing shell pair data                  ... done (  0.1 sec)
Shell pair information
Total number of shell pairs                 ...     47895
Shell pairs after pre-screening             ...     20376
Total number of primitive shell pairs       ...     80739
Primitive shell pairs kept                  ...     28604
          la=0 lb=0:   9145 shell pairs
          la=1 lb=0:   7144 shell pairs
          la=1 lb=1:   1264 shell pairs
          la=2 lb=0:   1999 shell pairs
          la=2 lb=1:    712 shell pairs
          la=2 lb=2:    112 shell pairs

Calculating one electron integrals          ... done (  0.0 sec)
Calculating RI/J V-Matrix + Cholesky decomp.... done (  0.4 sec)
Calculating RI/JK V-Matrix + Cholesky decomp... done (  0.4 sec)
Calculating RI/C V-Matrix + Cholesky decomp.... done (  0.4 sec)
Calculating Nuclear repulsion               ... done (  0.0 sec) ENN=   1249.874956020445 Eh

SHARK setup successfully completed in   1.9 seconds

Maximum memory used throughout the entire GTOINT-calculation: 32.4 MB


           ************************************************************
           *        Program running with 16 parallel MPI-processes    *
           *              working on a common directory               *
           ************************************************************
-------------------------------------------------------------------------------
                                 ORCA SCF
-------------------------------------------------------------------------------

------------
SCF SETTINGS
------------
Hamiltonian:
 Density Functional     Method          .... DFT(GTOs)
 Exchange Functional    Exchange        .... B88
   X-Alpha parameter    XAlpha          ....  0.666667
   Becke's b parameter  XBeta           ....  0.004200
 Correlation Functional Correlation     .... LYP
 LDA part of GGA corr.  LDAOpt          .... VWN-5
 Gradients option       PostSCFGGA      .... off
 Hybrid DFT is turned on
   Fraction HF Exchange ScalHFX         ....  0.200000
   Scaling of DF-GGA-X  ScalDFX         ....  0.720000
   Scaling of DF-GGA-C  ScalDFC         ....  0.810000
   Scaling of DF-LDA-C  ScalLDAC        ....  1.000000
   Perturbative correction              ....  0.000000
   Density functional embedding theory  .... OFF
   NL short-range parameter             ....  4.800000
 RI-approximation to the Coulomb term is turned on
   Number of AuxJ basis functions       .... 2649
   RIJ-COSX (HFX calculated with COS-X)).... on


General Settings:
 Integral files         IntName         .... cc-pVDZ_i
 Hartree-Fock type      HFTyp           .... UHF
 Total Charge           Charge          ....    0
 Multiplicity           Mult            ....    2
 Number of Electrons    NEL             ....  141
 Basis Dimension        Dim             ....  401
 Nuclear Repulsion      ENuc            ....   1249.8749560204 Eh

Convergence Acceleration:
 DIIS                   CNVDIIS         .... on
   Start iteration      DIISMaxIt       ....    12
   Startup error        DIISStart       ....  0.200000
   # of expansion vecs  DIISMaxEq       ....     5
   Bias factor          DIISBfac        ....   1.050
   Max. coefficient     DIISMaxC        ....  10.000
 Trust-Rad. Augm. Hess. CNVTRAH         .... auto
   Auto Start mean grad. ratio tolernc. ....  1.125000
   Auto Start start iteration           ....     1
   Auto Start num. interpolation iter.  ....    10
   Max. Number of Micro iterations      ....    16
   Max. Number of Macro iterations      .... Maxiter - #DIIS iter
   Number of Davidson start vectors     ....     2
   Converg. threshold I  (grad. norm)   ....   5.000e-05
   Converg. threshold II (energy diff.) ....   1.000e-06
   Grad. Scal. Fac. for Micro threshold ....   0.100
   Minimum threshold for Micro iter.    ....   0.010
   NR start threshold (gradient norm)   ....   0.001
   Initial trust radius                 ....   0.400
   Minimum AH scaling param. (alpha)    ....   1.000
   Maximum AH scaling param. (alpha)    .... 1000.000
   Orbital update algorithm             .... Taylor
   White noise on init. David. guess    .... on
   Maximum white noise                  ....   0.010
   Quad. conv. algorithm                .... NR
 SOSCF                  CNVSOSCF        .... off
 Level Shifting         CNVShift        .... on
   Level shift para.    LevelShift      ....    0.2500
   Turn off err/grad.   ShiftErr        ....    0.0010
 Zerner damping         CNVZerner       .... off
 Static damping         CNVDamp         .... on
   Fraction old density DampFac         ....    0.7000
   Max. Damping (<1)    DampMax         ....    0.9800
   Min. Damping (>=0)   DampMin         ....    0.0000
   Turn off err/grad.   DampErr         ....    0.1000
 Fernandez-Rico         CNVRico         .... off

SCF Procedure:
 Maximum # iterations   MaxIter         ....   125
 SCF integral mode      SCFMode         .... Direct
   Integral package                     .... SHARK and LIBINT hybrid scheme
 Reset frequency        DirectResetFreq ....    20
 Integral Threshold     Thresh          ....  1.000e-10 Eh
 Primitive CutOff       TCut            ....  1.000e-11 Eh

Convergence Tolerance:
 Convergence Check Mode ConvCheckMode   .... Total+1el-Energy
 Convergence forced     ConvForced      .... 0
 Energy Change          TolE            ....  1.000e-06 Eh
 1-El. energy change                    ....  1.000e-03 Eh
 DIIS Error             TolErr          ....  1.000e-06


Diagonalization of the overlap matrix:
Smallest eigenvalue                        ... 1.543e-04
Time for diagonalization                   ...    0.031 sec
Threshold for overlap eigenvalues          ... 1.000e-08
Number of eigenvalues below threshold      ... 0
Time for construction of square roots      ...    0.035 sec
Total time needed                          ...    0.066 sec

---------------------
INITIAL GUESS: MOREAD
---------------------
Guess MOs are being read from file: cc-pVDZ_i.ges
Input geometry compatible with but different from current geometry
Input basis set matches current basis set (good)
MOs were renormalized
MOs were reorthogonalized (Cholesky)
                      ------------------
                      INITIAL GUESS DONE (   0.1 sec)
                      ------------------
-------------------
DFT GRID GENERATION
-------------------

General Integration Accuracy     IntAcc      ... 4.388
Radial Grid Type                 RadialGrid  ... OptM3 with GC (2021)
Angular Grid (max. ang.)         AngularGrid ... 4 (Lebedev-302)
Angular grid pruning method      GridPruning ... 4 (adaptive)
Weight generation scheme         WeightScheme... Becke
Basis function cutoff            BFCut       ... 1.0000e-10
Integration weight cutoff        WCut        ... 1.0000e-14
Angular grids for H and He will be reduced by one unit
Partially contracted basis set               ... off
Rotationally invariant grid construction     ... off

Total number of grid points                  ...   199577
Total number of batches                      ...     3141
Average number of points per batch           ...       63
Average number of grid points per atom       ...     4339
Time for grid setup =    1.087 sec

--------------------
COSX GRID GENERATION
--------------------

GRIDX 1
-------
General Integration Accuracy     IntAcc      ... 3.816
Radial Grid Type                 RadialGrid  ... OptM3 with GC (2021)
Angular Grid (max. ang.)         AngularGrid ... 1 (Lebedev-50)
Angular grid pruning method      GridPruning ... 4 (adaptive)
Weight generation scheme         WeightScheme... Becke
Basis function cutoff            BFCut       ... 1.0000e-10
Integration weight cutoff        WCut        ... 1.0000e-14
Angular grids for H and He will be reduced by one unit
Partially contracted basis set               ... on
Rotationally invariant grid construction     ... off

Total number of grid points                  ...    25466
Total number of batches                      ...      424
Average number of points per batch           ...       60
Average number of grid points per atom       ...      554
UseSFitting                                  ... on

GRIDX 2
-------
General Integration Accuracy     IntAcc      ... 4.020
Radial Grid Type                 RadialGrid  ... OptM3 with GC (2021)
Angular Grid (max. ang.)         AngularGrid ... 2 (Lebedev-110)
Angular grid pruning method      GridPruning ... 4 (adaptive)
Weight generation scheme         WeightScheme... Becke
Basis function cutoff            BFCut       ... 1.0000e-10
Integration weight cutoff        WCut        ... 1.0000e-14
Angular grids for H and He will be reduced by one unit
Partially contracted basis set               ... on
Rotationally invariant grid construction     ... off

Total number of grid points                  ...    53461
Total number of batches                      ...      857
Average number of points per batch           ...       62
Average number of grid points per atom       ...     1162
UseSFitting                                  ... on

GRIDX 3
-------
General Integration Accuracy     IntAcc      ... 4.338
Radial Grid Type                 RadialGrid  ... OptM3 with GC (2021)
Angular Grid (max. ang.)         AngularGrid ... 3 (Lebedev-194)
Angular grid pruning method      GridPruning ... 4 (adaptive)
Weight generation scheme         WeightScheme... Becke
Basis function cutoff            BFCut       ... 1.0000e-10
Integration weight cutoff        WCut        ... 1.0000e-14
Angular grids for H and He will be reduced by one unit
Partially contracted basis set               ... on
Rotationally invariant grid construction     ... off

Total number of grid points                  ...   116757
Total number of batches                      ...     1850
Average number of points per batch           ...       63
Average number of grid points per atom       ...     2538
UseSFitting                                  ... on

Time for X-Grid setup             =    1.874 sec

 re-compute Schwartz prescreening matrix in partically contracted basis (1) ...done (   0.104 sec)
--------------
SCF ITERATIONS
--------------
ITER       Energy         Delta-E        Max-DP      RMS-DP      [F,P]     Damp
               ***  Starting incremental Fock matrix formation  ***
  0   -739.6891273304   0.000000000000 0.00004018  0.00000056  0.0000930 0.7000
                 **** Energy Check signals convergence ****

               *****************************************************
               *                     SUCCESS                       *
               *           SCF CONVERGED AFTER   1 CYCLES          *
               *****************************************************

Old exchange energy                            =    -21.608779853 Eh
New exchange energy                            =    -21.608862025 Eh
Exchange energy change after final integration =     -0.000082173 Eh
Total energy after final integration           =   -739.689209675 Eh
Final COS-X integration done in                =     5.322 sec

----------------
TOTAL SCF ENERGY
----------------

Total Energy       :         -739.68920968 Eh          -20127.96668 eV

Components:
Nuclear Repulsion  :         1249.87495602 Eh           34010.82663 eV
Electronic Energy  :        -1989.56416570 Eh          -54138.79331 eV
One Electron Energy:        -3477.47453138 Eh          -94626.89274 eV
Two Electron Energy:         1487.91036569 Eh           40488.09943 eV
Max COSX asymmetry :            0.00000044 Eh               0.00001 eV

Virial components:
Potential Energy   :        -1473.96970745 Eh          -40108.75483 eV
Kinetic Energy     :          734.28049778 Eh           19980.78815 eV
Virial Ratio       :            2.00736600


DFT components:
N(Alpha)           :       71.000178899288 electrons
N(Beta)            :       70.000176393476 electrons
N(Total)           :      141.000355292764 electrons
E(X)               :      -85.623711003421 Eh       
E(C)               :       -5.414294111107 Eh       
E(XC)              :      -91.038005114527 Eh       
DFET-embed. en.    :        0.000000000000 Eh       

---------------
SCF CONVERGENCE
---------------

  Last Energy change         ...   -1.7234e-07  Tolerance :   1.0000e-06
  Last MAX-Density change    ...    1.1847e-05  Tolerance :   1.0000e-05
  Last RMS-Density change    ...    1.7256e-07  Tolerance :   1.0000e-06
  Last DIIS Error            ...    7.3190e-05  Tolerance :   1.0000e-06

             **** THE GBW FILE WAS UPDATED (cc-pVDZ_i.gbw) ****
             **** DENSITY cc-pVDZ_i.scfp WAS UPDATED ****
             **** ENERGY FILE WAS UPDATED (cc-pVDZ_i.en.tmp) ****
----------------------
UHF SPIN CONTAMINATION
----------------------

Warning: in a DFT calculation there is little theoretical justification to 
         calculate <S**2> as in Hartree-Fock theory. We will do it anyways
         but you should keep in mind that the values have only limited relevance

Expectation value of <S**2>     :     0.753897
Ideal value S*(S+1) for S=0.5   :     0.750000
Deviation                       :     0.003897

             **** THE GBW FILE WAS UPDATED (cc-pVDZ_i.gbw) ****
             **** DENSITY cc-pVDZ_i.scfp WAS UPDATED ****
----------------
ORBITAL ENERGIES
----------------
                 SPIN UP ORBITALS
  NO   OCC          E(Eh)            E(eV) 
   0   1.0000     -10.205487      -277.7054 
   1   1.0000     -10.195845      -277.4430 
   2   1.0000     -10.192502      -277.3521 
   3   1.0000     -10.187918      -277.2273 
   4   1.0000     -10.187084      -277.2046 
   5   1.0000     -10.186775      -277.1962 
   6   1.0000     -10.185648      -277.1656 
   7   1.0000     -10.185394      -277.1586 
   8   1.0000     -10.184365      -277.1307 
   9   1.0000     -10.183734      -277.1135 
  10   1.0000     -10.183535      -277.1081 
  11   1.0000     -10.182253      -277.0732 
  12   1.0000     -10.181598      -277.0554 
  13   1.0000     -10.181467      -277.0518 
  14   1.0000     -10.181155      -277.0433 
  15   1.0000     -10.180791      -277.0334 
  16   1.0000     -10.179125      -276.9881 
  17   1.0000     -10.178854      -276.9807 
  18   1.0000     -10.175830      -276.8984 
  19   1.0000      -0.863878       -23.5073 
  20   1.0000      -0.813309       -22.1313 
  21   1.0000      -0.804048       -21.8793 
  22   1.0000      -0.784783       -21.3550 
  23   1.0000      -0.776723       -21.1357 
  24   1.0000      -0.758527       -20.6406 
  25   1.0000      -0.732340       -19.9280 
  26   1.0000      -0.721476       -19.6324 
  27   1.0000      -0.704438       -19.1687 
  28   1.0000      -0.668027       -18.1779 
  29   1.0000      -0.637553       -17.3487 
  30   1.0000      -0.618020       -16.8172 
  31   1.0000      -0.608586       -16.5605 
  32   1.0000      -0.583029       -15.8650 
  33   1.0000      -0.576661       -15.6917 
  34   1.0000      -0.570706       -15.5297 
  35   1.0000      -0.559238       -15.2176 
  36   1.0000      -0.525400       -14.2969 
  37   1.0000      -0.493451       -13.4275 
  38   1.0000      -0.479947       -13.0600 
  39   1.0000      -0.470465       -12.8020 
  40   1.0000      -0.467829       -12.7303 
  41   1.0000      -0.459724       -12.5097 
  42   1.0000      -0.458519       -12.4769 
  43   1.0000      -0.426418       -11.6034 
  44   1.0000      -0.425772       -11.5859 
  45   1.0000      -0.422147       -11.4872 
  46   1.0000      -0.418738       -11.3944 
  47   1.0000      -0.418446       -11.3865 
  48   1.0000      -0.410945       -11.1824 
  49   1.0000      -0.399163       -10.8618 
  50   1.0000      -0.388594       -10.5742 
  51   1.0000      -0.380503       -10.3540 
  52   1.0000      -0.370847       -10.0912 
  53   1.0000      -0.365918        -9.9571 
  54   1.0000      -0.357954        -9.7404 
  55   1.0000      -0.353531        -9.6201 
  56   1.0000      -0.352422        -9.5899 
  57   1.0000      -0.337620        -9.1871 
  58   1.0000      -0.337079        -9.1724 
  59   1.0000      -0.328952        -8.9512 
  60   1.0000      -0.324597        -8.8327 
  61   1.0000      -0.324240        -8.8230 
  62   1.0000      -0.322568        -8.7775 
  63   1.0000      -0.322187        -8.7671 
  64   1.0000      -0.318703        -8.6724 
  65   1.0000      -0.314482        -8.5575 
  66   1.0000      -0.298601        -8.1253 
  67   1.0000      -0.270430        -7.3588 
  68   1.0000      -0.241026        -6.5586 
  69   1.0000      -0.222625        -6.0579 
  70   1.0000      -0.198471        -5.4007 
  71   0.0000      -0.030211        -0.8221 
  72   0.0000       0.002331         0.0634 
  73   0.0000       0.049394         1.3441 
  74   0.0000       0.061377         1.6702 
  75   0.0000       0.062365         1.6970 
  76   0.0000       0.074973         2.0401 
  77   0.0000       0.075253         2.0477 
  78   0.0000       0.076131         2.0716 
  79   0.0000       0.083524         2.2728 
  80   0.0000       0.083682         2.2771 
  81   0.0000       0.086680         2.3587 
  82   0.0000       0.095051         2.5865 
  83   0.0000       0.096226         2.6184 
  84   0.0000       0.097045         2.6407 
  85   0.0000       0.102292         2.7835 
  86   0.0000       0.111738         3.0405 
  87   0.0000       0.114373         3.1122 
  88   0.0000       0.128053         3.4845 
  89   0.0000       0.133853         3.6423 
  90   0.0000       0.143914         3.9161 
  91   0.0000       0.151060         4.1105 
  92   0.0000       0.151376         4.1191 
  93   0.0000       0.158327         4.3083 
  94   0.0000       0.160447         4.3660 
  95   0.0000       0.160807         4.3758 
  96   0.0000       0.167284         4.5520 
  97   0.0000       0.174309         4.7432 
  98   0.0000       0.176482         4.8023 
  99   0.0000       0.182419         4.9639 
 100   0.0000       0.183440         4.9917 
 101   0.0000       0.190951         5.1960 
 102   0.0000       0.199554         5.4302 
 103   0.0000       0.201802         5.4913 
 104   0.0000       0.210976         5.7409 
 105   0.0000       0.213740         5.8161 
 106   0.0000       0.218071         5.9340 
 107   0.0000       0.225254         6.1295 
 108   0.0000       0.232905         6.3377 
 109   0.0000       0.244913         6.6644 
 110   0.0000       0.253882         6.9085 
 111   0.0000       0.272061         7.4031 
 112   0.0000       0.275695         7.5020 
 113   0.0000       0.289578         7.8798 
 114   0.0000       0.299365         8.1461 
 115   0.0000       0.330432         8.9915 
 116   0.0000       0.338647         9.2150 
 117   0.0000       0.354531         9.6473 
 118   0.0000       0.359954         9.7949 
 119   0.0000       0.375148        10.2083 
 120   0.0000       0.398563        10.8455 
 121   0.0000       0.407355        11.0847 
 122   0.0000       0.411932        11.2092 
 123   0.0000       0.413613        11.2550 
 124   0.0000       0.417841        11.3700 
 125   0.0000       0.420366        11.4387 
 126   0.0000       0.425229        11.5711 
 127   0.0000       0.427694        11.6381 
 128   0.0000       0.439958        11.9719 
 129   0.0000       0.442378        12.0377 
 130   0.0000       0.462516        12.5857 
 131   0.0000       0.463040        12.6000 
 132   0.0000       0.478730        13.0269 
 133   0.0000       0.484946        13.1961 
 134   0.0000       0.487828        13.2745 
 135   0.0000       0.493702        13.4343 
 136   0.0000       0.497764        13.5449 
 137   0.0000       0.498227        13.5575 
 138   0.0000       0.504710        13.7339 
 139   0.0000       0.520142        14.1538 
 140   0.0000       0.522656        14.2222 
 141   0.0000       0.523903        14.2561 
 142   0.0000       0.532237        14.4829 
 143   0.0000       0.538097        14.6424 
 144   0.0000       0.540251        14.7010 
 145   0.0000       0.545564        14.8456 
 146   0.0000       0.563314        15.3286 
 147   0.0000       0.568714        15.4755 
 148   0.0000       0.586923        15.9710 
 149   0.0000       0.591139        16.0857 
 150   0.0000       0.605186        16.4679 
 151   0.0000       0.607244        16.5240 
 152   0.0000       0.611125        16.6296 
 153   0.0000       0.618739        16.8368 
 154   0.0000       0.621964        16.9245 
 155   0.0000       0.630331        17.1522 
 156   0.0000       0.630724        17.1629 
 157   0.0000       0.633536        17.2394 
 158   0.0000       0.636559        17.3217 
 159   0.0000       0.641668        17.4607 
 160   0.0000       0.643148        17.5010 
 161   0.0000       0.648446        17.6451 
 162   0.0000       0.650635        17.7047 
 163   0.0000       0.653347        17.7785 
 164   0.0000       0.657352        17.8875 
 165   0.0000       0.660295        17.9675 
 166   0.0000       0.661091        17.9892 
 167   0.0000       0.661156        17.9910 
 168   0.0000       0.664601        18.0847 
 169   0.0000       0.666666        18.1409 
 170   0.0000       0.670549        18.2466 
 171   0.0000       0.676540        18.4096 
 172   0.0000       0.684634        18.6299 
 173   0.0000       0.686969        18.6934 
 174   0.0000       0.688346        18.7309 
 175   0.0000       0.692816        18.8525 
 176   0.0000       0.693822        18.8799 
 177   0.0000       0.699370        19.0308 
 178   0.0000       0.699930        19.0461 
 179   0.0000       0.704053        19.1583 
 180   0.0000       0.705940        19.2096 
 181   0.0000       0.711442        19.3593 
 182   0.0000       0.714313        19.4374 
 183   0.0000       0.722613        19.6633 
 184   0.0000       0.727223        19.7887 
 185   0.0000       0.728258        19.8169 
 186   0.0000       0.737051        20.0562 
 187   0.0000       0.742098        20.1935 
 188   0.0000       0.759118        20.6567 
 189   0.0000       0.764669        20.8077 
 190   0.0000       0.770992        20.9798 
 191   0.0000       0.778665        21.1886 
 192   0.0000       0.803526        21.8651 
 193   0.0000       0.812746        22.1159 
 194   0.0000       0.825929        22.4747 
 195   0.0000       0.838345        22.8125 
 196   0.0000       0.839653        22.8481 
 197   0.0000       0.856112        23.2960 
 198   0.0000       0.862703        23.4753 
 199   0.0000       0.874061        23.7844 
 200   0.0000       0.891418        24.2567 
 201   0.0000       0.904239        24.6056 
 202   0.0000       0.927005        25.2251 
 203   0.0000       0.946267        25.7492 
 204   0.0000       0.977674        26.6039 
 205   0.0000       0.980330        26.6761 
 206   0.0000       0.995386        27.0858 
 207   0.0000       0.996589        27.1186 
 208   0.0000       1.008692        27.4479 
 209   0.0000       1.008807        27.4510 
 210   0.0000       1.029812        28.0226 
 211   0.0000       1.033747        28.1297 
 212   0.0000       1.038846        28.2684 
 213   0.0000       1.047968        28.5167 
 214   0.0000       1.056231        28.7415 
 215   0.0000       1.067563        29.0499 
 216   0.0000       1.071513        29.1574 
 217   0.0000       1.086380        29.5619 
 218   0.0000       1.092771        29.7358 
 219   0.0000       1.118908        30.4470 
 220   0.0000       1.132793        30.8249 
 221   0.0000       1.153067        31.3766 
 222   0.0000       1.176792        32.0221 
 223   0.0000       1.186818        32.2950 
 224   0.0000       1.199048        32.6277 
 225   0.0000       1.204494        32.7760 
 226   0.0000       1.205674        32.8081 
 227   0.0000       1.209001        32.8986 
 228   0.0000       1.215389        33.0724 
 229   0.0000       1.216975        33.1156 
 230   0.0000       1.217927        33.1415 
 231   0.0000       1.224498        33.3203 
 232   0.0000       1.227129        33.3919 
 233   0.0000       1.232280        33.5321 
 234   0.0000       1.242636        33.8138 
 235   0.0000       1.265233        34.4287 
 236   0.0000       1.286919        35.0188 
 237   0.0000       1.310431        35.6586 
 238   0.0000       1.320295        35.9271 
 239   0.0000       1.323834        36.0234 
 240   0.0000       1.333587        36.2888 
 241   0.0000       1.338018        36.4093 
 242   0.0000       1.343584        36.5608 
 243   0.0000       1.350524        36.7496 
 244   0.0000       1.361123        37.0381 
 245   0.0000       1.378556        37.5124 
 246   0.0000       1.412094        38.4250 
 247   0.0000       1.412758        38.4431 
 248   0.0000       1.425009        38.7765 
 249   0.0000       1.426260        38.8105 
 250   0.0000       1.445218        39.3264 
 251   0.0000       1.455558        39.6077 
 252   0.0000       1.462081        39.7852 
 253   0.0000       1.472230        40.0614 
 254   0.0000       1.473493        40.0958 
 255   0.0000       1.474319        40.1183 
 256   0.0000       1.486622        40.4531 
 257   0.0000       1.498712        40.7820 
 258   0.0000       1.508851        41.0579 
 259   0.0000       1.517334        41.2888 
 260   0.0000       1.526049        41.5259 
 261   0.0000       1.549034        42.1514 
 262   0.0000       1.552334        42.2412 
 263   0.0000       1.558864        42.4188 
 264   0.0000       1.585403        43.1410 
 265   0.0000       1.593663        43.3658 
 266   0.0000       1.595635        43.4194 
 267   0.0000       1.597602        43.4730 
 268   0.0000       1.607689        43.7474 
 269   0.0000       1.613338        43.9012 
 270   0.0000       1.628340        44.3094 
 271   0.0000       1.629267        44.3346 
 272   0.0000       1.629679        44.3458 
 273   0.0000       1.631154        44.3860 
 274   0.0000       1.638930        44.5976 
 275   0.0000       1.641187        44.6590 
 276   0.0000       1.646015        44.7904 
 277   0.0000       1.648004        44.8445 
 278   0.0000       1.650961        44.9249 
 279   0.0000       1.658230        45.1227 
 280   0.0000       1.665683        45.3255 
 281   0.0000       1.673895        45.5490 
 282   0.0000       1.681824        45.7648 
 283   0.0000       1.682274        45.7770 
 284   0.0000       1.689928        45.9853 
 285   0.0000       1.691435        46.0263 
 286   0.0000       1.695422        46.1348 
 287   0.0000       1.701225        46.2927 
 288   0.0000       1.705602        46.4118 
 289   0.0000       1.708339        46.4863 
 290   0.0000       1.709037        46.5053 
 291   0.0000       1.711019        46.5592 
 292   0.0000       1.712499        46.5995 
 293   0.0000       1.717883        46.7460 
 294   0.0000       1.722380        46.8684 
 295   0.0000       1.733778        47.1785 
 296   0.0000       1.739812        47.3427 
 297   0.0000       1.750091        47.6224 
 298   0.0000       1.754462        47.7413 
 299   0.0000       1.760702        47.9111 
 300   0.0000       1.766361        48.0651 
 301   0.0000       1.767691        48.1013 
 302   0.0000       1.776340        48.3367 
 303   0.0000       1.781640        48.4809 
 304   0.0000       1.787946        48.6525 
 305   0.0000       1.792623        48.7797 
 306   0.0000       1.794266        48.8244 
 307   0.0000       1.798798        48.9478 
 308   0.0000       1.804304        49.0976 
 309   0.0000       1.809729        49.2452 
 310   0.0000       1.823382        49.6167 
 311   0.0000       1.833395        49.8892 
 312   0.0000       1.836227        49.9663 
 313   0.0000       1.854790        50.4714 
 314   0.0000       1.866318        50.7851 
 315   0.0000       1.871025        50.9132 
 316   0.0000       1.879015        51.1306 
 317   0.0000       1.899229        51.6806 
 318   0.0000       1.902967        51.7824 
 319   0.0000       1.911577        52.0167 
 320   0.0000       1.918800        52.2132 
 321   0.0000       1.925920        52.4070 
 322   0.0000       1.945066        52.9279 
 323   0.0000       1.955694        53.2171 
 324   0.0000       1.963342        53.4252 
 325   0.0000       1.967261        53.5319 
 326   0.0000       1.981063        53.9075 
 327   0.0000       1.984998        54.0145 
 328   0.0000       1.992842        54.2280 
 329   0.0000       2.010653        54.7127 
 330   0.0000       2.027001        55.1575 
 331   0.0000       2.040027        55.5119 
 332   0.0000       2.046414        55.6858 
 333   0.0000       2.055824        55.9418 
 334   0.0000       2.059114        56.0314 
 335   0.0000       2.075203        56.4692 
 336   0.0000       2.090406        56.8828 
 337   0.0000       2.100859        57.1673 
 338   0.0000       2.102061        57.2000 
 339   0.0000       2.114685        57.5435 
 340   0.0000       2.151353        58.5413 
 341   0.0000       2.152601        58.5753 
 342   0.0000       2.161038        58.8048 
 343   0.0000       2.181308        59.3564 
 344   0.0000       2.190063        59.5946 
 345   0.0000       2.206213        60.0341 
 346   0.0000       2.210593        60.1533 
 347   0.0000       2.217308        60.3360 
 348   0.0000       2.227389        60.6103 
 349   0.0000       2.231494        60.7220 
 350   0.0000       2.235427        60.8291 
 351   0.0000       2.243113        61.0382 
 352   0.0000       2.275173        61.9106 
 353   0.0000       2.276944        61.9588 
 354   0.0000       2.288436        62.2715 
 355   0.0000       2.289862        62.3103 
 356   0.0000       2.307751        62.7971 
 357   0.0000       2.309762        62.8518 
 358   0.0000       2.319531        63.1177 
 359   0.0000       2.326791        63.3152 
 360   0.0000       2.336616        63.5825 
 361   0.0000       2.340337        63.6838 
 362   0.0000       2.341906        63.7265 
 363   0.0000       2.347951        63.8910 
 364   0.0000       2.353984        64.0552 
 365   0.0000       2.371173        64.5229 
 366   0.0000       2.378234        64.7150 
 367   0.0000       2.406797        65.4923 
 368   0.0000       2.412531        65.6483 
 369   0.0000       2.417050        65.7713 
 370   0.0000       2.426627        66.0319 
 371   0.0000       2.442723        66.4699 
 372   0.0000       2.449297        66.6487 
 373   0.0000       2.458956        66.9116 
 374   0.0000       2.479570        67.4725 
 375   0.0000       2.480041        67.4854 
 376   0.0000       2.485976        67.6468 
 377   0.0000       2.514247        68.4161 
 378   0.0000       2.528879        68.8143 
 379   0.0000       2.530429        68.8565 
 380   0.0000       2.568018        69.8793 
 381   0.0000       2.572751        70.0081 
 382   0.0000       2.589988        70.4772 
 383   0.0000       2.597494        70.6814 
 384   0.0000       2.611238        71.0554 
 385   0.0000       2.614086        71.1329 
 386   0.0000       2.628104        71.5144 
 387   0.0000       2.665489        72.5316 
 388   0.0000       2.703073        73.5544 
 389   0.0000       2.711878        73.7939 
 390   0.0000       2.720202        74.0205 
 391   0.0000       2.730768        74.3080 
 392   0.0000       2.741701        74.6055 
 393   0.0000       2.761400        75.1415 
 394   0.0000       2.811896        76.5156 
 395   0.0000       2.814460        76.5854 
 396   0.0000       2.827147        76.9306 
 397   0.0000       2.883411        78.4616 
 398   0.0000       2.935594        79.8816 
 399   0.0000       3.196811        86.9896 
 400   0.0000       3.419475        93.0486 

                 SPIN DOWN ORBITALS
  NO   OCC          E(Eh)            E(eV) 
   0   1.0000     -10.205486      -277.7054 
   1   1.0000     -10.195842      -277.4430 
   2   1.0000     -10.192502      -277.3521 
   3   1.0000     -10.187918      -277.2273 
   4   1.0000     -10.187084      -277.2046 
   5   1.0000     -10.186775      -277.1962 
   6   1.0000     -10.185394      -277.1586 
   7   1.0000     -10.184619      -277.1376 
   8   1.0000     -10.184365      -277.1307 
   9   1.0000     -10.183528      -277.1079 
  10   1.0000     -10.182253      -277.0732 
  11   1.0000     -10.181598      -277.0554 
  12   1.0000     -10.181468      -277.0518 
  13   1.0000     -10.180755      -277.0324 
  14   1.0000     -10.179589      -277.0007 
  15   1.0000     -10.179080      -276.9869 
  16   1.0000     -10.178675      -276.9758 
  17   1.0000     -10.175830      -276.8984 
  18   1.0000     -10.171593      -276.7831 
  19   1.0000      -0.863875       -23.5072 
  20   1.0000      -0.812836       -22.1184 
  21   1.0000      -0.802465       -21.8362 
  22   1.0000      -0.782408       -21.2904 
  23   1.0000      -0.775724       -21.1085 
  24   1.0000      -0.755748       -20.5650 
  25   1.0000      -0.728523       -19.8241 
  26   1.0000      -0.721475       -19.6323 
  27   1.0000      -0.700482       -19.0611 
  28   1.0000      -0.662287       -18.0217 
  29   1.0000      -0.634226       -17.2582 
  30   1.0000      -0.617136       -16.7931 
  31   1.0000      -0.603519       -16.4226 
  32   1.0000      -0.580347       -15.7920 
  33   1.0000      -0.575206       -15.6522 
  34   1.0000      -0.563800       -15.3418 
  35   1.0000      -0.557149       -15.1608 
  36   1.0000      -0.525387       -14.2965 
  37   1.0000      -0.493421       -13.4267 
  38   1.0000      -0.479090       -13.0367 
  39   1.0000      -0.470461       -12.8019 
  40   1.0000      -0.467786       -12.7291 
  41   1.0000      -0.459646       -12.5076 
  42   1.0000      -0.456290       -12.4163 
  43   1.0000      -0.425825       -11.5873 
  44   1.0000      -0.423247       -11.5171 
  45   1.0000      -0.421809       -11.4780 
  46   1.0000      -0.418136       -11.3781 
  47   1.0000      -0.416644       -11.3375 
  48   1.0000      -0.409106       -11.1324 
  49   1.0000      -0.395230       -10.7547 
  50   1.0000      -0.386375       -10.5138 
  51   1.0000      -0.378078       -10.2880 
  52   1.0000      -0.368637       -10.0311 
  53   1.0000      -0.365100        -9.9349 
  54   1.0000      -0.356272        -9.6947 
  55   1.0000      -0.352046        -9.5797 
  56   1.0000      -0.351672        -9.5695 
  57   1.0000      -0.336672        -9.1613 
  58   1.0000      -0.335529        -9.1302 
  59   1.0000      -0.328145        -8.9293 
  60   1.0000      -0.324302        -8.8247 
  61   1.0000      -0.323982        -8.8160 
  62   1.0000      -0.322048        -8.7634 
  63   1.0000      -0.321176        -8.7396 
  64   1.0000      -0.318200        -8.6586 
  65   1.0000      -0.311486        -8.4760 
  66   1.0000      -0.298600        -8.1253 
  67   1.0000      -0.270421        -7.3585 
  68   1.0000      -0.241025        -6.5586 
  69   1.0000      -0.222624        -6.0579 
  70   0.0000      -0.044694        -1.2162 
  71   0.0000      -0.030211        -0.8221 
  72   0.0000       0.002332         0.0635 
  73   0.0000       0.049398         1.3442 
  74   0.0000       0.061613         1.6766 
  75   0.0000       0.062936         1.7126 
  76   0.0000       0.075312         2.0494 
  77   0.0000       0.075981         2.0676 
  78   0.0000       0.077009         2.0955 
  79   0.0000       0.083646         2.2761 
  80   0.0000       0.083971         2.2850 
  81   0.0000       0.087278         2.3750 
  82   0.0000       0.095263         2.5922 
  83   0.0000       0.097021         2.6401 
  84   0.0000       0.098712         2.6861 
  85   0.0000       0.104037         2.8310 
  86   0.0000       0.112678         3.0661 
  87   0.0000       0.116399         3.1674 
  88   0.0000       0.128340         3.4923 
  89   0.0000       0.135972         3.7000 
  90   0.0000       0.144542         3.9332 
  91   0.0000       0.151486         4.1221 
  92   0.0000       0.151782         4.1302 
  93   0.0000       0.158439         4.3113 
  94   0.0000       0.160626         4.3709 
  95   0.0000       0.161362         4.3909 
  96   0.0000       0.168407         4.5826 
  97   0.0000       0.174534         4.7493 
  98   0.0000       0.176570         4.8047 
  99   0.0000       0.182985         4.9793 
 100   0.0000       0.183586         4.9956 
 101   0.0000       0.192194         5.2299 
 102   0.0000       0.199577         5.4308 
 103   0.0000       0.203536         5.5385 
 104   0.0000       0.211146         5.7456 
 105   0.0000       0.213988         5.8229 
 106   0.0000       0.218911         5.9569 
 107   0.0000       0.225760         6.1432 
 108   0.0000       0.233538         6.3549 
 109   0.0000       0.246318         6.7026 
 110   0.0000       0.255944         6.9646 
 111   0.0000       0.273770         7.4497 
 112   0.0000       0.278387         7.5753 
 113   0.0000       0.290828         7.9138 
 114   0.0000       0.301881         8.2146 
 115   0.0000       0.331447         9.0191 
 116   0.0000       0.340478         9.2649 
 117   0.0000       0.355371         9.6701 
 118   0.0000       0.360098         9.7988 
 119   0.0000       0.375502        10.2179 
 120   0.0000       0.400233        10.8909 
 121   0.0000       0.408265        11.1095 
 122   0.0000       0.411934        11.2093 
 123   0.0000       0.414868        11.2891 
 124   0.0000       0.417969        11.3735 
 125   0.0000       0.420371        11.4389 
 126   0.0000       0.426319        11.6007 
 127   0.0000       0.427981        11.6460 
 128   0.0000       0.442061        12.0291 
 129   0.0000       0.444111        12.0849 
 130   0.0000       0.462690        12.5904 
 131   0.0000       0.467939        12.7333 
 132   0.0000       0.480857        13.0848 
 133   0.0000       0.487822        13.2743 
 134   0.0000       0.489200        13.3118 
 135   0.0000       0.496584        13.5127 
 136   0.0000       0.498521        13.5654 
 137   0.0000       0.498923        13.5764 
 138   0.0000       0.513244        13.9661 
 139   0.0000       0.523735        14.2515 
 140   0.0000       0.523862        14.2550 
 141   0.0000       0.533396        14.5144 
 142   0.0000       0.538237        14.6462 
 143   0.0000       0.540961        14.7203 
 144   0.0000       0.545574        14.8458 
 145   0.0000       0.555723        15.1220 
 146   0.0000       0.569213        15.4891 
 147   0.0000       0.578299        15.7363 
 148   0.0000       0.587159        15.9774 
 149   0.0000       0.592567        16.1246 
 150   0.0000       0.607378        16.5276 
 151   0.0000       0.607795        16.5389 
 152   0.0000       0.613277        16.6881 
 153   0.0000       0.618797        16.8383 
 154   0.0000       0.623640        16.9701 
 155   0.0000       0.630971        17.1696 
 156   0.0000       0.631678        17.1888 
 157   0.0000       0.634246        17.2587 
 158   0.0000       0.637640        17.3511 
 159   0.0000       0.643028        17.4977 
 160   0.0000       0.643197        17.5023 
 161   0.0000       0.648913        17.6578 
 162   0.0000       0.651581        17.7304 
 163   0.0000       0.654872        17.8200 
 164   0.0000       0.659285        17.9401 
 165   0.0000       0.660600        17.9758 
 166   0.0000       0.661308        17.9951 
 167   0.0000       0.662028        18.0147 
 168   0.0000       0.665562        18.1109 
 169   0.0000       0.669166        18.2089 
 170   0.0000       0.671757        18.2794 
 171   0.0000       0.678487        18.4626 
 172   0.0000       0.684726        18.6323 
 173   0.0000       0.687277        18.7018 
 174   0.0000       0.688909        18.7462 
 175   0.0000       0.693396        18.8683 
 176   0.0000       0.694729        18.9045 
 177   0.0000       0.701715        19.0946 
 178   0.0000       0.702041        19.1035 
 179   0.0000       0.704459        19.1693 
 180   0.0000       0.705989        19.2109 
 181   0.0000       0.714344        19.4383 
 182   0.0000       0.715581        19.4720 
 183   0.0000       0.722734        19.6666 
 184   0.0000       0.727269        19.7900 
 185   0.0000       0.729857        19.8604 
 186   0.0000       0.737351        20.0643 
 187   0.0000       0.744607        20.2618 
 188   0.0000       0.759500        20.6670 
 189   0.0000       0.765868        20.8403 
 190   0.0000       0.771967        21.0063 
 191   0.0000       0.779025        21.1984 
 192   0.0000       0.803529        21.8651 
 193   0.0000       0.812910        22.1204 
 194   0.0000       0.829314        22.5668 
 195   0.0000       0.839400        22.8412 
 196   0.0000       0.841238        22.8913 
 197   0.0000       0.856802        23.3148 
 198   0.0000       0.866493        23.5785 
 199   0.0000       0.874403        23.7937 
 200   0.0000       0.891444        24.2574 
 201   0.0000       0.905386        24.6368 
 202   0.0000       0.927031        25.2258 
 203   0.0000       0.947711        25.7885 
 204   0.0000       0.978094        26.6153 
 205   0.0000       0.995504        27.0890 
 206   0.0000       0.997567        27.1452 
 207   0.0000       1.008699        27.4481 
 208   0.0000       1.009084        27.4586 
 209   0.0000       1.012720        27.5575 
 210   0.0000       1.033250        28.1162 
 211   0.0000       1.037463        28.2308 
 212   0.0000       1.039815        28.2948 
 213   0.0000       1.047970        28.5167 
 214   0.0000       1.056337        28.7444 
 215   0.0000       1.070979        29.1428 
 216   0.0000       1.078071        29.3358 
 217   0.0000       1.086391        29.5622 
 218   0.0000       1.095494        29.8099 
 219   0.0000       1.122232        30.5375 
 220   0.0000       1.134596        30.8739 
 221   0.0000       1.153159        31.3790 
 222   0.0000       1.180200        32.1149 
 223   0.0000       1.189066        32.3561 
 224   0.0000       1.200358        32.6634 
 225   0.0000       1.204574        32.7781 
 226   0.0000       1.205711        32.8091 
 227   0.0000       1.209080        32.9007 
 228   0.0000       1.215452        33.0741 
 229   0.0000       1.217289        33.1241 
 230   0.0000       1.218950        33.1693 
 231   0.0000       1.224512        33.3207 
 232   0.0000       1.227244        33.3950 
 233   0.0000       1.232453        33.5368 
 234   0.0000       1.243084        33.8260 
 235   0.0000       1.266010        34.4499 
 236   0.0000       1.286920        35.0189 
 237   0.0000       1.310699        35.6659 
 238   0.0000       1.320299        35.9272 
 239   0.0000       1.333041        36.2739 
 240   0.0000       1.333589        36.2888 
 241   0.0000       1.338338        36.4180 
 242   0.0000       1.343688        36.5636 
 243   0.0000       1.351607        36.7791 
 244   0.0000       1.361581        37.0505 
 245   0.0000       1.390457        37.8363 
 246   0.0000       1.412097        38.4251 
 247   0.0000       1.413088        38.4521 
 248   0.0000       1.425317        38.7848 
 249   0.0000       1.426260        38.8105 
 250   0.0000       1.445479        39.3335 
 251   0.0000       1.456575        39.6354 
 252   0.0000       1.462096        39.7857 
 253   0.0000       1.472639        40.0725 
 254   0.0000       1.476138        40.1677 
 255   0.0000       1.476481        40.1771 
 256   0.0000       1.486919        40.4611 
 257   0.0000       1.499768        40.8108 
 258   0.0000       1.509164        41.0664 
 259   0.0000       1.517337        41.2889 
 260   0.0000       1.526057        41.5261 
 261   0.0000       1.551053        42.2063 
 262   0.0000       1.557915        42.3930 
 263   0.0000       1.560211        42.4555 
 264   0.0000       1.585686        43.1487 
 265   0.0000       1.594470        43.3877 
 266   0.0000       1.595825        43.4246 
 267   0.0000       1.607939        43.7542 
 268   0.0000       1.613681        43.9105 
 269   0.0000       1.615784        43.9677 
 270   0.0000       1.628512        44.3141 
 271   0.0000       1.629712        44.3467 
 272   0.0000       1.631282        44.3894 
 273   0.0000       1.632037        44.4100 
 274   0.0000       1.639226        44.6056 
 275   0.0000       1.646107        44.7928 
[...]
  Z           0.8637604            0.0857305            0.4965564

Notes:  (1) The A matrix conforms to the "SAI" spin Hamiltonian convention.
        (2) Tensor is right-handed.

 -----------------------------------------------------------
 Nucleus  43H : A:ISTP=    1 I=  0.5 P=533.5514 MHz/au**3
                Q:ISTP=    2 I=  1.0 Q=  0.0029 barn     
 -----------------------------------------------------------
 Solving for nuclear perturbation:
Forming RHS of the CP-SCF equations         ... 
Calc. nucleus orbit integrals (SHARK)       ... done

------------------------------------------------------------------------------
                           ORCA CP-SCF CALCULATION
------------------------------------------------------------------------------

Input orbitals are from        ... cc-pVDZ_i.gbw
Input Perturbation             ... cc-pVDZ_i.pin.tmp
Wavefunction output            ... cc-pVDZ_i.pout.tmp
Perturbation mode              ... Imaginary perturbation
Solver                         ... POPLE
Max. number of iterations      ... 64
Convergence tolerance          ... 1.000e-03
Integral handling              ... Direct
DFT GridXC                     ... 1
COSX GridX                     ... 1
COSX IntAccX                   ... 3.067
COSX Algorithm                 ... Auto
Number of perturbations        ... 3
Number of operators            ... 2
Orbital ranges used for CP-SCF:
 Operator 0:  Orbitals   0... 70  to  71...400
 Operator 1:  Orbitals   0... 69  to  70...400
Variables per perturbation     ... 46600
DFT calculation                         ... on
XC functional terms                     ... off
Hybrid DFT                              ... on
   Exchange mixing (SCF)                ...  0.200
   Exchange mixing (CP-SCF)             ...  0.200
   GGA exch. scaling(SCF)               ...  0.720
   GGA exch. scaling (CP-SCF)           ...  0.720
   GGA corr. scaling (SCF)              ...  0.810
   GGA corr. scaling (CP-SCF)           ...  0.810

CP-SCF GRID
-----------

General Integration Accuracy     IntAcc      ... 3.467
Radial Grid Type                 RadialGrid  ... OptM3 with GC (2021)
Angular Grid (max. ang.)         AngularGrid ... 1 (Lebedev-50)
Angular grid pruning method      GridPruning ... 4 (adaptive)
Weight generation scheme         WeightScheme... Becke
Basis function cutoff            BFCut       ... 1.0000e-10
Integration weight cutoff        WCut        ... 1.0000e-14
Angular grids for H and He will be reduced by one unit
Partially contracted basis set               ... off
Rotationally invariant grid construction     ... off

Total number of grid points                  ...    27867
Total number of batches                      ...      455
Average number of points per batch           ...       61
Average number of grid points per atom       ...      606

CP-SCF GRIDX
------------

General Integration Accuracy     IntAcc      ... 3.067
Radial Grid Type                 RadialGrid  ... OptM3 with GC (2021)
Angular Grid (max. ang.)         AngularGrid ... 1 (Lebedev-50)
Angular grid pruning method      GridPruning ... 4 (adaptive)
Weight generation scheme         WeightScheme... Becke
Basis function cutoff            BFCut       ... 1.0000e-10
Integration weight cutoff        WCut        ... 1.0000e-14
Angular grids for H and He will be reduced by one unit
Partially contracted basis set               ... on
Rotationally invariant grid construction     ... off

Total number of grid points                  ...    13256
Total number of batches                      ...      234
Average number of points per batch           ...       56
Average number of grid points per atom       ...      288

Memory available               ... 896.0 MB
Memory needed per perturbation ...  10.1 MB
Perturbations treated per batch... 3
Number of batches              ... 1
     CP-SCF ITERATION   0:   1.0047e-01 (   1.4 sec   0/  3 done)
     CP-SCF ITERATION   1:   1.5302e-03 (   1.4 sec   2/  3 done)
     CP-SCF ITERATION   2:   8.0785e-05 (   1.0 sec   3/  3 done)
                    *** THE CP-SCF HAS CONVERGED ***

Forming final perturbed densities           ... done
Transforming perturbed density to AO basis  ... done

 Raw HFC matrix (all values in MHz): 
 -----------------------------------
                -0.0437              -0.0595               0.0021
                -0.0596               0.1097              -0.0061
                 0.0021              -0.0061              -0.0654

 A(FC)           0.0002               0.0002               0.0002
 A(SD)          -0.0643              -0.0658               0.1301
 A(ORB+DIA)      0.0000               0.0000               0.0000    A(PC) =   0.0000
 A(ORB)         -0.0000              -0.0000               0.0000    A(PC) =  -0.0000
 A(DIA)          0.0000               0.0000               0.0000    A(PC) =   0.0000
             ----------           ----------           ----------
 A(Tot)         -0.0641              -0.0656               0.1303    A(iso)=    0.0002
 Orientation: 
  X           0.9458667           -0.0185525            0.3240247
  Y           0.3244496            0.0285594           -0.9454717
  Z           0.0082870            0.9994199            0.0330328

Notes:  (1) The A matrix conforms to the "SAI" spin Hamiltonian convention.
        (2) Tensor is right-handed.

 -----------------------------------------------------------
 Nucleus  44H : A:ISTP=    1 I=  0.5 P=533.5514 MHz/au**3
                Q:ISTP=    2 I=  1.0 Q=  0.0029 barn     
 -----------------------------------------------------------
 Solving for nuclear perturbation:
Forming RHS of the CP-SCF equations         ... 
Calc. nucleus orbit integrals (SHARK)       ... done

------------------------------------------------------------------------------
                           ORCA CP-SCF CALCULATION
------------------------------------------------------------------------------

Input orbitals are from        ... cc-pVDZ_i.gbw
Input Perturbation             ... cc-pVDZ_i.pin.tmp
Wavefunction output            ... cc-pVDZ_i.pout.tmp
Perturbation mode              ... Imaginary perturbation
Solver                         ... POPLE
Max. number of iterations      ... 64
Convergence tolerance          ... 1.000e-03
Integral handling              ... Direct
DFT GridXC                     ... 1
COSX GridX                     ... 1
COSX IntAccX                   ... 3.067
COSX Algorithm                 ... Auto
Number of perturbations        ... 3
Number of operators            ... 2
Orbital ranges used for CP-SCF:
 Operator 0:  Orbitals   0... 70  to  71...400
 Operator 1:  Orbitals   0... 69  to  70...400
Variables per perturbation     ... 46600
DFT calculation                         ... on
XC functional terms                     ... off
Hybrid DFT                              ... on
   Exchange mixing (SCF)                ...  0.200
   Exchange mixing (CP-SCF)             ...  0.200
   GGA exch. scaling(SCF)               ...  0.720
   GGA exch. scaling (CP-SCF)           ...  0.720
   GGA corr. scaling (SCF)              ...  0.810
   GGA corr. scaling (CP-SCF)           ...  0.810

CP-SCF GRID
-----------

General Integration Accuracy     IntAcc      ... 3.467
Radial Grid Type                 RadialGrid  ... OptM3 with GC (2021)
Angular Grid (max. ang.)         AngularGrid ... 1 (Lebedev-50)
Angular grid pruning method      GridPruning ... 4 (adaptive)
Weight generation scheme         WeightScheme... Becke
Basis function cutoff            BFCut       ... 1.0000e-10
Integration weight cutoff        WCut        ... 1.0000e-14
Angular grids for H and He will be reduced by one unit
Partially contracted basis set               ... off
Rotationally invariant grid construction     ... off

Total number of grid points                  ...    27867
Total number of batches                      ...      455
Average number of points per batch           ...       61
Average number of grid points per atom       ...      606

CP-SCF GRIDX
------------

General Integration Accuracy     IntAcc      ... 3.067
Radial Grid Type                 RadialGrid  ... OptM3 with GC (2021)
Angular Grid (max. ang.)         AngularGrid ... 1 (Lebedev-50)
Angular grid pruning method      GridPruning ... 4 (adaptive)
Weight generation scheme         WeightScheme... Becke
Basis function cutoff            BFCut       ... 1.0000e-10
Integration weight cutoff        WCut        ... 1.0000e-14
Angular grids for H and He will be reduced by one unit
Partially contracted basis set               ... on
Rotationally invariant grid construction     ... off

Total number of grid points                  ...    13256
Total number of batches                      ...      234
Average number of points per batch           ...       56
Average number of grid points per atom       ...      288

Memory available               ... 895.6 MB
Memory needed per perturbation ...  10.1 MB
Perturbations treated per batch... 3
Number of batches              ... 1
     CP-SCF ITERATION   0:   3.6531e-02 (   1.5 sec   0/  3 done)
     CP-SCF ITERATION   1:   5.7378e-04 (   1.4 sec   3/  3 done)
                    *** THE CP-SCF HAS CONVERGED ***

Forming final perturbed densities           ... done
Transforming perturbed density to AO basis  ... done

 Raw HFC matrix (all values in MHz): 
 -----------------------------------
                -0.0130               0.0081              -0.0002
                 0.0081               0.0277              -0.0008
                -0.0002              -0.0008              -0.0146

 A(FC)           0.0000               0.0000               0.0000
 A(SD)          -0.0146              -0.0146               0.0292
 A(ORB+DIA)      0.0000               0.0000               0.0000    A(PC) =   0.0000
 A(ORB)         -0.0000              -0.0000               0.0000    A(PC) =  -0.0000
 A(DIA)          0.0000               0.0000               0.0000    A(PC) =   0.0000
             ----------           ----------           ----------
 A(Tot)         -0.0146              -0.0146               0.0292    A(iso)=    0.0000
 Orientation: 
  X           0.9817693           -0.0166488           -0.1893458
  Y          -0.1889487            0.0228681           -0.9817207
  Z           0.0206744            0.9995999            0.0193054

Notes:  (1) The A matrix conforms to the "SAI" spin Hamiltonian convention.
        (2) Tensor is right-handed.

 -----------------------------------------------------------
 Nucleus  45H : A:ISTP=    1 I=  0.5 P=533.5514 MHz/au**3
                Q:ISTP=    2 I=  1.0 Q=  0.0029 barn     
 -----------------------------------------------------------
 Solving for nuclear perturbation:
Forming RHS of the CP-SCF equations         ... 
Calc. nucleus orbit integrals (SHARK)       ... done

------------------------------------------------------------------------------
                           ORCA CP-SCF CALCULATION
------------------------------------------------------------------------------

Input orbitals are from        ... cc-pVDZ_i.gbw
Input Perturbation             ... cc-pVDZ_i.pin.tmp
Wavefunction output            ... cc-pVDZ_i.pout.tmp
Perturbation mode              ... Imaginary perturbation
Solver                         ... POPLE
Max. number of iterations      ... 64
Convergence tolerance          ... 1.000e-03
Integral handling              ... Direct
DFT GridXC                     ... 1
COSX GridX                     ... 1
COSX IntAccX                   ... 3.067
COSX Algorithm                 ... Auto
Number of perturbations        ... 3
Number of operators            ... 2
Orbital ranges used for CP-SCF:
 Operator 0:  Orbitals   0... 70  to  71...400
 Operator 1:  Orbitals   0... 69  to  70...400
Variables per perturbation     ... 46600
DFT calculation                         ... on
XC functional terms                     ... off
Hybrid DFT                              ... on
   Exchange mixing (SCF)                ...  0.200
   Exchange mixing (CP-SCF)             ...  0.200
   GGA exch. scaling(SCF)               ...  0.720
   GGA exch. scaling (CP-SCF)           ...  0.720
   GGA corr. scaling (SCF)              ...  0.810
   GGA corr. scaling (CP-SCF)           ...  0.810

CP-SCF GRID
-----------

General Integration Accuracy     IntAcc      ... 3.467
Radial Grid Type                 RadialGrid  ... OptM3 with GC (2021)
Angular Grid (max. ang.)         AngularGrid ... 1 (Lebedev-50)
Angular grid pruning method      GridPruning ... 4 (adaptive)
Weight generation scheme         WeightScheme... Becke
Basis function cutoff            BFCut       ... 1.0000e-10
Integration weight cutoff        WCut        ... 1.0000e-14
Angular grids for H and He will be reduced by one unit
Partially contracted basis set               ... off
Rotationally invariant grid construction     ... off

Total number of grid points                  ...    27867
Total number of batches                      ...      455
Average number of points per batch           ...       61
Average number of grid points per atom       ...      606

CP-SCF GRIDX
------------

General Integration Accuracy     IntAcc      ... 3.067
Radial Grid Type                 RadialGrid  ... OptM3 with GC (2021)
Angular Grid (max. ang.)         AngularGrid ... 1 (Lebedev-50)
Angular grid pruning method      GridPruning ... 4 (adaptive)
Weight generation scheme         WeightScheme... Becke
Basis function cutoff            BFCut       ... 1.0000e-10
Integration weight cutoff        WCut        ... 1.0000e-14
Angular grids for H and He will be reduced by one unit
Partially contracted basis set               ... on
Rotationally invariant grid construction     ... off

Total number of grid points                  ...    13256
Total number of batches                      ...      234
Average number of points per batch           ...       56
Average number of grid points per atom       ...      288

Memory available               ... 895.2 MB
Memory needed per perturbation ...  10.1 MB
Perturbations treated per batch... 3
Number of batches              ... 1
     CP-SCF ITERATION   0:   4.2803e-02 (   1.5 sec   0/  3 done)
     CP-SCF ITERATION   1:   1.6700e-03 (   1.4 sec   2/  3 done)
     CP-SCF ITERATION   2:   7.5145e-05 (   0.9 sec   3/  3 done)
                    *** THE CP-SCF HAS CONVERGED ***

Forming final perturbed densities           ... done
Transforming perturbed density to AO basis  ... done

 Raw HFC matrix (all values in MHz): 
 -----------------------------------
                -0.0327               0.0694              -0.0013
                 0.0694               0.0964              -0.0030
                -0.0013              -0.0030              -0.0644

 A(FC)          -0.0003              -0.0003              -0.0003
 A(SD)          -0.0627              -0.0642               0.1269
 A(ORB+DIA)      0.0000               0.0000               0.0000    A(PC) =   0.0000
 A(ORB)         -0.0000              -0.0000               0.0000    A(PC) =  -0.0000
 A(DIA)          0.0000               0.0000               0.0000    A(PC) =   0.0000
             ----------           ----------           ----------
 A(Tot)         -0.0629              -0.0645               0.1267    A(iso)=   -0.0002
 Orientation: 
  X           0.9167006           -0.0180970           -0.3991648
  Y          -0.3986547            0.0263348           -0.9167229
  Z           0.0271019            0.9994894            0.0169267

Notes:  (1) The A matrix conforms to the "SAI" spin Hamiltonian convention.
        (2) Tensor is right-handed.


--------------------------------------------------------------------------------
----------------------------------------------------------------------------
                           ORCA EULER ANGLE PROGRAM
----------------------------------------------------------------------------

Only g-tensor available        -->  using g-tensor as reference tensor

Reference tensor               ...  g

g-tensor ordering              ...  |g_min> --> |gx>
                                    |g_mid> --> |gy>
                                    |g_max> --> |gz>

A- and EFG-tensor ordering     ...  the axes |Ax>, |Qx>, |Ay>, etc. are assigned
                                    such that the Euler rotation is minimal. You
                                    can find the respective eigenvalues as Ax,
                                    EFGx, Ay, etc. in the tables below.
                                    The relation of |Ax>, |Ay>,  etc. to Amin, Amid, etc.
                                    (as printed in the ORCA EPR/NMR CALCULATION Output)
                                    is obtained in the detailed printout.

Euler rotation around          ...  z - y - z
   First rotation              -->  by alpha around z
   Second rotation             -->  by beta around y'
   Third rotation              -->  by gamma around z''
   Positive / Negative angle   -->  clockwise / counterclockwise rotation

Plot EFG-tensors                    (-)
Plot HFC-tensors                    (-)
Detailed Printout                   (-)

-------------------------------------------------------------------------
          Euler rotation of hyperfine tensor to g-tensor
-------------------------------------------------------------------------

-------------------------------------------------------------------
 Atom  |   Alpha    Beta    Gamma   |   Ax       Ay       Az 
       |          [degrees]         |           [MHz]         
-------------------------------------------------------------------
  7H      -95.1      0.7     63.2      -0.04     0.10    -0.04
  8H      -70.9      0.7     59.5      -0.13     0.28    -0.15
 10H       34.6      5.6    -50.6      -0.04     0.07    -0.04
 11H     -136.1      6.8    120.0      -0.04     0.07    -0.04
 13H       35.9      5.4    -62.1      -0.03     0.06    -0.03
 14H     -129.3      5.5    103.0      -0.03     0.06    -0.03
 16H     -143.4      6.5    124.8      -0.02     0.04    -0.02
 17H       27.3      5.9    -45.8      -0.02     0.04    -0.02
 19H     -111.8      3.8     84.8      -0.02     0.03    -0.02
 20H       68.6      2.9    -95.6      -0.02     0.03    -0.02
 22H      -16.3     34.3    -26.4      -0.19     0.38    -0.23
 23H      166.3     33.9    151.5      -0.19     0.38    -0.23
 25H       17.1     42.1    -27.2      -0.35     0.58    -0.47
 26H     -160.8     42.0    151.2      -0.35     0.58    -0.47
 28H       62.0     33.7    -21.0       1.51    -0.37    -0.60
 29H     -115.4     34.0    156.9       1.52    -0.36    -0.59
 31H     -153.3     43.8    157.0      -1.29     1.85    -2.16
 32H       24.5     43.3    -21.5      -1.28     1.85    -2.16
 34H     -137.7     41.3    160.5       4.16    -5.53    -8.96
 35H       40.0     40.7    -17.8       4.15    -5.54    -8.96
 37H      140.1     36.2   -135.1      24.11    37.99    23.68
 38H      -41.8     37.4     46.5      23.89    37.76    23.45
 40H      -96.2     31.6    101.8     -59.14   -96.22   -18.04
 41H       83.0     30.0    -77.5     -59.14   -96.21   -18.04
 43H      -25.4      0.8     62.5       0.13    -0.06    -0.07
 44H     -102.7      0.5     79.7      -0.01     0.03    -0.01
 45H      -76.5      0.7     66.0      -0.06     0.13    -0.06
-------------------------------------------------------------------


Maximum memory used throughout the entire EPRNMR-calculation: 181.9 MB

Timings for individual modules:

Sum of individual times         ...     3269.993 sec (=  54.500 min)
GTO integral calculation        ...        4.167 sec (=   0.069 min)   0.1 %
Spin-Orbit-Coupling Matrices    ...        7.507 sec (=   0.125 min)   0.2 %
SCF iterations                  ...       23.185 sec (=   0.386 min)   0.7 %
EPR/NMR calculation             ...     3235.133 sec (=  53.919 min)  98.9 %
                             ****ORCA TERMINATED NORMALLY****
TOTAL RUN TIME: 0 days 0 hours 54 minutes 34 seconds 124 msec
