
                                 *****************
                                 * O   R   C   A *
                                 *****************

                                            #,                                       
                                            ###                                      
                                            ####                                     
                                            #####                                    
                                            ######                                   
                                           ########,                                 
                                     ,,################,,,,,                         
                               ,,#################################,,                 
                          ,,##########################################,,             
                       ,#########################################, ''#####,          
                    ,#############################################,,   '####,        
                  ,##################################################,,,,####,       
                ,###########''''           ''''###############################       
              ,#####''   ,,,,##########,,,,          '''####'''          '####       
            ,##' ,,,,###########################,,,                        '##       
           ' ,,###''''                  '''############,,,                           
         ,,##''                                '''############,,,,        ,,,,,,###''
      ,#''                                            '''#######################'''  
     '                                                          ''''####''''         
             ,#######,   #######,   ,#######,      ##                                
            ,#'     '#,  ##    ##  ,#'     '#,    #''#        ######   ,####,        
            ##       ##  ##   ,#'  ##            #'  '#       #        #'  '#        
            ##       ##  #######   ##           ,######,      #####,   #    #        
            '#,     ,#'  ##    ##  '#,     ,#' ,#      #,         ##   #,  ,#        
             '#######'   ##     ##  '#######'  #'      '#     #####' # '####'        



                  #######################################################
                  #                        -***-                        #
                  #          Department of theory and spectroscopy      #
                  #    Directorship and core code : Frank Neese         #
                  #        Max Planck Institute fuer Kohlenforschung    #
                  #                Kaiser Wilhelm Platz 1               #
                  #                 D-45470 Muelheim/Ruhr               #
                  #                      Germany                        #
                  #                                                     #
                  #                  All rights reserved                #
                  #                        -***-                        #
                  #######################################################


                         Program Version 5.0.4 -  RELEASE  -


 With contributions from (in alphabetic order):
   Daniel Aravena         : Magnetic Suceptibility
   Michael Atanasov       : Ab Initio Ligand Field Theory (pilot matlab implementation)
   Alexander A. Auer      : GIAO ZORA, VPT2 properties, NMR spectrum
   Ute Becker             : Parallelization
   Giovanni Bistoni       : ED, misc. LED, open-shell LED, HFLD
   Martin Brehm           : Molecular dynamics
   Dmytro Bykov           : SCF Hessian
   Vijay G. Chilkuri      : MRCI spin determinant printing, contributions to CSF-ICE
   Dipayan Datta          : RHF DLPNO-CCSD density
   Achintya Kumar Dutta   : EOM-CC, STEOM-CC
   Dmitry Ganyushin       : Spin-Orbit,Spin-Spin,Magnetic field MRCI
   Miquel Garcia          : C-PCM and meta-GGA Hessian, CC/C-PCM, Gaussian charge scheme
   Yang Guo               : DLPNO-NEVPT2, F12-NEVPT2, CIM, IAO-localization
   Andreas Hansen         : Spin unrestricted coupled pair/coupled cluster methods
   Benjamin Helmich-Paris : MC-RPA, TRAH-SCF, COSX integrals
   Lee Huntington         : MR-EOM, pCC
   Robert Izsak           : Overlap fitted RIJCOSX, COSX-SCS-MP3, EOM
   Marcus Kettner         : VPT2
   Christian Kollmar      : KDIIS, OOCD, Brueckner-CCSD(T), CCSD density, CASPT2, CASPT2-K
   Simone Kossmann        : Meta GGA functionals, TD-DFT gradient, OOMP2, MP2 Hessian
   Martin Krupicka        : Initial AUTO-CI
   Lucas Lang             : DCDCAS
   Marvin Lechner         : AUTO-CI (C++ implementation), FIC-MRCC
   Dagmar Lenk            : GEPOL surface, SMD
   Dimitrios Liakos       : Extrapolation schemes; Compound Job, initial MDCI parallelization
   Dimitrios Manganas     : Further ROCIS development; embedding schemes
   Dimitrios Pantazis     : SARC Basis sets
   Anastasios Papadopoulos: AUTO-CI, single reference methods and gradients
   Taras Petrenko         : DFT Hessian,TD-DFT gradient, ASA, ECA, R-Raman, ABS, FL, XAS/XES, NRVS
   Peter Pinski           : DLPNO-MP2, DLPNO-MP2 Gradient
   Christoph Reimann      : Effective Core Potentials
   Marius Retegan         : Local ZFS, SOC
   Christoph Riplinger    : Optimizer, TS searches, QM/MM, DLPNO-CCSD(T), (RO)-DLPNO pert. Triples
   Tobias Risthaus        : Range-separated hybrids, TD-DFT gradient, RPA, STAB
   Michael Roemelt        : Original ROCIS implementation
   Masaaki Saitow         : Open-shell DLPNO-CCSD energy and density
   Barbara Sandhoefer     : DKH picture change effects
   Avijit Sen             : IP-ROCIS
   Kantharuban Sivalingam : CASSCF convergence, NEVPT2, FIC-MRCI
   Bernardo de Souza      : ESD, SOC TD-DFT
   Georgi Stoychev        : AutoAux, RI-MP2 NMR, DLPNO-MP2 response
   Willem Van den Heuvel  : Paramagnetic NMR
   Boris Wezisla          : Elementary symmetry handling
   Frank Wennmohs         : Technical directorship


 We gratefully acknowledge several colleagues who have allowed us to
 interface, adapt or use parts of their codes:
   Stefan Grimme, W. Hujo, H. Kruse, P. Pracht,  : VdW corrections, initial TS optimization,
                  C. Bannwarth, S. Ehlert          DFT functionals, gCP, sTDA/sTD-DF
   Ed Valeev, F. Pavosevic, A. Kumar             : LibInt (2-el integral package), F12 methods
   Garnet Chan, S. Sharma, J. Yang, R. Olivares  : DMRG
   Ulf Ekstrom                                   : XCFun DFT Library
   Mihaly Kallay                                 : mrcc  (arbitrary order and MRCC methods)
   Jiri Pittner, Ondrej Demel                    : Mk-CCSD
   Frank Weinhold                                : gennbo (NPA and NBO analysis)
   Christopher J. Cramer and Donald G. Truhlar   : smd solvation model
   Lars Goerigk                                  : TD-DFT with DH, B97 family of functionals
   V. Asgeirsson, H. Jonsson                     : NEB implementation
   FAccTs GmbH                                   : IRC, NEB, NEB-TS, DLPNO-Multilevel, CI-OPT
                                                   MM, QMMM, 2- and 3-layer-ONIOM, Crystal-QMMM,
                                                   LR-CPCM, SF, NACMEs, symmetry and pop. for TD-DFT,
                                                   nearIR, NL-DFT gradient (VV10), updates on ESD,
                                                   ML-optimized integration grids
   S Lehtola, MJT Oliveira, MAL Marques          : LibXC Library
   Liviu Ungur et al                             : ANISO software


 Your calculation uses the libint2 library for the computation of 2-el integrals
 For citations please refer to: http://libint.valeyev.net

 Your ORCA version has been built with support for libXC version: 5.1.0
 For citations please refer to: https://tddft.org/programs/libxc/

 This ORCA versions uses:
   CBLAS   interface :  Fast vector & matrix operations
   LAPACKE interface :  Fast linear algebra routines
   SCALAPACK package :  Parallel linear algebra routines
   Shared memory     :  Shared parallel matrices
   BLAS/LAPACK       :  OpenBLAS 0.3.15  USE64BITINT DYNAMIC_ARCH NO_AFFINITY SkylakeX SINGLE_THREADED
        Core in use  :  SkylakeX
   Copyright (c) 2011-2014, The OpenBLAS Project




***************************************
The coordinates will be read from file: opt.xyz
***************************************


================================================================================

----- Orbital basis set information -----
Your calculation utilizes the basis: cc-pVDZ 
       H, B-Ne : Obtained from the ccRepo (grant-hill.group.shef.ac.uk/ccrepo) Feb. 2017
                 T. H. Dunning, Jr., J. Chem. Phys. 90, 1007 (1989)
            He : Obtained from the ccRepo (grant-hill.group.shef.ac.uk/ccrepo) Feb. 2017
                 D. E. Woon, T. H. Dunning, Jr., J. Chem. Phys. 100, 2975 (1994)
  Li-Be, Na-Mg : Obtained from the ccRepo (grant-hill.group.shef.ac.uk/ccrepo) Feb. 2017
                 B. P. Prascher, D. E. Woon, K. A. Peterson, T. H. Dunning, Jr., A. K. Wilson, Theor. Chem. Acc. 128, 69 (2011)
         Al-Ar : Obtained from the ccRepo (grant-hill.group.shef.ac.uk/ccrepo) Feb. 2017
                 D. E. Woon, T. H. Dunning, Jr., J. Chem. Phys. 98, 1358 (1993)
            Ca : Obtained from the Peterson Research Group Website (tyr0.chem.wsu.edu/~kipeters) Feb. 2017
                 J. Koput, K. A. Peterson, J. Phys. Chem. 106, 9595 (2002)
         Sc-Zn : Obtained from the ccRepo (grant-hill.group.shef.ac.uk/ccrepo) Feb. 2017
                 N. B. Balabanov, K. A. Peterson, J. Chem. Phys. 123, 064107 (2005)
                 N. B. Balabanov, K. A. Peterson, J. Chem. Phys. 125, 074110 (2006)
         Ga-Kr : Obtained from the ccRepo (grant-hill.group.shef.ac.uk/ccrepo) Feb. 2017
                 A. K. Wilson, D. E. Woon, K. A. Peterson, T. H. Dunning, Jr., J. Chem. Phys. 110, 7667 (1999)

----- AuxJ basis set information -----
Your calculation utilizes the AutoAux generation procedure.
  G. L. Stoychev, A. A. Auer, F. Neese, J. Chem. Theory Comput. 13, 554 (2017)

----- AuxC basis set information -----
Your calculation utilizes the AutoAux generation procedure.
  G. L. Stoychev, A. A. Auer, F. Neese, J. Chem. Theory Comput. 13, 554 (2017)

----- AuxJK basis set information -----
Your calculation utilizes the AutoAux generation procedure.
  G. L. Stoychev, A. A. Auer, F. Neese, J. Chem. Theory Comput. 13, 554 (2017)

================================================================================
                                        WARNINGS
                       Please study these warnings very carefully!
================================================================================

WARNING: Old DensityContainer found on disk!
         Will remove this file - 
         If you want to keep old densities, please start your calculation with a different basename. 


WARNING: your system is open-shell and RHF/RKS was chosen
  ===> : WILL SWITCH to UHF/UKS


INFO   : the flag for use of the SHARK integral package has been found!

================================================================================
                                       INPUT FILE
================================================================================
NAME = cc-pVDZ.inp
|  1> ! B3LYP cc-pVDZ AUTOAUX
|  2> %pal nprocs 16 end
|  3> *XYZFile 0 2 opt.xyz
|  4> %EPRNMR
|  5>         GTENSOR   TRUE
|  6>         NUCLEI    = ALL H {SHIFT, AISO, ADIP, AORB}
|  7>         ORI       CenterOfElCharge
|  8> END
|  9> 
| 10>                          ****END OF INPUT****
================================================================================

                       ****************************
                       * Single Point Calculation *
                       ****************************

---------------------------------
CARTESIAN COORDINATES (ANGSTROEM)
---------------------------------
  C      4.260893   -0.079127   -0.043591
  C      0.045387   -0.014079   -0.133807
  C      0.704757   -1.253015   -0.085632
  C      2.101931   -1.235147   -0.057350
  C      2.827985   -0.025998   -0.075534
  C      2.154195    1.220084   -0.123807
  C      0.753332    1.188758   -0.152097
  H      2.668495   -2.165884   -0.020281
  H      0.193946    2.124579   -0.189644
  C     -0.111949   -2.534903   -0.064556
  H     -0.786166   -2.529706   -0.941570
  H     -0.783040   -2.503561    0.814548
  C      0.667170   -3.852699   -0.045898
  H      1.334018   -3.903925   -0.926359
  H      1.326150   -3.884500    0.841308
  C     -0.246311   -5.084124   -0.035413
  H     -0.916771   -5.033046    0.842757
  H     -0.906915   -5.055142   -0.922002
  C      0.524988   -6.406261   -0.014444
  H      1.168051   -6.480501    0.879526
  H      1.177898   -6.502965   -0.899066
  C      2.952208    2.510100   -0.142411
  H      3.610046    2.523794    0.746200
  H      3.648976    2.474747   -1.000122
  C      2.153064    3.815083   -0.196314
  H      1.507351    3.823318   -1.093673
  H      1.473136    3.874674    0.673437
  C      3.051950    5.057494   -0.215340
  H      3.705089    5.050199    0.677686
  H      3.731774    5.003740   -1.086612
  C      2.270402    6.375297   -0.262074
  H      1.591515    6.428490    0.610416
  H      1.615926    6.380765   -1.154594
  C      3.165360    7.619459   -0.283638
  H      3.840573    7.577327   -1.158008
  H      3.819142    7.623303    0.607847
  C      2.361317    8.944123   -0.328166
  H      1.709747    8.920359   -1.221882
  H      1.689242    8.967418    0.550198
  C      3.214355   10.168422   -0.351043
  H      3.591753   10.606491    0.577387
  H      3.614830   10.555345   -1.292458
  C      5.475492   -0.133120   -0.017706
  H      6.546487   -0.180814    0.006549
  H     -0.157012   -7.272012   -0.007233
  H     -1.048373    0.011018   -0.157638

----------------------------
CARTESIAN COORDINATES (A.U.)
----------------------------
  NO LB      ZA    FRAG     MASS         X           Y           Z
   0 C     6.0000    0    12.011    8.051921   -0.149527   -0.082375
   1 C     6.0000    0    12.011    0.085769   -0.026606   -0.252858
   2 C     6.0000    0    12.011    1.331798   -2.367856   -0.161822
   3 C     6.0000    0    12.011    3.972075   -2.334090   -0.108376
   4 C     6.0000    0    12.011    5.344118   -0.049130   -0.142739
   5 C     6.0000    0    12.011    4.070839    2.305624   -0.233961
   6 C     6.0000    0    12.011    1.423591    2.246428   -0.287422
   7 H     1.0000    0     1.008    5.042724   -4.092928   -0.038325
   8 H     1.0000    0     1.008    0.366505    4.014872   -0.358375
   9 C     6.0000    0    12.011   -0.211552   -4.790273   -0.121992
  10 H     1.0000    0     1.008   -1.485639   -4.780452   -1.779310
  11 H     1.0000    0     1.008   -1.479730   -4.731045    1.539273
  12 C     6.0000    0    12.011    1.260769   -7.280546   -0.086736
  13 H     1.0000    0     1.008    2.520928   -7.377350   -1.750565
  14 H     1.0000    0     1.008    2.506061   -7.340641    1.589841
  15 C     6.0000    0    12.011   -0.465461   -9.607602   -0.066921
  16 H     1.0000    0     1.008   -1.732446   -9.511078    1.592581
  17 H     1.0000    0     1.008   -1.713821   -9.552835   -1.742332
  18 C     6.0000    0    12.011    0.992083  -12.106079   -0.027295
  19 H     1.0000    0     1.008    2.207296  -12.246371    1.662064
  20 H     1.0000    0     1.008    2.225904  -12.288822   -1.698988
  21 C     6.0000    0    12.011    5.578866    4.743402   -0.269117
  22 H     1.0000    0     1.008    6.821997    4.769279    1.410114
  23 H     1.0000    0     1.008    6.895565    4.676594   -1.889956
  24 C     6.0000    0    12.011    4.068702    7.209462   -0.370980
  25 H     1.0000    0     1.008    2.848481    7.225024   -2.066743
  26 H     1.0000    0     1.008    2.783823    7.322072    1.272612
  27 C     6.0000    0    12.011    5.767350    9.557279   -0.406934
  28 H     1.0000    0     1.008    7.001603    9.543493    1.280641
  29 H     1.0000    0     1.008    7.052031    9.455698   -2.053399
  30 C     6.0000    0    12.011    4.290438   12.047566   -0.495248
  31 H     1.0000    0     1.008    3.007528   12.148085    1.153519
  32 H     1.0000    0     1.008    3.053658   12.057898   -2.181866
  33 C     6.0000    0    12.011    5.981664   14.398691   -0.535997
  34 H     1.0000    0     1.008    7.257631   14.319073   -2.188318
  35 H     1.0000    0     1.008    7.217132   14.405955    1.148665
  36 C     6.0000    0    12.011    4.462243   16.901943   -0.620145
  37 H     1.0000    0     1.008    3.230954   16.857035   -2.309022
  38 H     1.0000    0     1.008    3.192205   16.945964    1.039723
  39 C     6.0000    0    12.011    6.074251   19.215532   -0.663375
  40 H     1.0000    0     1.008    6.787430   20.043363    1.091103
  41 H     1.0000    0     1.008    6.831038   19.946710   -2.442393
  42 C     6.0000    0    12.011   10.347180   -0.251561   -0.033459
  43 H     1.0000    0     1.008   12.371067   -0.341690    0.012376
  44 H     1.0000    0     1.008   -0.296710  -13.742112   -0.013668
  45 H     1.0000    0     1.008   -1.981137    0.020820   -0.297893

--------------------------------
INTERNAL COORDINATES (ANGSTROEM)
--------------------------------
 C      0   0   0     0.000000000000     0.00000000     0.00000000
 C      1   0   0     4.216973050903     0.00000000     0.00000000
 C      2   1   0     1.404297663835    61.07157903     0.00000000
 C      3   2   1     1.397574938989   117.31081954   359.97574981
 C      4   3   2     1.410505485863   121.68836685     0.02957880
 C      5   4   3     1.417407170048   120.62203779     0.00000000
 C      2   1   3     1.395829163165    60.43327217   179.99025674
 H      4   3   2     1.090247485185   120.61650907   180.03591054
 H      7   2   1     1.090908691622   118.65991718   179.99821819
 C      3   2   1     1.520094892272   119.48523502   179.88447569
 H     10   3   2     1.106232804804   108.20987074    55.25002497
 H     10   3   2     1.106421646020   108.24053344   301.87619314
 C     10   3   2     1.530999771383   116.91141135   178.57054599
 H     13  10   3     1.105676426908   109.70002962   302.29864521
 H     13  10   3     1.105622267263   109.74601720    58.56061334
 C     13  10   3     1.533286186949   112.84168152   180.40549086
 H     16  13  10     1.106032877553   109.23749204   302.41768295
 H     16  13  10     1.106018995976   109.22712235    57.76765630
 C     16  13  10     1.530812900751   113.17649123   180.09341718
 H     19  16  13     1.103732092454   111.26880495    59.84756998
 H     19  16  13     1.103720125842   111.26903915   300.15197974
 C      6   5   4     1.517008437075   119.86353544   179.98649276
 H     22   6   5     1.105697286815   108.27913343   303.58225359
 H     22   6   5     1.105623015192   108.29062918    56.24301330
 C     22   6   5     1.531181618759   116.78396571   179.94186029
 H     25  22   6     1.105561635964   109.86168126   301.92989220
 H     25  22   6     1.105586778046   109.82910333    58.38772567
 C     25  22   6     1.533604625879   112.64225838   180.15998477
 H     28  25  22     1.106408163561   109.30815499   302.61138614
 H     28  25  22     1.106419619242   109.30198175    57.99734098
 C     28  25  22     1.532842714433   113.45350966   180.29336405
 H     31  28  25     1.106777006556   109.27074348    57.77947014
 H     31  28  25     1.106779430495   109.28913699   302.40788865
 C     31  28  25     1.532760128398   113.61337066   180.09916100
 H     34  31  28     1.105536344064   109.68231869    58.17317324
 H     34  31  28     1.105527048041   109.68044540   302.06525954
 C     34  31  28     1.550226867025   113.02738246   180.10848276
 H     37  34  31     1.106271241842   108.07910415   302.60001569
 H     37  34  31     1.106233160989   108.07679053    57.49168387
 C     37  34  31     1.492348336213   113.89018819   180.05530061
 H     40  37  34     1.093762176410   120.85021729   275.02677486
 H     40  37  34     1.093779008390   120.84323892    84.84498082
 C      1   2   3     1.216074245338   178.33904773     1.76439299
 H     43   1   5     1.072330402508   179.92346806   265.72951072
 H     19  16  13     1.102134827954   111.51533622   179.99665919
 H      2   1   3     1.094306812644   179.56910554   181.36193359

---------------------------
INTERNAL COORDINATES (A.U.)
---------------------------
 C      0   0   0     0.000000000000     0.00000000     0.00000000
 C      1   0   0     7.968924180334     0.00000000     0.00000000
 C      2   1   0     2.653737995154    61.07157903     0.00000000
 C      3   2   1     2.641033886321   117.31081954   359.97574981
 C      4   3   2     2.665469078675   121.68836685     0.02957880
 C      5   4   3     2.678511371647   120.62203779     0.00000000
 C      2   1   3     2.637734848122    60.43327217   179.99025674
 H      4   3   2     2.060269165196   120.61650907   180.03591054
 H      7   2   1     2.061518664279   118.65991718   179.99821819
 C      3   2   1     2.872563043966   119.48523502   179.88447569
 H     10   3   2     2.090477041439   108.20987074    55.25002497
 H     10   3   2     2.090833899621   108.24053344   301.87619314
 C     10   3   2     2.893170279010   116.91141135   178.57054599
 H     13  10   3     2.089425639588   109.70002962   302.29864521
 H     13  10   3     2.089323292692   109.74601720    58.56061334
 C     13  10   3     2.897490978258   112.84168152   180.40549086
 H     16  13  10     2.090099233689   109.23749204   302.41768295
 H     16  13  10     2.090073001309   109.22712235    57.76765630
 C     16  13  10     2.892817144693   113.17649123   180.09341718
 H     19  16  13     2.085751379957   111.26880495    59.84756998
 H     19  16  13     2.085728766339   111.26903915   300.15197974
 C      6   5   4     2.866730488921   119.86353544   179.98649276
 H     22   6   5     2.089465059100   108.27913343   303.58225359
 H     22   6   5     2.089324706072   108.29062918    56.24301330
 C     22   6   5     2.893513920748   116.78396571   179.94186029
 H     25  22   6     2.089208716142   109.86168126   301.92989220
 H     25  22   6     2.089256227791   109.82910333    58.38772567
 C     25  22   6     2.898092740626   112.64225838   180.15998477
 H     28  25  22     2.090808421465   109.30815499   302.61138614
 H     28  25  22     2.090830069566   109.30198175    57.99734098
 C     28  25  22     2.896652936654   113.45350966   180.29336405
 H     31  28  25     2.091505433712   109.27074348    57.77947014
 H     31  28  25     2.091510014293   109.28913699   302.40788865
 C     31  28  25     2.896496871666   113.61337066   180.09916100
 H     34  31  28     2.089160921378   109.68231869    58.17317324
 H     34  31  28     2.089143354440   109.68044540   302.06525954
 C     34  31  28     2.929504224124   113.02738246   180.10848276
 H     37  34  31     2.090549676915   108.07910415   302.60001569
 H     37  34  31     2.090477714531   108.07679053    57.49168387
 C     37  34  31     2.820129651856   113.89018819   180.05530061
 H     40  37  34     2.066910969057   120.85021729   275.02677486
 H     40  37  34     2.066942776888   120.84323892    84.84498082
 C      1   2   3     2.298047282204   178.33904773     1.76439299
 H     43   1   5     2.026410785818   179.92346806   265.72951072
 H     19  16  13     2.082732987490   111.51533622   179.99665919
 H      2   1   3     2.067940182381   179.56910554   181.36193359

---------------------
BASIS SET INFORMATION
---------------------
There are 2 groups of distinct atoms

 Group   1 Type C   : 17s4p1d contracted to 3s2p1d pattern {881/31/1}
 Group   2 Type H   : 4s1p contracted to 2s1p pattern {31/1}

Atom   0C    basis set group =>   1
Atom   1C    basis set group =>   1
Atom   2C    basis set group =>   1
Atom   3C    basis set group =>   1
Atom   4C    basis set group =>   1
Atom   5C    basis set group =>   1
Atom   6C    basis set group =>   1
Atom   7H    basis set group =>   2
Atom   8H    basis set group =>   2
Atom   9C    basis set group =>   1
Atom  10H    basis set group =>   2
Atom  11H    basis set group =>   2
Atom  12C    basis set group =>   1
Atom  13H    basis set group =>   2
Atom  14H    basis set group =>   2
Atom  15C    basis set group =>   1
Atom  16H    basis set group =>   2
Atom  17H    basis set group =>   2
Atom  18C    basis set group =>   1
Atom  19H    basis set group =>   2
Atom  20H    basis set group =>   2
Atom  21C    basis set group =>   1
Atom  22H    basis set group =>   2
Atom  23H    basis set group =>   2
Atom  24C    basis set group =>   1
Atom  25H    basis set group =>   2
Atom  26H    basis set group =>   2
Atom  27C    basis set group =>   1
Atom  28H    basis set group =>   2
Atom  29H    basis set group =>   2
Atom  30C    basis set group =>   1
Atom  31H    basis set group =>   2
Atom  32H    basis set group =>   2
Atom  33C    basis set group =>   1
Atom  34H    basis set group =>   2
Atom  35H    basis set group =>   2
Atom  36C    basis set group =>   1
Atom  37H    basis set group =>   2
Atom  38H    basis set group =>   2
Atom  39C    basis set group =>   1
Atom  40H    basis set group =>   2
Atom  41H    basis set group =>   2
Atom  42C    basis set group =>   1
Atom  43H    basis set group =>   2
Atom  44H    basis set group =>   2
Atom  45H    basis set group =>   2
---------------------------------
AUXILIARY/J BASIS SET INFORMATION
---------------------------------
There are 2 groups of distinct atoms

 Group   1 Type C   : 14s11p10d2f contracted to 14s11p10d2f pattern {11111111111111/11111111111/1111111111/11}
 Group   2 Type H   : 9s2p1d contracted to 9s2p1d pattern {111111111/11/1}

Atom   0C    basis set group =>   1
Atom   1C    basis set group =>   1
Atom   2C    basis set group =>   1
Atom   3C    basis set group =>   1
Atom   4C    basis set group =>   1
Atom   5C    basis set group =>   1
Atom   6C    basis set group =>   1
Atom   7H    basis set group =>   2
Atom   8H    basis set group =>   2
Atom   9C    basis set group =>   1
Atom  10H    basis set group =>   2
Atom  11H    basis set group =>   2
Atom  12C    basis set group =>   1
Atom  13H    basis set group =>   2
Atom  14H    basis set group =>   2
Atom  15C    basis set group =>   1
Atom  16H    basis set group =>   2
Atom  17H    basis set group =>   2
Atom  18C    basis set group =>   1
Atom  19H    basis set group =>   2
Atom  20H    basis set group =>   2
Atom  21C    basis set group =>   1
Atom  22H    basis set group =>   2
Atom  23H    basis set group =>   2
Atom  24C    basis set group =>   1
Atom  25H    basis set group =>   2
Atom  26H    basis set group =>   2
Atom  27C    basis set group =>   1
Atom  28H    basis set group =>   2
Atom  29H    basis set group =>   2
Atom  30C    basis set group =>   1
Atom  31H    basis set group =>   2
Atom  32H    basis set group =>   2
Atom  33C    basis set group =>   1
Atom  34H    basis set group =>   2
Atom  35H    basis set group =>   2
Atom  36C    basis set group =>   1
Atom  37H    basis set group =>   2
Atom  38H    basis set group =>   2
Atom  39C    basis set group =>   1
Atom  40H    basis set group =>   2
Atom  41H    basis set group =>   2
Atom  42C    basis set group =>   1
Atom  43H    basis set group =>   2
Atom  44H    basis set group =>   2
Atom  45H    basis set group =>   2
---------------------------------
AUXILIARY/C BASIS SET INFORMATION
---------------------------------
There are 2 groups of distinct atoms

 Group   1 Type C   : 14s11p10d2f contracted to 14s11p10d2f pattern {11111111111111/11111111111/1111111111/11}
 Group   2 Type H   : 9s2p1d contracted to 9s2p1d pattern {111111111/11/1}

Atom   0C    basis set group =>   1
Atom   1C    basis set group =>   1
Atom   2C    basis set group =>   1
Atom   3C    basis set group =>   1
Atom   4C    basis set group =>   1
Atom   5C    basis set group =>   1
Atom   6C    basis set group =>   1
Atom   7H    basis set group =>   2
Atom   8H    basis set group =>   2
Atom   9C    basis set group =>   1
Atom  10H    basis set group =>   2
Atom  11H    basis set group =>   2
Atom  12C    basis set group =>   1
Atom  13H    basis set group =>   2
Atom  14H    basis set group =>   2
Atom  15C    basis set group =>   1
Atom  16H    basis set group =>   2
Atom  17H    basis set group =>   2
Atom  18C    basis set group =>   1
Atom  19H    basis set group =>   2
Atom  20H    basis set group =>   2
Atom  21C    basis set group =>   1
Atom  22H    basis set group =>   2
Atom  23H    basis set group =>   2
Atom  24C    basis set group =>   1
Atom  25H    basis set group =>   2
Atom  26H    basis set group =>   2
Atom  27C    basis set group =>   1
Atom  28H    basis set group =>   2
Atom  29H    basis set group =>   2
Atom  30C    basis set group =>   1
Atom  31H    basis set group =>   2
Atom  32H    basis set group =>   2
Atom  33C    basis set group =>   1
Atom  34H    basis set group =>   2
Atom  35H    basis set group =>   2
Atom  36C    basis set group =>   1
Atom  37H    basis set group =>   2
Atom  38H    basis set group =>   2
Atom  39C    basis set group =>   1
Atom  40H    basis set group =>   2
Atom  41H    basis set group =>   2
Atom  42C    basis set group =>   1
Atom  43H    basis set group =>   2
Atom  44H    basis set group =>   2
Atom  45H    basis set group =>   2
----------------------------------
AUXILIARY/JK BASIS SET INFORMATION
----------------------------------
There are 2 groups of distinct atoms

 Group   1 Type C   : 14s11p10d2f contracted to 14s11p10d2f pattern {11111111111111/11111111111/1111111111/11}
 Group   2 Type H   : 9s2p1d contracted to 9s2p1d pattern {111111111/11/1}

Atom   0C    basis set group =>   1
Atom   1C    basis set group =>   1
Atom   2C    basis set group =>   1
Atom   3C    basis set group =>   1
Atom   4C    basis set group =>   1
Atom   5C    basis set group =>   1
Atom   6C    basis set group =>   1
Atom   7H    basis set group =>   2
Atom   8H    basis set group =>   2
Atom   9C    basis set group =>   1
Atom  10H    basis set group =>   2
Atom  11H    basis set group =>   2
Atom  12C    basis set group =>   1
Atom  13H    basis set group =>   2
Atom  14H    basis set group =>   2
Atom  15C    basis set group =>   1
Atom  16H    basis set group =>   2
Atom  17H    basis set group =>   2
Atom  18C    basis set group =>   1
Atom  19H    basis set group =>   2
Atom  20H    basis set group =>   2
Atom  21C    basis set group =>   1
Atom  22H    basis set group =>   2
Atom  23H    basis set group =>   2
Atom  24C    basis set group =>   1
Atom  25H    basis set group =>   2
Atom  26H    basis set group =>   2
Atom  27C    basis set group =>   1
Atom  28H    basis set group =>   2
Atom  29H    basis set group =>   2
Atom  30C    basis set group =>   1
Atom  31H    basis set group =>   2
Atom  32H    basis set group =>   2
Atom  33C    basis set group =>   1
Atom  34H    basis set group =>   2
Atom  35H    basis set group =>   2
Atom  36C    basis set group =>   1
Atom  37H    basis set group =>   2
Atom  38H    basis set group =>   2
Atom  39C    basis set group =>   1
Atom  40H    basis set group =>   2
Atom  41H    basis set group =>   2
Atom  42C    basis set group =>   1
Atom  43H    basis set group =>   2
Atom  44H    basis set group =>   2
Atom  45H    basis set group =>   2

Checking for AutoStart:
The File: cc-pVDZ.gbw exists
Trying to determine its content:
     ... Fine, the file contains calculation information
     ... Fine, the calculation information was read
     ... Fine, the file contains a basis set
     ... Fine, the basis set was read
     ... Fine, the file contains a geometry
     ... Fine, the geometry was read
     ... Fine, the file contains a set of orbitals
     ... Fine, the orbitals can be read
     => possible old guess file was deleted
     => GBW file was renamed to GES file
     => GES file is set as startup file
     => Guess is set to MORead
     ... now leaving AutoStart



           ************************************************************
           *        Program running with 16 parallel MPI-processes    *
           *              working on a common directory               *
           ************************************************************
------------------------------------------------------------------------------
                           ORCA GTO INTEGRAL CALCULATION
                           -- RI-GTO INTEGRALS CHOSEN --
------------------------------------------------------------------------------
------------------------------------------------------------------------------
                   ___                                                        
                  /   \      - P O W E R E D   B Y -                         
                 /     \                                                     
                 |  |  |   _    _      __       _____    __    __             
                 |  |  |  | |  | |    /  \     |  _  \  |  |  /  |          
                  \  \/   | |  | |   /    \    | | | |  |  | /  /          
                 / \  \   | |__| |  /  /\  \   | |_| |  |  |/  /          
                |  |  |   |  __  | /  /__\  \  |    /   |      \           
                |  |  |   | |  | | |   __   |  |    \   |  |\   \          
                \     /   | |  | | |  |  |  |  | |\  \  |  | \   \       
                 \___/    |_|  |_| |__|  |__|  |_| \__\ |__|  \__/        
                                                                              
                      - O R C A' S   B I G   F R I E N D -                    
                                      &                                       
                       - I N T E G R A L  F E E D E R -                       
                                                                              
 v1 FN, 2020, v2 2021                                                         
------------------------------------------------------------------------------


Reading SHARK input file cc-pVDZ.SHARKINP.tmp ... ok
----------------------
SHARK INTEGRAL PACKAGE
----------------------

Number of atoms                             ...     46
Number of basis functions                   ...    515
Number of shells                            ...    309
Maximum angular momentum                    ...      2
Integral batch strategy                     ... SHARK/LIBINT Hybrid
RI-J (if used) integral strategy            ... SPLIT-RIJ (Revised 2003 algorithm where possible)
Printlevel                                  ...      1
Contraction scheme used                     ... PARTIAL GENERAL contraction
Coulomb Range Separation                    ... NOT USED
Exchange Range Separation                   ... NOT USED
Finite Nucleus Model                        ... NOT USED
Auxiliary Coulomb fitting basis             ... AVAILABLE
   # of basis functions in Aux-J            ...   2649
   # of shells in Aux-J                     ...   1027
   Maximum angular momentum in Aux-J        ...      3
Auxiliary J/K fitting basis                 ... AVAILABLE
   # of basis functions in Aux-JK           ...   2649
   # of shells in Aux-JK                    ...   1027
   Maximum angular momentum in Aux-JK       ...      3
Auxiliary Correlation fitting basis         ... AVAILABLE
   # of basis functions in Aux-C            ...   2649
   # of shells in Aux-C                     ...   1027
   Maximum angular momentum in Aux-C        ...      3
Auxiliary 'external' fitting basis          ... NOT available
Integral threshold                          ...     1.000000e-10
Primitive cut-off                           ...     1.000000e-11
Primitive pair pre-selection threshold      ...     1.000000e-11

Calculating pre-screening integrals         ... done (  0.0 sec) Dimension = 309
Calculating pre-screening integrals (ORCA)  ... done (  0.1 sec) Dimension = 195
Organizing shell pair data                  ... done (  0.1 sec)
Shell pair information
Total number of shell pairs                 ...     47895
Shell pairs after pre-screening             ...     20375
Total number of primitive shell pairs       ...     80739
Primitive shell pairs kept                  ...     28604
          la=0 lb=0:   9145 shell pairs
          la=1 lb=0:   7143 shell pairs
          la=1 lb=1:   1264 shell pairs
          la=2 lb=0:   1999 shell pairs
          la=2 lb=1:    712 shell pairs
          la=2 lb=2:    112 shell pairs

Calculating one electron integrals          ... done (  0.0 sec)
Calculating RI/J V-Matrix + Cholesky decomp.... done (  0.5 sec)
Calculating RI/JK V-Matrix + Cholesky decomp... done (  0.5 sec)
Calculating RI/C V-Matrix + Cholesky decomp.... done (  0.5 sec)
Calculating Nuclear repulsion               ... done (  0.0 sec) ENN=   1249.871733714571 Eh

SHARK setup successfully completed in   2.4 seconds

Maximum memory used throughout the entire GTOINT-calculation: 32.4 MB


           ************************************************************
           *        Program running with 16 parallel MPI-processes    *
           *              working on a common directory               *
           ************************************************************
-------------------------------------------------------------------------------
                                 ORCA SCF
-------------------------------------------------------------------------------

------------
SCF SETTINGS
------------
Hamiltonian:
 Density Functional     Method          .... DFT(GTOs)
 Exchange Functional    Exchange        .... B88
   X-Alpha parameter    XAlpha          ....  0.666667
   Becke's b parameter  XBeta           ....  0.004200
 Correlation Functional Correlation     .... LYP
 LDA part of GGA corr.  LDAOpt          .... VWN-5
 Gradients option       PostSCFGGA      .... off
 Hybrid DFT is turned on
   Fraction HF Exchange ScalHFX         ....  0.200000
   Scaling of DF-GGA-X  ScalDFX         ....  0.720000
   Scaling of DF-GGA-C  ScalDFC         ....  0.810000
   Scaling of DF-LDA-C  ScalLDAC        ....  1.000000
   Perturbative correction              ....  0.000000
   Density functional embedding theory  .... OFF
   NL short-range parameter             ....  4.800000
 RI-approximation to the Coulomb term is turned on
   Number of AuxJ basis functions       .... 2649
   RIJ-COSX (HFX calculated with COS-X)).... on


General Settings:
 Integral files         IntName         .... cc-pVDZ
 Hartree-Fock type      HFTyp           .... UHF
 Total Charge           Charge          ....    0
 Multiplicity           Mult            ....    2
 Number of Electrons    NEL             ....  141
 Basis Dimension        Dim             ....  401
 Nuclear Repulsion      ENuc            ....   1249.8717337146 Eh

Convergence Acceleration:
 DIIS                   CNVDIIS         .... on
   Start iteration      DIISMaxIt       ....    12
   Startup error        DIISStart       ....  0.200000
   # of expansion vecs  DIISMaxEq       ....     5
   Bias factor          DIISBfac        ....   1.050
   Max. coefficient     DIISMaxC        ....  10.000
 Trust-Rad. Augm. Hess. CNVTRAH         .... auto
   Auto Start mean grad. ratio tolernc. ....  1.125000
   Auto Start start iteration           ....     1
   Auto Start num. interpolation iter.  ....    10
   Max. Number of Micro iterations      ....    16
   Max. Number of Macro iterations      .... Maxiter - #DIIS iter
   Number of Davidson start vectors     ....     2
   Converg. threshold I  (grad. norm)   ....   5.000e-05
   Converg. threshold II (energy diff.) ....   1.000e-06
   Grad. Scal. Fac. for Micro threshold ....   0.100
   Minimum threshold for Micro iter.    ....   0.010
   NR start threshold (gradient norm)   ....   0.001
   Initial trust radius                 ....   0.400
   Minimum AH scaling param. (alpha)    ....   1.000
   Maximum AH scaling param. (alpha)    .... 1000.000
   Orbital update algorithm             .... Taylor
   White noise on init. David. guess    .... on
   Maximum white noise                  ....   0.010
   Quad. conv. algorithm                .... NR
 SOSCF                  CNVSOSCF        .... off
 Level Shifting         CNVShift        .... on
   Level shift para.    LevelShift      ....    0.2500
   Turn off err/grad.   ShiftErr        ....    0.0010
 Zerner damping         CNVZerner       .... off
 Static damping         CNVDamp         .... on
   Fraction old density DampFac         ....    0.7000
   Max. Damping (<1)    DampMax         ....    0.9800
   Min. Damping (>=0)   DampMin         ....    0.0000
   Turn off err/grad.   DampErr         ....    0.1000
 Fernandez-Rico         CNVRico         .... off

SCF Procedure:
 Maximum # iterations   MaxIter         ....   125
 SCF integral mode      SCFMode         .... Direct
   Integral package                     .... SHARK and LIBINT hybrid scheme
 Reset frequency        DirectResetFreq ....    20
 Integral Threshold     Thresh          ....  1.000e-10 Eh
 Primitive CutOff       TCut            ....  1.000e-11 Eh

Convergence Tolerance:
 Convergence Check Mode ConvCheckMode   .... Total+1el-Energy
 Convergence forced     ConvForced      .... 0
 Energy Change          TolE            ....  1.000e-06 Eh
 1-El. energy change                    ....  1.000e-03 Eh
 DIIS Error             TolErr          ....  1.000e-06


Diagonalization of the overlap matrix:
Smallest eigenvalue                        ... 1.543e-04
Time for diagonalization                   ...    0.029 sec
Threshold for overlap eigenvalues          ... 1.000e-08
Number of eigenvalues below threshold      ... 0
Time for construction of square roots      ...    0.035 sec
Total time needed                          ...    0.065 sec

---------------------
INITIAL GUESS: MOREAD
---------------------
Guess MOs are being read from file: cc-pVDZ.ges
Input Geometry matches current geometry (good)
Input basis set matches current basis set (good)
MOs were renormalized
MOs were reorthogonalized (Cholesky)
                      ------------------
                      INITIAL GUESS DONE (   0.2 sec)
                      ------------------
-------------------
DFT GRID GENERATION
-------------------

General Integration Accuracy     IntAcc      ... 4.388
Radial Grid Type                 RadialGrid  ... OptM3 with GC (2021)
Angular Grid (max. ang.)         AngularGrid ... 4 (Lebedev-302)
Angular grid pruning method      GridPruning ... 4 (adaptive)
Weight generation scheme         WeightScheme... Becke
Basis function cutoff            BFCut       ... 1.0000e-10
Integration weight cutoff        WCut        ... 1.0000e-14
Angular grids for H and He will be reduced by one unit
Partially contracted basis set               ... off
Rotationally invariant grid construction     ... off

Total number of grid points                  ...   199575
Total number of batches                      ...     3141
Average number of points per batch           ...       63
Average number of grid points per atom       ...     4339
Time for grid setup =    1.105 sec

--------------------
COSX GRID GENERATION
--------------------

GRIDX 1
-------
General Integration Accuracy     IntAcc      ... 3.816
Radial Grid Type                 RadialGrid  ... OptM3 with GC (2021)
Angular Grid (max. ang.)         AngularGrid ... 1 (Lebedev-50)
Angular grid pruning method      GridPruning ... 4 (adaptive)
Weight generation scheme         WeightScheme... Becke
Basis function cutoff            BFCut       ... 1.0000e-10
Integration weight cutoff        WCut        ... 1.0000e-14
Angular grids for H and He will be reduced by one unit
Partially contracted basis set               ... on
Rotationally invariant grid construction     ... off

Total number of grid points                  ...    25466
Total number of batches                      ...      424
Average number of points per batch           ...       60
Average number of grid points per atom       ...      554
UseSFitting                                  ... on

GRIDX 2
-------
General Integration Accuracy     IntAcc      ... 4.020
Radial Grid Type                 RadialGrid  ... OptM3 with GC (2021)
Angular Grid (max. ang.)         AngularGrid ... 2 (Lebedev-110)
Angular grid pruning method      GridPruning ... 4 (adaptive)
Weight generation scheme         WeightScheme... Becke
Basis function cutoff            BFCut       ... 1.0000e-10
Integration weight cutoff        WCut        ... 1.0000e-14
Angular grids for H and He will be reduced by one unit
Partially contracted basis set               ... on
Rotationally invariant grid construction     ... off

Total number of grid points                  ...    53462
Total number of batches                      ...      857
Average number of points per batch           ...       62
Average number of grid points per atom       ...     1162
UseSFitting                                  ... on

GRIDX 3
-------
General Integration Accuracy     IntAcc      ... 4.338
Radial Grid Type                 RadialGrid  ... OptM3 with GC (2021)
Angular Grid (max. ang.)         AngularGrid ... 3 (Lebedev-194)
Angular grid pruning method      GridPruning ... 4 (adaptive)
Weight generation scheme         WeightScheme... Becke
Basis function cutoff            BFCut       ... 1.0000e-10
Integration weight cutoff        WCut        ... 1.0000e-14
Angular grids for H and He will be reduced by one unit
Partially contracted basis set               ... on
Rotationally invariant grid construction     ... off

Total number of grid points                  ...   116756
Total number of batches                      ...     1850
Average number of points per batch           ...       63
Average number of grid points per atom       ...     2538
UseSFitting                                  ... on

Time for X-Grid setup             =    2.142 sec

 re-compute Schwartz prescreening matrix in partically contracted basis (1) ...done (   0.118 sec)
--------------
SCF ITERATIONS
--------------
ITER       Energy         Delta-E        Max-DP      RMS-DP      [F,P]     Damp
               ***  Starting incremental Fock matrix formation  ***
  0   -739.6891279967   0.000000000000 0.00001456  0.00000021  0.0000515 0.7000
                 **** Energy Check signals convergence ****

               *****************************************************
               *                     SUCCESS                       *
               *           SCF CONVERGED AFTER   1 CYCLES          *
               *****************************************************

Old exchange energy                            =    -21.608776190 Eh
New exchange energy                            =    -21.608857823 Eh
Exchange energy change after final integration =     -0.000081633 Eh
Total energy after final integration           =   -739.689209752 Eh
Final COS-X integration done in                =     5.347 sec

----------------
TOTAL SCF ENERGY
----------------

Total Energy       :         -739.68920975 Eh          -20127.96668 eV

Components:
Nuclear Repulsion  :         1249.87173371 Eh           34010.73895 eV
Electronic Energy  :        -1989.56094347 Eh          -54138.70563 eV
One Electron Energy:        -3477.46827363 Eh          -94626.72246 eV
Two Electron Energy:         1487.90733017 Eh           40488.01682 eV
Max COSX asymmetry :            0.00000044 Eh               0.00001 eV

Virial components:
Potential Energy   :        -1473.96963052 Eh          -40108.75274 eV
Kinetic Energy     :          734.28042077 Eh           19980.78605 eV
Virial Ratio       :            2.00736611


DFT components:
N(Alpha)           :       71.000178982610 electrons
N(Beta)            :       70.000176409625 electrons
N(Total)           :      141.000355392235 electrons
E(X)               :      -85.623699905553 Eh       
E(C)               :       -5.414292844089 Eh       
E(XC)              :      -91.037992749642 Eh       
DFET-embed. en.    :        0.000000000000 Eh       

---------------
SCF CONVERGENCE
---------------

  Last Energy change         ...   -1.2266e-07  Tolerance :   1.0000e-06
  Last MAX-Density change    ...    5.2882e-06  Tolerance :   1.0000e-05
  Last RMS-Density change    ...    6.9550e-08  Tolerance :   1.0000e-06
  Last DIIS Error            ...    3.1633e-05  Tolerance :   1.0000e-06

             **** THE GBW FILE WAS UPDATED (cc-pVDZ.gbw) ****
             **** DENSITY cc-pVDZ.scfp WAS UPDATED ****
             **** ENERGY FILE WAS UPDATED (cc-pVDZ.en.tmp) ****
----------------------
UHF SPIN CONTAMINATION
----------------------

Warning: in a DFT calculation there is little theoretical justification to 
         calculate <S**2> as in Hartree-Fock theory. We will do it anyways
         but you should keep in mind that the values have only limited relevance

Expectation value of <S**2>     :     0.753898
Ideal value S*(S+1) for S=0.5   :     0.750000
Deviation                       :     0.003898

             **** THE GBW FILE WAS UPDATED (cc-pVDZ.gbw) ****
             **** DENSITY cc-pVDZ.scfp WAS UPDATED ****
----------------
ORBITAL ENERGIES
----------------
                 SPIN UP ORBITALS
  NO   OCC          E(Eh)            E(eV) 
   0   1.0000     -10.205488      -277.7055 
   1   1.0000     -10.195846      -277.4431 
   2   1.0000     -10.192501      -277.3521 
   3   1.0000     -10.187915      -277.2273 
   4   1.0000     -10.187087      -277.2047 
   5   1.0000     -10.186768      -277.1961 
   6   1.0000     -10.185645      -277.1655 
   7   1.0000     -10.185397      -277.1587 
   8   1.0000     -10.184360      -277.1305 
   9   1.0000     -10.183728      -277.1133 
  10   1.0000     -10.183536      -277.1081 
  11   1.0000     -10.182253      -277.0732 
  12   1.0000     -10.181598      -277.0554 
  13   1.0000     -10.181469      -277.0519 
  14   1.0000     -10.181154      -277.0433 
  15   1.0000     -10.180793      -277.0335 
  16   1.0000     -10.179122      -276.9880 
  17   1.0000     -10.178852      -276.9806 
  18   1.0000     -10.175829      -276.8984 
  19   1.0000      -0.863879       -23.5073 
  20   1.0000      -0.813307       -22.1312 
  21   1.0000      -0.804046       -21.8792 
  22   1.0000      -0.784781       -21.3550 
  23   1.0000      -0.776723       -21.1357 
  24   1.0000      -0.758523       -20.6405 
  25   1.0000      -0.732335       -19.9279 
  26   1.0000      -0.721477       -19.6324 
  27   1.0000      -0.704436       -19.1687 
  28   1.0000      -0.668025       -18.1779 
  29   1.0000      -0.637551       -17.3486 
  30   1.0000      -0.618024       -16.8173 
  31   1.0000      -0.608585       -16.5604 
  32   1.0000      -0.583027       -15.8650 
  33   1.0000      -0.576659       -15.6917 
  34   1.0000      -0.570701       -15.5296 
  35   1.0000      -0.559235       -15.2176 
  36   1.0000      -0.525402       -14.2969 
  37   1.0000      -0.493451       -13.4275 
  38   1.0000      -0.479945       -13.0600 
  39   1.0000      -0.470464       -12.8020 
  40   1.0000      -0.467831       -12.7303 
  41   1.0000      -0.459726       -12.5098 
  42   1.0000      -0.458520       -12.4770 
  43   1.0000      -0.426412       -11.6033 
  44   1.0000      -0.425774       -11.5859 
  45   1.0000      -0.422145       -11.4871 
  46   1.0000      -0.418740       -11.3945 
  47   1.0000      -0.418443       -11.3864 
  48   1.0000      -0.410943       -11.1823 
  49   1.0000      -0.399153       -10.8615 
  50   1.0000      -0.388598       -10.5743 
  51   1.0000      -0.380498       -10.3539 
  52   1.0000      -0.370848       -10.0913 
  53   1.0000      -0.365920        -9.9572 
  54   1.0000      -0.357943        -9.7401 
  55   1.0000      -0.353536        -9.6202 
  56   1.0000      -0.352422        -9.5899 
  57   1.0000      -0.337620        -9.1871 
  58   1.0000      -0.337085        -9.1726 
  59   1.0000      -0.328949        -8.9512 
  60   1.0000      -0.324596        -8.8327 
  61   1.0000      -0.324240        -8.8230 
  62   1.0000      -0.322568        -8.7775 
  63   1.0000      -0.322185        -8.7671 
  64   1.0000      -0.318702        -8.6723 
  65   1.0000      -0.314473        -8.5572 
  66   1.0000      -0.298603        -8.1254 
  67   1.0000      -0.270431        -7.3588 
  68   1.0000      -0.241024        -6.5586 
  69   1.0000      -0.222626        -6.0580 
  70   1.0000      -0.198458        -5.4003 
  71   0.0000      -0.030215        -0.8222 
  72   0.0000       0.002338         0.0636 
  73   0.0000       0.049393         1.3440 
  74   0.0000       0.061378         1.6702 
  75   0.0000       0.062364         1.6970 
  76   0.0000       0.074970         2.0400 
  77   0.0000       0.075253         2.0477 
  78   0.0000       0.076132         2.0717 
  79   0.0000       0.083524         2.2728 
  80   0.0000       0.083684         2.2772 
  81   0.0000       0.086681         2.3587 
  82   0.0000       0.095051         2.5865 
  83   0.0000       0.096225         2.6184 
  84   0.0000       0.097047         2.6408 
  85   0.0000       0.102289         2.7834 
  86   0.0000       0.111735         3.0405 
  87   0.0000       0.114377         3.1124 
  88   0.0000       0.128052         3.4845 
  89   0.0000       0.133850         3.6422 
  90   0.0000       0.143907         3.9159 
  91   0.0000       0.151055         4.1104 
  92   0.0000       0.151374         4.1191 
  93   0.0000       0.158329         4.3083 
  94   0.0000       0.160448         4.3660 
  95   0.0000       0.160813         4.3759 
  96   0.0000       0.167291         4.5522 
  97   0.0000       0.174307         4.7431 
  98   0.0000       0.176485         4.8024 
  99   0.0000       0.182418         4.9638 
 100   0.0000       0.183435         4.9915 
 101   0.0000       0.190971         5.1966 
 102   0.0000       0.199556         5.4302 
 103   0.0000       0.201805         5.4914 
 104   0.0000       0.210977         5.7410 
 105   0.0000       0.213740         5.8162 
 106   0.0000       0.218070         5.9340 
 107   0.0000       0.225256         6.1295 
 108   0.0000       0.232909         6.3378 
 109   0.0000       0.244915         6.6645 
 110   0.0000       0.253878         6.9084 
 111   0.0000       0.272061         7.4031 
 112   0.0000       0.275699         7.5022 
 113   0.0000       0.289578         7.8798 
 114   0.0000       0.299363         8.1461 
 115   0.0000       0.330432         8.9915 
 116   0.0000       0.338651         9.2152 
 117   0.0000       0.354536         9.6474 
 118   0.0000       0.359958         9.7950 
 119   0.0000       0.375147        10.2083 
 120   0.0000       0.398558        10.8453 
 121   0.0000       0.407356        11.0847 
 122   0.0000       0.411932        11.2093 
 123   0.0000       0.413611        11.2549 
 124   0.0000       0.417842        11.3701 
 125   0.0000       0.420365        11.4387 
 126   0.0000       0.425230        11.5711 
 127   0.0000       0.427693        11.6381 
 128   0.0000       0.439948        11.9716 
 129   0.0000       0.442384        12.0379 
 130   0.0000       0.462523        12.5859 
 131   0.0000       0.463035        12.5998 
 132   0.0000       0.478727        13.0268 
 133   0.0000       0.484943        13.1960 
 134   0.0000       0.487827        13.2745 
 135   0.0000       0.493708        13.4345 
 136   0.0000       0.497763        13.5448 
 137   0.0000       0.498253        13.5582 
 138   0.0000       0.504713        13.7339 
 139   0.0000       0.520153        14.1541 
 140   0.0000       0.522647        14.2219 
 141   0.0000       0.523902        14.2561 
 142   0.0000       0.532236        14.4829 
 143   0.0000       0.538103        14.6425 
 144   0.0000       0.540233        14.7005 
 145   0.0000       0.545567        14.8456 
 146   0.0000       0.563311        15.3285 
 147   0.0000       0.568712        15.4754 
 148   0.0000       0.586933        15.9713 
 149   0.0000       0.591134        16.0856 
 150   0.0000       0.605175        16.4676 
 151   0.0000       0.607253        16.5242 
 152   0.0000       0.611112        16.6292 
 153   0.0000       0.618736        16.8367 
 154   0.0000       0.621961        16.9244 
 155   0.0000       0.630329        17.1521 
 156   0.0000       0.630731        17.1631 
 157   0.0000       0.633537        17.2394 
 158   0.0000       0.636556        17.3216 
 159   0.0000       0.641671        17.4607 
 160   0.0000       0.643148        17.5009 
 161   0.0000       0.648450        17.6452 
 162   0.0000       0.650632        17.7046 
 163   0.0000       0.653345        17.7784 
 164   0.0000       0.657351        17.8874 
 165   0.0000       0.660294        17.9675 
 166   0.0000       0.661089        17.9891 
 167   0.0000       0.661164        17.9912 
 168   0.0000       0.664597        18.0846 
 169   0.0000       0.666665        18.1409 
 170   0.0000       0.670554        18.2467 
 171   0.0000       0.676536        18.4095 
 172   0.0000       0.684634        18.6299 
 173   0.0000       0.686972        18.6935 
 174   0.0000       0.688349        18.7309 
 175   0.0000       0.692818        18.8525 
 176   0.0000       0.693823        18.8799 
 177   0.0000       0.699362        19.0306 
 178   0.0000       0.699949        19.0466 
 179   0.0000       0.704053        19.1583 
 180   0.0000       0.705945        19.2097 
 181   0.0000       0.711433        19.3591 
 182   0.0000       0.714314        19.4375 
 183   0.0000       0.722612        19.6633 
 184   0.0000       0.727223        19.7887 
 185   0.0000       0.728261        19.8170 
 186   0.0000       0.737054        20.0563 
 187   0.0000       0.742092        20.1933 
 188   0.0000       0.759113        20.6565 
 189   0.0000       0.764704        20.8086 
 190   0.0000       0.770993        20.9798 
 191   0.0000       0.778665        21.1885 
 192   0.0000       0.803520        21.8649 
 193   0.0000       0.812754        22.1162 
 194   0.0000       0.825929        22.4747 
 195   0.0000       0.838355        22.8128 
 196   0.0000       0.839672        22.8486 
 197   0.0000       0.856111        23.2960 
 198   0.0000       0.862691        23.4750 
 199   0.0000       0.874072        23.7847 
 200   0.0000       0.891420        24.2568 
 201   0.0000       0.904241        24.6056 
 202   0.0000       0.927006        25.2251 
 203   0.0000       0.946264        25.7492 
 204   0.0000       0.977676        26.6039 
 205   0.0000       0.980365        26.6771 
 206   0.0000       0.995373        27.0855 
 207   0.0000       0.996598        27.1188 
 208   0.0000       1.008675        27.4475 
 209   0.0000       1.008824        27.4515 
 210   0.0000       1.029807        28.0225 
 211   0.0000       1.033758        28.1300 
 212   0.0000       1.038845        28.2684 
 213   0.0000       1.047966        28.5166 
 214   0.0000       1.056230        28.7415 
 215   0.0000       1.067568        29.0500 
 216   0.0000       1.071525        29.1577 
 217   0.0000       1.086384        29.5620 
 218   0.0000       1.092773        29.7359 
 219   0.0000       1.118853        30.4455 
 220   0.0000       1.132797        30.8250 
 221   0.0000       1.153074        31.3767 
 222   0.0000       1.176784        32.0219 
 223   0.0000       1.186821        32.2950 
 224   0.0000       1.199056        32.6280 
 225   0.0000       1.204501        32.7761 
 226   0.0000       1.205676        32.8081 
 227   0.0000       1.208989        32.8983 
 228   0.0000       1.215390        33.0724 
 229   0.0000       1.216953        33.1150 
 230   0.0000       1.217941        33.1419 
 231   0.0000       1.224500        33.3203 
 232   0.0000       1.227119        33.3916 
 233   0.0000       1.232283        33.5321 
 234   0.0000       1.242657        33.8144 
 235   0.0000       1.265236        34.4288 
 236   0.0000       1.286918        35.0188 
 237   0.0000       1.310431        35.6586 
 238   0.0000       1.320295        35.9271 
 239   0.0000       1.323785        36.0220 
 240   0.0000       1.333584        36.2887 
 241   0.0000       1.338013        36.4092 
 242   0.0000       1.343587        36.5609 
 243   0.0000       1.350526        36.7497 
 244   0.0000       1.361129        37.0382 
 245   0.0000       1.378652        37.5150 
 246   0.0000       1.412097        38.4251 
 247   0.0000       1.412756        38.4431 
 248   0.0000       1.425009        38.7765 
 249   0.0000       1.426260        38.8105 
 250   0.0000       1.445213        39.3263 
 251   0.0000       1.455560        39.6078 
 252   0.0000       1.462086        39.7854 
 253   0.0000       1.472235        40.0615 
 254   0.0000       1.473359        40.0921 
 255   0.0000       1.474341        40.1189 
 256   0.0000       1.486626        40.4531 
 257   0.0000       1.498718        40.7822 
 258   0.0000       1.508844        41.0577 
 259   0.0000       1.517334        41.2888 
 260   0.0000       1.526051        41.5260 
 261   0.0000       1.548923        42.1483 
 262   0.0000       1.552295        42.2401 
 263   0.0000       1.558803        42.4172 
 264   0.0000       1.585404        43.1410 
 265   0.0000       1.593653        43.3655 
 266   0.0000       1.595627        43.4192 
 267   0.0000       1.597590        43.4726 
 268   0.0000       1.607690        43.7475 
 269   0.0000       1.613331        43.9010 
 270   0.0000       1.628343        44.3095 
 271   0.0000       1.629276        44.3348 
 272   0.0000       1.629676        44.3457 
 273   0.0000       1.631161        44.3862 
 274   0.0000       1.638927        44.5975 
 275   0.0000       1.641212        44.6596 
 276   0.0000       1.646019        44.7904 
 277   0.0000       1.647998        44.8443 
 278   0.0000       1.650967        44.9251 
 279   0.0000       1.658229        45.1227 
 280   0.0000       1.665683        45.3255 
 281   0.0000       1.673894        45.5490 
 282   0.0000       1.681855        45.7656 
 283   0.0000       1.682302        45.7778 
 284   0.0000       1.689949        45.9858 
 285   0.0000       1.691429        46.0261 
 286   0.0000       1.695425        46.1349 
 287   0.0000       1.701230        46.2928 
 288   0.0000       1.705602        46.4118 
 289   0.0000       1.708322        46.4858 
 290   0.0000       1.709038        46.5053 
 291   0.0000       1.711017        46.5591 
 292   0.0000       1.712494        46.5993 
 293   0.0000       1.717884        46.7460 
 294   0.0000       1.722377        46.8683 
 295   0.0000       1.733789        47.1788 
 296   0.0000       1.739805        47.3425 
 297   0.0000       1.750087        47.6223 
 298   0.0000       1.754492        47.7422 
 299   0.0000       1.760706        47.9113 
 300   0.0000       1.766353        48.0649 
 301   0.0000       1.767716        48.1020 
 302   0.0000       1.776343        48.3367 
 303   0.0000       1.781633        48.4807 
 304   0.0000       1.787971        48.6532 
 305   0.0000       1.792637        48.7801 
 306   0.0000       1.794272        48.8246 
 307   0.0000       1.798800        48.9478 
 308   0.0000       1.804324        49.0981 
 309   0.0000       1.809710        49.2447 
 310   0.0000       1.823389        49.6169 
 311   0.0000       1.833393        49.8891 
 312   0.0000       1.836269        49.9674 
 313   0.0000       1.854797        50.4716 
 314   0.0000       1.866305        50.7847 
 315   0.0000       1.871033        50.9134 
 316   0.0000       1.878980        51.1296 
 317   0.0000       1.899227        51.6806 
 318   0.0000       1.902980        51.7827 
 319   0.0000       1.911608        52.0175 
 320   0.0000       1.918786        52.2128 
 321   0.0000       1.925912        52.4067 
 322   0.0000       1.945057        52.9277 
 323   0.0000       1.955676        53.2166 
 324   0.0000       1.963355        53.4256 
 325   0.0000       1.967259        53.5318 
 326   0.0000       1.981054        53.9072 
 327   0.0000       1.985005        54.0147 
 328   0.0000       1.992835        54.2278 
 329   0.0000       2.010656        54.7127 
 330   0.0000       2.027000        55.1575 
 331   0.0000       2.040016        55.5117 
 332   0.0000       2.046415        55.6858 
 333   0.0000       2.055826        55.9419 
 334   0.0000       2.059136        56.0319 
 335   0.0000       2.075203        56.4691 
 336   0.0000       2.090409        56.8829 
 337   0.0000       2.100859        57.1673 
 338   0.0000       2.102055        57.1998 
 339   0.0000       2.114671        57.5431 
 340   0.0000       2.151343        58.5410 
 341   0.0000       2.152604        58.5753 
 342   0.0000       2.161044        58.8050 
 343   0.0000       2.181304        59.3563 
 344   0.0000       2.190065        59.5947 
 345   0.0000       2.206216        60.0342 
 346   0.0000       2.210449        60.1494 
 347   0.0000       2.217306        60.3360 
 348   0.0000       2.227394        60.6105 
 349   0.0000       2.231486        60.7218 
 350   0.0000       2.235423        60.8290 
 351   0.0000       2.243123        61.0385 
 352   0.0000       2.275178        61.9107 
 353   0.0000       2.276941        61.9587 
 354   0.0000       2.288433        62.2714 
 355   0.0000       2.289829        62.3094 
 356   0.0000       2.307743        62.7969 
 357   0.0000       2.309761        62.8518 
 358   0.0000       2.319536        63.1178 
 359   0.0000       2.326789        63.3152 
 360   0.0000       2.336618        63.5826 
 361   0.0000       2.340343        63.6840 
 362   0.0000       2.341900        63.7263 
 363   0.0000       2.347942        63.8908 
 364   0.0000       2.353984        64.0552 
 365   0.0000       2.371177        64.5230 
 366   0.0000       2.378218        64.7146 
 367   0.0000       2.406796        65.4923 
 368   0.0000       2.412533        65.6484 
 369   0.0000       2.417049        65.7712 
 370   0.0000       2.426644        66.0323 
 371   0.0000       2.442725        66.4699 
 372   0.0000       2.449297        66.6488 
 373   0.0000       2.458978        66.9122 
 374   0.0000       2.479569        67.4725 
 375   0.0000       2.480041        67.4853 
 376   0.0000       2.485966        67.6466 
 377   0.0000       2.514249        68.4162 
 378   0.0000       2.528873        68.8141 
 379   0.0000       2.530434        68.8566 
 380   0.0000       2.568015        69.8792 
 381   0.0000       2.572671        70.0059 
 382   0.0000       2.590156        70.4817 
 383   0.0000       2.597528        70.6823 
 384   0.0000       2.611243        71.0555 
 385   0.0000       2.614079        71.1327 
 386   0.0000       2.628103        71.5143 
 387   0.0000       2.665500        72.5320 
 388   0.0000       2.703081        73.5546 
 389   0.0000       2.711881        73.7940 
 390   0.0000       2.720189        74.0201 
 391   0.0000       2.730791        74.3086 
 392   0.0000       2.741703        74.6055 
 393   0.0000       2.761394        75.1414 
 394   0.0000       2.811924        76.5164 
 395   0.0000       2.814481        76.5859 
 396   0.0000       2.827150        76.9307 
 397   0.0000       2.883427        78.4620 
 398   0.0000       2.935573        79.8810 
 399   0.0000       3.196811        86.9896 
 400   0.0000       3.419476        93.0487 

                 SPIN DOWN ORBITALS
  NO   OCC          E(Eh)            E(eV) 
   0   1.0000     -10.205488      -277.7054 
   1   1.0000     -10.195843      -277.4430 
   2   1.0000     -10.192501      -277.3521 
   3   1.0000     -10.187915      -277.2273 
   4   1.0000     -10.187087      -277.2047 
   5   1.0000     -10.186768      -277.1961 
   6   1.0000     -10.185397      -277.1587 
   7   1.0000     -10.184613      -277.1374 
   8   1.0000     -10.184360      -277.1305 
   9   1.0000     -10.183530      -277.1079 
  10   1.0000     -10.182253      -277.0732 
  11   1.0000     -10.181598      -277.0554 
  12   1.0000     -10.181469      -277.0519 
  13   1.0000     -10.180757      -277.0325 
  14   1.0000     -10.179588      -277.0007 
  15   1.0000     -10.179077      -276.9868 
  16   1.0000     -10.178673      -276.9758 
  17   1.0000     -10.175829      -276.8984 
  18   1.0000     -10.171591      -276.7831 
  19   1.0000      -0.863876       -23.5073 
  20   1.0000      -0.812835       -22.1184 
  21   1.0000      -0.802463       -21.8361 
  22   1.0000      -0.782407       -21.2904 
  23   1.0000      -0.775725       -21.1085 
  24   1.0000      -0.755745       -20.5649 
  25   1.0000      -0.728518       -19.8240 
  26   1.0000      -0.721476       -19.6324 
  27   1.0000      -0.700479       -19.0610 
  28   1.0000      -0.662284       -18.0217 
  29   1.0000      -0.634224       -17.2581 
  30   1.0000      -0.617139       -16.7932 
  31   1.0000      -0.603518       -16.4226 
  32   1.0000      -0.580347       -15.7920 
  33   1.0000      -0.575205       -15.6521 
  34   1.0000      -0.563793       -15.3416 
  35   1.0000      -0.557143       -15.1606 
  36   1.0000      -0.525389       -14.2966 
  37   1.0000      -0.493421       -13.4267 
  38   1.0000      -0.479088       -13.0367 
  39   1.0000      -0.470460       -12.8019 
  40   1.0000      -0.467788       -12.7292 
  41   1.0000      -0.459647       -12.5076 
  42   1.0000      -0.456291       -12.4163 
  43   1.0000      -0.425819       -11.5871 
  44   1.0000      -0.423247       -11.5171 
  45   1.0000      -0.421807       -11.4779 
  46   1.0000      -0.418134       -11.3780 
  47   1.0000      -0.416643       -11.3374 
  48   1.0000      -0.409105       -11.1323 
  49   1.0000      -0.395224       -10.7546 
  50   1.0000      -0.386380       -10.5139 
  51   1.0000      -0.378072       -10.2879 
  52   1.0000      -0.368637       -10.0311 
  53   1.0000      -0.365102        -9.9349 
  54   1.0000      -0.356262        -9.6944 
  55   1.0000      -0.352051        -9.5798 
  56   1.0000      -0.351673        -9.5695 
  57   1.0000      -0.336673        -9.1613 
  58   1.0000      -0.335534        -9.1304 
  59   1.0000      -0.328144        -8.9292 
  60   1.0000      -0.324301        -8.8247 
  61   1.0000      -0.323982        -8.8160 
  62   1.0000      -0.322049        -8.7634 
  63   1.0000      -0.321174        -8.7396 
  64   1.0000      -0.318198        -8.6586 
  65   1.0000      -0.311477        -8.4757 
  66   1.0000      -0.298602        -8.1254 
  67   1.0000      -0.270423        -7.3586 
  68   1.0000      -0.241023        -6.5586 
  69   1.0000      -0.222625        -6.0579 
  70   0.0000      -0.044683        -1.2159 
  71   0.0000      -0.030215        -0.8222 
  72   0.0000       0.002339         0.0636 
  73   0.0000       0.049397         1.3441 
  74   0.0000       0.061613         1.6766 
  75   0.0000       0.062936         1.7126 
  76   0.0000       0.075312         2.0494 
  77   0.0000       0.075981         2.0676 
  78   0.0000       0.077007         2.0955 
  79   0.0000       0.083646         2.2761 
  80   0.0000       0.083973         2.2850 
  81   0.0000       0.087279         2.3750 
  82   0.0000       0.095263         2.5922 
  83   0.0000       0.097022         2.6401 
  84   0.0000       0.098714         2.6861 
  85   0.0000       0.104034         2.8309 
  86   0.0000       0.112675         3.0661 
  87   0.0000       0.116405         3.1675 
  88   0.0000       0.128339         3.4923 
  89   0.0000       0.135969         3.6999 
  90   0.0000       0.144536         3.9330 
  91   0.0000       0.151480         4.1220 
  92   0.0000       0.151781         4.1302 
  93   0.0000       0.158440         4.3114 
  94   0.0000       0.160626         4.3709 
  95   0.0000       0.161368         4.3911 
  96   0.0000       0.168411         4.5827 
  97   0.0000       0.174533         4.7493 
  98   0.0000       0.176573         4.8048 
  99   0.0000       0.182984         4.9792 
 100   0.0000       0.183580         4.9955 
 101   0.0000       0.192213         5.2304 
 102   0.0000       0.199579         5.4308 
 103   0.0000       0.203539         5.5386 
 104   0.0000       0.211147         5.7456 
 105   0.0000       0.213988         5.8229 
 106   0.0000       0.218910         5.9568 
 107   0.0000       0.225761         6.1433 
 108   0.0000       0.233542         6.3550 
 109   0.0000       0.246319         6.7027 
 110   0.0000       0.255940         6.9645 
 111   0.0000       0.273770         7.4497 
 112   0.0000       0.278392         7.5754 
 113   0.0000       0.290827         7.9138 
 114   0.0000       0.301877         8.2145 
 115   0.0000       0.331446         9.0191 
 116   0.0000       0.340482         9.2650 
 117   0.0000       0.355375         9.6703 
 118   0.0000       0.360102         9.7989 
 119   0.0000       0.375501        10.2179 
 120   0.0000       0.400229        10.8908 
 121   0.0000       0.408266        11.1095 
 122   0.0000       0.411934        11.2093 
 123   0.0000       0.414866        11.2891 
 124   0.0000       0.417970        11.3736 
 125   0.0000       0.420370        11.4389 
 126   0.0000       0.426320        11.6008 
 127   0.0000       0.427981        11.6460 
 128   0.0000       0.442056        12.0289 
 129   0.0000       0.444117        12.0850 
 130   0.0000       0.462694        12.5905 
 131   0.0000       0.467939        12.7333 
 132   0.0000       0.480856        13.0847 
 133   0.0000       0.487820        13.2743 
 134   0.0000       0.489194        13.3116 
 135   0.0000       0.496591        13.5129 
 136   0.0000       0.498526        13.5656 
 137   0.0000       0.498941        13.5769 
 138   0.0000       0.513238        13.9659 
 139   0.0000       0.523734        14.2515 
 140   0.0000       0.523862        14.2550 
 141   0.0000       0.533398        14.5145 
 142   0.0000       0.538243        14.6463 
 143   0.0000       0.540947        14.7199 
 144   0.0000       0.545576        14.8459 
 145   0.0000       0.555725        15.1221 
 146   0.0000       0.569213        15.4891 
 147   0.0000       0.578297        15.7363 
 148   0.0000       0.587167        15.9776 
 149   0.0000       0.592561        16.1244 
 150   0.0000       0.607390        16.5279 
 151   0.0000       0.607787        16.5387 
 152   0.0000       0.613259        16.6876 
 153   0.0000       0.618795        16.8383 
 154   0.0000       0.623635        16.9700 
 155   0.0000       0.630977        17.1698 
 156   0.0000       0.631676        17.1888 
 157   0.0000       0.634246        17.2587 
 158   0.0000       0.637633        17.3509 
 159   0.0000       0.643032        17.4978 
 160   0.0000       0.643195        17.5022 
 161   0.0000       0.648915        17.6579 
 162   0.0000       0.651579        17.7304 
 163   0.0000       0.654870        17.8199 
 164   0.0000       0.659284        17.9400 
 165   0.0000       0.660599        17.9758 
 166   0.0000       0.661309        17.9951 
 167   0.0000       0.662033        18.0148 
 168   0.0000       0.665559        18.1108 
 169   0.0000       0.669163        18.2089 
 170   0.0000       0.671763        18.2796 
 171   0.0000       0.678480        18.4624 
 172   0.0000       0.684726        18.6323 
 173   0.0000       0.687281        18.7019 
 174   0.0000       0.688912        18.7463 
 175   0.0000       0.693399        18.8684 
 176   0.0000       0.694729        18.9045 
 177   0.0000       0.701716        19.0947 
 178   0.0000       0.702053        19.1038 
 179   0.0000       0.704459        19.1693 
 180   0.0000       0.705995        19.2111 
 181   0.0000       0.714343        19.4383 
 182   0.0000       0.715573        19.4717 
 183   0.0000       0.722733        19.6666 
 184   0.0000       0.727268        19.7900 
 185   0.0000       0.729860        19.8605 
 186   0.0000       0.737353        20.0644 
 187   0.0000       0.744599        20.2616 
 188   0.0000       0.759495        20.6669 
 189   0.0000       0.765901        20.8412 
 190   0.0000       0.771968        21.0063 
 191   0.0000       0.779025        21.1983 
 192   0.0000       0.803523        21.8650 
 193   0.0000       0.812918        22.1206 
 194   0.0000       0.829315        22.5668 
 195   0.0000       0.839414        22.8416 
 196   0.0000       0.841250        22.8916 
 197   0.0000       0.856802        23.3148 
 198   0.0000       0.866482        23.5782 
 199   0.0000       0.874412        23.7940 
 200   0.0000       0.891446        24.2575 
 201   0.0000       0.905388        24.6369 
 202   0.0000       0.927032        25.2258 
 203   0.0000       0.947708        25.7884 
 204   0.0000       0.978097        26.6154 
 205   0.0000       0.995494        27.0888 
 206   0.0000       0.997573        27.1453 
 207   0.0000       1.008697        27.4480 
 208   0.0000       1.009086        27.4586 
 209   0.0000       1.012803        27.5598 
 210   0.0000       1.033256        28.1163 
 211   0.0000       1.037466        28.2309 
 212   0.0000       1.039813        28.2948 
 213   0.0000       1.047968        28.5167 
 214   0.0000       1.056336        28.7444 
 215   0.0000       1.070984        29.1430 
 216   0.0000       1.078074        29.3359 
 217   0.0000       1.086394        29.5623 
 218   0.0000       1.095500        29.8101 
 219   0.0000       1.122151        30.5353 
 220   0.0000       1.134599        30.8740 
 221   0.0000       1.153167        31.3793 
 222   0.0000       1.180188        32.1145 
 223   0.0000       1.189075        32.3564 
 224   0.0000       1.200366        32.6636 
 225   0.0000       1.204580        32.7783 
 226   0.0000       1.205713        32.8091 
 227   0.0000       1.209068        32.9004 
 228   0.0000       1.215452        33.0741 
 229   0.0000       1.217277        33.1238 
 230   0.0000       1.218955        33.1695 
 231   0.0000       1.224514        33.3207 
 232   0.0000       1.227235        33.3947 
 233   0.0000       1.232455        33.5368 
 234   0.0000       1.243105        33.8266 
 235   0.0000       1.266012        34.4500 
 236   0.0000       1.286919        35.0189 
 237   0.0000       1.310698        35.6659 
 238   0.0000       1.320299        35.9272 
 239   0.0000       1.333001        36.2728 
 240   0.0000       1.333586        36.2887 
 241   0.0000       1.338331        36.4178 
 242   0.0000       1.343692        36.5637 
 243   0.0000       1.351605        36.7791 
 244   0.0000       1.361586        37.0506 
 245   0.0000       1.390551        37.8388 
 246   0.0000       1.412098        38.4251 
 247   0.0000       1.413088        38.4521 
 248   0.0000       1.425318        38.7849 
 249   0.0000       1.426260        38.8105 
 250   0.0000       1.445474        39.3333 
 251   0.0000       1.456578        39.6355 
 252   0.0000       1.462102        39.7858 
 253   0.0000       1.472636        40.0725 
 254   0.0000       1.476003        40.1641 
 255   0.0000       1.476513        40.1780 
 256   0.0000       1.486924        40.4613 
 257   0.0000       1.499778        40.8110 
 258   0.0000       1.509159        41.0663 
 259   0.0000       1.517338        41.2889 
 260   0.0000       1.526059        41.5262 
 261   0.0000       1.551037        42.2059 
 262   0.0000       1.557785        42.3895 
 263   0.0000       1.560152        42.4539 
 264   0.0000       1.585688        43.1488 
 265   0.0000       1.594463        43.3875 
 266   0.0000       1.595826        43.4246 
 267   0.0000       1.607936        43.7542 
 268   0.0000       1.613672        43.9102 
 269   0.0000       1.615746        43.9667 
 270   0.0000       1.628513        44.3141 
 271   0.0000       1.629707        44.3466 
 272   0.0000       1.631287        44.3896 
 273   0.0000       1.632043        44.4102 
 274   0.0000       1.639224        44.6056 
 275   0.0000       1.646115        44.7931 
 276   0.0000       1.647618        44.8340 
[...]
  Z           0.8638214            0.0856978            0.4964560

Notes:  (1) The A matrix conforms to the "SAI" spin Hamiltonian convention.
        (2) Tensor is right-handed.

 -----------------------------------------------------------
 Nucleus  43H : A:ISTP=    1 I=  0.5 P=533.5514 MHz/au**3
                Q:ISTP=    2 I=  1.0 Q=  0.0029 barn     
 -----------------------------------------------------------
 Solving for nuclear perturbation:
Forming RHS of the CP-SCF equations         ... 
Calc. nucleus orbit integrals (SHARK)       ... done

------------------------------------------------------------------------------
                           ORCA CP-SCF CALCULATION
------------------------------------------------------------------------------

Input orbitals are from        ... cc-pVDZ.gbw
Input Perturbation             ... cc-pVDZ.pin.tmp
Wavefunction output            ... cc-pVDZ.pout.tmp
Perturbation mode              ... Imaginary perturbation
Solver                         ... POPLE
Max. number of iterations      ... 64
Convergence tolerance          ... 1.000e-03
Integral handling              ... Direct
DFT GridXC                     ... 1
COSX GridX                     ... 1
COSX IntAccX                   ... 3.067
COSX Algorithm                 ... Auto
Number of perturbations        ... 3
Number of operators            ... 2
Orbital ranges used for CP-SCF:
 Operator 0:  Orbitals   0... 70  to  71...400
 Operator 1:  Orbitals   0... 69  to  70...400
Variables per perturbation     ... 46600
DFT calculation                         ... on
XC functional terms                     ... off
Hybrid DFT                              ... on
   Exchange mixing (SCF)                ...  0.200
   Exchange mixing (CP-SCF)             ...  0.200
   GGA exch. scaling(SCF)               ...  0.720
   GGA exch. scaling (CP-SCF)           ...  0.720
   GGA corr. scaling (SCF)              ...  0.810
   GGA corr. scaling (CP-SCF)           ...  0.810

CP-SCF GRID
-----------

General Integration Accuracy     IntAcc      ... 3.467
Radial Grid Type                 RadialGrid  ... OptM3 with GC (2021)
Angular Grid (max. ang.)         AngularGrid ... 1 (Lebedev-50)
Angular grid pruning method      GridPruning ... 4 (adaptive)
Weight generation scheme         WeightScheme... Becke
Basis function cutoff            BFCut       ... 1.0000e-10
Integration weight cutoff        WCut        ... 1.0000e-14
Angular grids for H and He will be reduced by one unit
Partially contracted basis set               ... off
Rotationally invariant grid construction     ... off

Total number of grid points                  ...    27866
Total number of batches                      ...      455
Average number of points per batch           ...       61
Average number of grid points per atom       ...      606

CP-SCF GRIDX
------------

General Integration Accuracy     IntAcc      ... 3.067
Radial Grid Type                 RadialGrid  ... OptM3 with GC (2021)
Angular Grid (max. ang.)         AngularGrid ... 1 (Lebedev-50)
Angular grid pruning method      GridPruning ... 4 (adaptive)
Weight generation scheme         WeightScheme... Becke
Basis function cutoff            BFCut       ... 1.0000e-10
Integration weight cutoff        WCut        ... 1.0000e-14
Angular grids for H and He will be reduced by one unit
Partially contracted basis set               ... on
Rotationally invariant grid construction     ... off

Total number of grid points                  ...    13256
Total number of batches                      ...      234
Average number of points per batch           ...       56
Average number of grid points per atom       ...      288

Memory available               ... 896.3 MB
Memory needed per perturbation ...  10.1 MB
Perturbations treated per batch... 3
Number of batches              ... 1
     CP-SCF ITERATION   0:   1.0047e-01 (   1.6 sec   0/  3 done)
     CP-SCF ITERATION   1:   1.5302e-03 (   1.4 sec   2/  3 done)
     CP-SCF ITERATION   2:   8.0788e-05 (   1.0 sec   3/  3 done)
                    *** THE CP-SCF HAS CONVERGED ***

Forming final perturbed densities           ... done
Transforming perturbed density to AO basis  ... done

 Raw HFC matrix (all values in MHz): 
 -----------------------------------
                -0.0437              -0.0595               0.0021
                -0.0596               0.1097              -0.0061
                 0.0021              -0.0061              -0.0654

 A(FC)           0.0002               0.0002               0.0002
 A(SD)          -0.0643              -0.0658               0.1301
 A(ORB+DIA)      0.0000               0.0000               0.0000    A(PC) =   0.0000
 A(ORB)         -0.0000              -0.0000               0.0000    A(PC) =  -0.0000
 A(DIA)          0.0000               0.0000               0.0000    A(PC) =   0.0000
             ----------           ----------           ----------
 A(Tot)         -0.0641              -0.0656               0.1303    A(iso)=    0.0002
 Orientation: 
  X           0.9458811           -0.0183498            0.3239943
  Y           0.3244138            0.0287215           -0.9454791
  Z           0.0080437            0.9994190            0.0331201

Notes:  (1) The A matrix conforms to the "SAI" spin Hamiltonian convention.
        (2) Tensor is right-handed.

 -----------------------------------------------------------
 Nucleus  44H : A:ISTP=    1 I=  0.5 P=533.5514 MHz/au**3
                Q:ISTP=    2 I=  1.0 Q=  0.0029 barn     
 -----------------------------------------------------------
 Solving for nuclear perturbation:
Forming RHS of the CP-SCF equations         ... 
Calc. nucleus orbit integrals (SHARK)       ... done

------------------------------------------------------------------------------
                           ORCA CP-SCF CALCULATION
------------------------------------------------------------------------------

Input orbitals are from        ... cc-pVDZ.gbw
Input Perturbation             ... cc-pVDZ.pin.tmp
Wavefunction output            ... cc-pVDZ.pout.tmp
Perturbation mode              ... Imaginary perturbation
Solver                         ... POPLE
Max. number of iterations      ... 64
Convergence tolerance          ... 1.000e-03
Integral handling              ... Direct
DFT GridXC                     ... 1
COSX GridX                     ... 1
COSX IntAccX                   ... 3.067
COSX Algorithm                 ... Auto
Number of perturbations        ... 3
Number of operators            ... 2
Orbital ranges used for CP-SCF:
 Operator 0:  Orbitals   0... 70  to  71...400
 Operator 1:  Orbitals   0... 69  to  70...400
Variables per perturbation     ... 46600
DFT calculation                         ... on
XC functional terms                     ... off
Hybrid DFT                              ... on
   Exchange mixing (SCF)                ...  0.200
   Exchange mixing (CP-SCF)             ...  0.200
   GGA exch. scaling(SCF)               ...  0.720
   GGA exch. scaling (CP-SCF)           ...  0.720
   GGA corr. scaling (SCF)              ...  0.810
   GGA corr. scaling (CP-SCF)           ...  0.810

CP-SCF GRID
-----------

General Integration Accuracy     IntAcc      ... 3.467
Radial Grid Type                 RadialGrid  ... OptM3 with GC (2021)
Angular Grid (max. ang.)         AngularGrid ... 1 (Lebedev-50)
Angular grid pruning method      GridPruning ... 4 (adaptive)
Weight generation scheme         WeightScheme... Becke
Basis function cutoff            BFCut       ... 1.0000e-10
Integration weight cutoff        WCut        ... 1.0000e-14
Angular grids for H and He will be reduced by one unit
Partially contracted basis set               ... off
Rotationally invariant grid construction     ... off

Total number of grid points                  ...    27866
Total number of batches                      ...      455
Average number of points per batch           ...       61
Average number of grid points per atom       ...      606

CP-SCF GRIDX
------------

General Integration Accuracy     IntAcc      ... 3.067
Radial Grid Type                 RadialGrid  ... OptM3 with GC (2021)
Angular Grid (max. ang.)         AngularGrid ... 1 (Lebedev-50)
Angular grid pruning method      GridPruning ... 4 (adaptive)
Weight generation scheme         WeightScheme... Becke
Basis function cutoff            BFCut       ... 1.0000e-10
Integration weight cutoff        WCut        ... 1.0000e-14
Angular grids for H and He will be reduced by one unit
Partially contracted basis set               ... on
Rotationally invariant grid construction     ... off

Total number of grid points                  ...    13256
Total number of batches                      ...      234
Average number of points per batch           ...       56
Average number of grid points per atom       ...      288

Memory available               ... 895.8 MB
Memory needed per perturbation ...  10.1 MB
Perturbations treated per batch... 3
Number of batches              ... 1
     CP-SCF ITERATION   0:   3.6531e-02 (   1.3 sec   0/  3 done)
     CP-SCF ITERATION   1:   5.7379e-04 (   1.4 sec   3/  3 done)
                    *** THE CP-SCF HAS CONVERGED ***

Forming final perturbed densities           ... done
Transforming perturbed density to AO basis  ... done

 Raw HFC matrix (all values in MHz): 
 -----------------------------------
                -0.0130               0.0081              -0.0002
                 0.0081               0.0277              -0.0008
                -0.0002              -0.0008              -0.0146

 A(FC)           0.0000               0.0000               0.0000
 A(SD)          -0.0146              -0.0146               0.0292
 A(ORB+DIA)      0.0000               0.0000               0.0000    A(PC) =   0.0000
 A(ORB)         -0.0000              -0.0000               0.0000    A(PC) =  -0.0000
 A(DIA)          0.0000               0.0000               0.0000    A(PC) =   0.0000
             ----------           ----------           ----------
 A(Tot)         -0.0146              -0.0146               0.0292    A(iso)=    0.0000
 Orientation: 
  X           0.9817617           -0.0168718           -0.1893657
  Y          -0.1889642            0.0228691           -0.9817176
  Z           0.0208940            0.9995961            0.0192638

Notes:  (1) The A matrix conforms to the "SAI" spin Hamiltonian convention.
        (2) Tensor is right-handed.

 -----------------------------------------------------------
 Nucleus  45H : A:ISTP=    1 I=  0.5 P=533.5514 MHz/au**3
                Q:ISTP=    2 I=  1.0 Q=  0.0029 barn     
 -----------------------------------------------------------
 Solving for nuclear perturbation:
Forming RHS of the CP-SCF equations         ... 
Calc. nucleus orbit integrals (SHARK)       ... done

------------------------------------------------------------------------------
                           ORCA CP-SCF CALCULATION
------------------------------------------------------------------------------

Input orbitals are from        ... cc-pVDZ.gbw
Input Perturbation             ... cc-pVDZ.pin.tmp
Wavefunction output            ... cc-pVDZ.pout.tmp
Perturbation mode              ... Imaginary perturbation
Solver                         ... POPLE
Max. number of iterations      ... 64
Convergence tolerance          ... 1.000e-03
Integral handling              ... Direct
DFT GridXC                     ... 1
COSX GridX                     ... 1
COSX IntAccX                   ... 3.067
COSX Algorithm                 ... Auto
Number of perturbations        ... 3
Number of operators            ... 2
Orbital ranges used for CP-SCF:
 Operator 0:  Orbitals   0... 70  to  71...400
 Operator 1:  Orbitals   0... 69  to  70...400
Variables per perturbation     ... 46600
DFT calculation                         ... on
XC functional terms                     ... off
Hybrid DFT                              ... on
   Exchange mixing (SCF)                ...  0.200
   Exchange mixing (CP-SCF)             ...  0.200
   GGA exch. scaling(SCF)               ...  0.720
   GGA exch. scaling (CP-SCF)           ...  0.720
   GGA corr. scaling (SCF)              ...  0.810
   GGA corr. scaling (CP-SCF)           ...  0.810

CP-SCF GRID
-----------

General Integration Accuracy     IntAcc      ... 3.467
Radial Grid Type                 RadialGrid  ... OptM3 with GC (2021)
Angular Grid (max. ang.)         AngularGrid ... 1 (Lebedev-50)
Angular grid pruning method      GridPruning ... 4 (adaptive)
Weight generation scheme         WeightScheme... Becke
Basis function cutoff            BFCut       ... 1.0000e-10
Integration weight cutoff        WCut        ... 1.0000e-14
Angular grids for H and He will be reduced by one unit
Partially contracted basis set               ... off
Rotationally invariant grid construction     ... off

Total number of grid points                  ...    27866
Total number of batches                      ...      455
Average number of points per batch           ...       61
Average number of grid points per atom       ...      606

CP-SCF GRIDX
------------

General Integration Accuracy     IntAcc      ... 3.067
Radial Grid Type                 RadialGrid  ... OptM3 with GC (2021)
Angular Grid (max. ang.)         AngularGrid ... 1 (Lebedev-50)
Angular grid pruning method      GridPruning ... 4 (adaptive)
Weight generation scheme         WeightScheme... Becke
Basis function cutoff            BFCut       ... 1.0000e-10
Integration weight cutoff        WCut        ... 1.0000e-14
Angular grids for H and He will be reduced by one unit
Partially contracted basis set               ... on
Rotationally invariant grid construction     ... off

Total number of grid points                  ...    13256
Total number of batches                      ...      234
Average number of points per batch           ...       56
Average number of grid points per atom       ...      288

Memory available               ... 895.4 MB
Memory needed per perturbation ...  10.1 MB
Perturbations treated per batch... 3
Number of batches              ... 1
     CP-SCF ITERATION   0:   4.2805e-02 (   1.4 sec   0/  3 done)
     CP-SCF ITERATION   1:   1.6699e-03 (   1.4 sec   2/  3 done)
     CP-SCF ITERATION   2:   7.5146e-05 (   1.0 sec   3/  3 done)
                    *** THE CP-SCF HAS CONVERGED ***

Forming final perturbed densities           ... done
Transforming perturbed density to AO basis  ... done

 Raw HFC matrix (all values in MHz): 
 -----------------------------------
                -0.0327               0.0694              -0.0013
                 0.0694               0.0964              -0.0030
                -0.0013              -0.0030              -0.0644

 A(FC)          -0.0003              -0.0003              -0.0003
 A(SD)          -0.0627              -0.0642               0.1269
 A(ORB+DIA)      0.0000               0.0000               0.0000    A(PC) =   0.0000
 A(ORB)         -0.0000              -0.0000               0.0000    A(PC) =  -0.0000
 A(DIA)          0.0000               0.0000               0.0000    A(PC) =   0.0000
             ----------           ----------           ----------
 A(Tot)         -0.0629              -0.0645               0.1267    A(iso)=   -0.0002
 Orientation: 
  X           0.9166874           -0.0181406           -0.3991932
  Y          -0.3986760            0.0265689           -0.9167069
  Z           0.0272357            0.9994824            0.0171232

Notes:  (1) The A matrix conforms to the "SAI" spin Hamiltonian convention.
        (2) Tensor is right-handed.


--------------------------------------------------------------------------------
----------------------------------------------------------------------------
                           ORCA EULER ANGLE PROGRAM
----------------------------------------------------------------------------

Only g-tensor available        -->  using g-tensor as reference tensor

Reference tensor               ...  g

g-tensor ordering              ...  |g_min> --> |gx>
                                    |g_mid> --> |gy>
                                    |g_max> --> |gz>

A- and EFG-tensor ordering     ...  the axes |Ax>, |Qx>, |Ay>, etc. are assigned
                                    such that the Euler rotation is minimal. You
                                    can find the respective eigenvalues as Ax,
                                    EFGx, Ay, etc. in the tables below.
                                    The relation of |Ax>, |Ay>,  etc. to Amin, Amid, etc.
                                    (as printed in the ORCA EPR/NMR CALCULATION Output)
                                    is obtained in the detailed printout.

Euler rotation around          ...  z - y - z
   First rotation              -->  by alpha around z
   Second rotation             -->  by beta around y'
   Third rotation              -->  by gamma around z''
   Positive / Negative angle   -->  clockwise / counterclockwise rotation

Plot EFG-tensors                    (-)
Plot HFC-tensors                    (-)
Detailed Printout                   (-)

-------------------------------------------------------------------------
          Euler rotation of hyperfine tensor to g-tensor
-------------------------------------------------------------------------

-------------------------------------------------------------------
 Atom  |   Alpha    Beta    Gamma   |   Ax       Ay       Az 
       |          [degrees]         |           [MHz]         
-------------------------------------------------------------------
  7H      -71.7      0.3     37.6       0.10    -0.04    -0.04
  8H      -10.2      0.3     45.7      -0.13     0.28    -0.15
 10H      -39.3      6.1     79.4      -0.04     0.07    -0.04
 11H      139.8      6.2    -99.6      -0.04     0.07    -0.04
 13H     -129.5      6.1     89.8       0.06    -0.03    -0.03
 14H       41.8      4.8    -81.3       0.06    -0.03    -0.03
 16H      147.8      6.0   -105.0      -0.02     0.04    -0.02
 17H      -32.2      6.4     74.8      -0.02     0.04    -0.02
 19H       21.7      3.1    -60.5       0.03    -0.02    -0.02
 20H     -158.4      3.6    119.6       0.03    -0.02    -0.02
 22H      -74.9     34.5     51.5       0.38    -0.19    -0.23
 23H      104.9     33.6   -128.3       0.38    -0.19    -0.23
 25H      -18.0     42.4     52.0      -0.35     0.58    -0.47
 26H      161.8     41.8   -127.8      -0.35     0.58    -0.47
 28H      -63.2     33.9     46.1       1.51    -0.37    -0.60
 29H      116.6     33.8   -133.8       1.52    -0.36    -0.59
 31H      154.3     43.5   -133.5      -1.29     1.85    -2.16
 32H      -25.5     43.5     46.3      -1.28     1.85    -2.16
 34H      138.7     41.1   -137.1       4.16    -5.53    -8.96
 35H      -41.1     40.9     42.7       4.15    -5.54    -8.96
 37H     -139.4     36.8    158.6      24.10    37.99    23.67
 38H       41.1     36.9    -21.7      23.89    37.77    23.45
 40H       96.6     30.9    -78.0     -59.16   -96.24   -18.05
 41H      -83.5     30.7    102.0     -59.16   -96.23   -18.05
 43H      -38.8      0.3     25.8       0.13    -0.06    -0.07
 44H     -149.8      0.2    107.0       0.03    -0.01    -0.01
 45H      -16.1      0.2     50.6      -0.06     0.13    -0.06
-------------------------------------------------------------------


Maximum memory used throughout the entire EPRNMR-calculation: 181.7 MB

Timings for individual modules:

Sum of individual times         ...     3253.761 sec (=  54.229 min)
GTO integral calculation        ...        4.882 sec (=   0.081 min)   0.2 %
Spin-Orbit-Coupling Matrices    ...        7.220 sec (=   0.120 min)   0.2 %
SCF iterations                  ...       23.678 sec (=   0.395 min)   0.7 %
EPR/NMR calculation             ...     3217.982 sec (=  53.633 min)  98.9 %
                             ****ORCA TERMINATED NORMALLY****
TOTAL RUN TIME: 0 days 0 hours 54 minutes 18 seconds 208 msec
