
                                 *****************
                                 * O   R   C   A *
                                 *****************

                                            #,                                       
                                            ###                                      
                                            ####                                     
                                            #####                                    
                                            ######                                   
                                           ########,                                 
                                     ,,################,,,,,                         
                               ,,#################################,,                 
                          ,,##########################################,,             
                       ,#########################################, ''#####,          
                    ,#############################################,,   '####,        
                  ,##################################################,,,,####,       
                ,###########''''           ''''###############################       
              ,#####''   ,,,,##########,,,,          '''####'''          '####       
            ,##' ,,,,###########################,,,                        '##       
           ' ,,###''''                  '''############,,,                           
         ,,##''                                '''############,,,,        ,,,,,,###''
      ,#''                                            '''#######################'''  
     '                                                          ''''####''''         
             ,#######,   #######,   ,#######,      ##                                
            ,#'     '#,  ##    ##  ,#'     '#,    #''#        ######   ,####,        
            ##       ##  ##   ,#'  ##            #'  '#       #        #'  '#        
            ##       ##  #######   ##           ,######,      #####,   #    #        
            '#,     ,#'  ##    ##  '#,     ,#' ,#      #,         ##   #,  ,#        
             '#######'   ##     ##  '#######'  #'      '#     #####' # '####'        



                  #######################################################
                  #                        -***-                        #
                  #          Department of theory and spectroscopy      #
                  #    Directorship and core code : Frank Neese         #
                  #        Max Planck Institute fuer Kohlenforschung    #
                  #                Kaiser Wilhelm Platz 1               #
                  #                 D-45470 Muelheim/Ruhr               #
                  #                      Germany                        #
                  #                                                     #
                  #                  All rights reserved                #
                  #                        -***-                        #
                  #######################################################


                         Program Version 5.0.4 -  RELEASE  -


 With contributions from (in alphabetic order):
   Daniel Aravena         : Magnetic Suceptibility
   Michael Atanasov       : Ab Initio Ligand Field Theory (pilot matlab implementation)
   Alexander A. Auer      : GIAO ZORA, VPT2 properties, NMR spectrum
   Ute Becker             : Parallelization
   Giovanni Bistoni       : ED, misc. LED, open-shell LED, HFLD
   Martin Brehm           : Molecular dynamics
   Dmytro Bykov           : SCF Hessian
   Vijay G. Chilkuri      : MRCI spin determinant printing, contributions to CSF-ICE
   Dipayan Datta          : RHF DLPNO-CCSD density
   Achintya Kumar Dutta   : EOM-CC, STEOM-CC
   Dmitry Ganyushin       : Spin-Orbit,Spin-Spin,Magnetic field MRCI
   Miquel Garcia          : C-PCM and meta-GGA Hessian, CC/C-PCM, Gaussian charge scheme
   Yang Guo               : DLPNO-NEVPT2, F12-NEVPT2, CIM, IAO-localization
   Andreas Hansen         : Spin unrestricted coupled pair/coupled cluster methods
   Benjamin Helmich-Paris : MC-RPA, TRAH-SCF, COSX integrals
   Lee Huntington         : MR-EOM, pCC
   Robert Izsak           : Overlap fitted RIJCOSX, COSX-SCS-MP3, EOM
   Marcus Kettner         : VPT2
   Christian Kollmar      : KDIIS, OOCD, Brueckner-CCSD(T), CCSD density, CASPT2, CASPT2-K
   Simone Kossmann        : Meta GGA functionals, TD-DFT gradient, OOMP2, MP2 Hessian
   Martin Krupicka        : Initial AUTO-CI
   Lucas Lang             : DCDCAS
   Marvin Lechner         : AUTO-CI (C++ implementation), FIC-MRCC
   Dagmar Lenk            : GEPOL surface, SMD
   Dimitrios Liakos       : Extrapolation schemes; Compound Job, initial MDCI parallelization
   Dimitrios Manganas     : Further ROCIS development; embedding schemes
   Dimitrios Pantazis     : SARC Basis sets
   Anastasios Papadopoulos: AUTO-CI, single reference methods and gradients
   Taras Petrenko         : DFT Hessian,TD-DFT gradient, ASA, ECA, R-Raman, ABS, FL, XAS/XES, NRVS
   Peter Pinski           : DLPNO-MP2, DLPNO-MP2 Gradient
   Christoph Reimann      : Effective Core Potentials
   Marius Retegan         : Local ZFS, SOC
   Christoph Riplinger    : Optimizer, TS searches, QM/MM, DLPNO-CCSD(T), (RO)-DLPNO pert. Triples
   Tobias Risthaus        : Range-separated hybrids, TD-DFT gradient, RPA, STAB
   Michael Roemelt        : Original ROCIS implementation
   Masaaki Saitow         : Open-shell DLPNO-CCSD energy and density
   Barbara Sandhoefer     : DKH picture change effects
   Avijit Sen             : IP-ROCIS
   Kantharuban Sivalingam : CASSCF convergence, NEVPT2, FIC-MRCI
   Bernardo de Souza      : ESD, SOC TD-DFT
   Georgi Stoychev        : AutoAux, RI-MP2 NMR, DLPNO-MP2 response
   Willem Van den Heuvel  : Paramagnetic NMR
   Boris Wezisla          : Elementary symmetry handling
   Frank Wennmohs         : Technical directorship


 We gratefully acknowledge several colleagues who have allowed us to
 interface, adapt or use parts of their codes:
   Stefan Grimme, W. Hujo, H. Kruse, P. Pracht,  : VdW corrections, initial TS optimization,
                  C. Bannwarth, S. Ehlert          DFT functionals, gCP, sTDA/sTD-DF
   Ed Valeev, F. Pavosevic, A. Kumar             : LibInt (2-el integral package), F12 methods
   Garnet Chan, S. Sharma, J. Yang, R. Olivares  : DMRG
   Ulf Ekstrom                                   : XCFun DFT Library
   Mihaly Kallay                                 : mrcc  (arbitrary order and MRCC methods)
   Jiri Pittner, Ondrej Demel                    : Mk-CCSD
   Frank Weinhold                                : gennbo (NPA and NBO analysis)
   Christopher J. Cramer and Donald G. Truhlar   : smd solvation model
   Lars Goerigk                                  : TD-DFT with DH, B97 family of functionals
   V. Asgeirsson, H. Jonsson                     : NEB implementation
   FAccTs GmbH                                   : IRC, NEB, NEB-TS, DLPNO-Multilevel, CI-OPT
                                                   MM, QMMM, 2- and 3-layer-ONIOM, Crystal-QMMM,
                                                   LR-CPCM, SF, NACMEs, symmetry and pop. for TD-DFT,
                                                   nearIR, NL-DFT gradient (VV10), updates on ESD,
                                                   ML-optimized integration grids
   S Lehtola, MJT Oliveira, MAL Marques          : LibXC Library
   Liviu Ungur et al                             : ANISO software


 Your calculation uses the libint2 library for the computation of 2-el integrals
 For citations please refer to: http://libint.valeyev.net

 Your ORCA version has been built with support for libXC version: 5.1.0
 For citations please refer to: https://tddft.org/programs/libxc/

 This ORCA versions uses:
   CBLAS   interface :  Fast vector & matrix operations
   LAPACKE interface :  Fast linear algebra routines
   SCALAPACK package :  Parallel linear algebra routines
   Shared memory     :  Shared parallel matrices
   BLAS/LAPACK       :  OpenBLAS 0.3.15  USE64BITINT DYNAMIC_ARCH NO_AFFINITY SkylakeX SINGLE_THREADED
        Core in use  :  SkylakeX
   Copyright (c) 2011-2014, The OpenBLAS Project




***************************************
The coordinates will be read from file: opt_cc-pVDZ.xyz
***************************************


================================================================================

----- Orbital basis set information -----
Your calculation utilizes the basis: cc-pVDZ 
       H, B-Ne : Obtained from the ccRepo (grant-hill.group.shef.ac.uk/ccrepo) Feb. 2017
                 T. H. Dunning, Jr., J. Chem. Phys. 90, 1007 (1989)
            He : Obtained from the ccRepo (grant-hill.group.shef.ac.uk/ccrepo) Feb. 2017
                 D. E. Woon, T. H. Dunning, Jr., J. Chem. Phys. 100, 2975 (1994)
  Li-Be, Na-Mg : Obtained from the ccRepo (grant-hill.group.shef.ac.uk/ccrepo) Feb. 2017
                 B. P. Prascher, D. E. Woon, K. A. Peterson, T. H. Dunning, Jr., A. K. Wilson, Theor. Chem. Acc. 128, 69 (2011)
         Al-Ar : Obtained from the ccRepo (grant-hill.group.shef.ac.uk/ccrepo) Feb. 2017
                 D. E. Woon, T. H. Dunning, Jr., J. Chem. Phys. 98, 1358 (1993)
            Ca : Obtained from the Peterson Research Group Website (tyr0.chem.wsu.edu/~kipeters) Feb. 2017
                 J. Koput, K. A. Peterson, J. Phys. Chem. 106, 9595 (2002)
         Sc-Zn : Obtained from the ccRepo (grant-hill.group.shef.ac.uk/ccrepo) Feb. 2017
                 N. B. Balabanov, K. A. Peterson, J. Chem. Phys. 123, 064107 (2005)
                 N. B. Balabanov, K. A. Peterson, J. Chem. Phys. 125, 074110 (2006)
         Ga-Kr : Obtained from the ccRepo (grant-hill.group.shef.ac.uk/ccrepo) Feb. 2017
                 A. K. Wilson, D. E. Woon, K. A. Peterson, T. H. Dunning, Jr., J. Chem. Phys. 110, 7667 (1999)

----- AuxJ basis set information -----
Your calculation utilizes the AutoAux generation procedure.
  G. L. Stoychev, A. A. Auer, F. Neese, J. Chem. Theory Comput. 13, 554 (2017)

----- AuxC basis set information -----
Your calculation utilizes the AutoAux generation procedure.
  G. L. Stoychev, A. A. Auer, F. Neese, J. Chem. Theory Comput. 13, 554 (2017)

----- AuxJK basis set information -----
Your calculation utilizes the AutoAux generation procedure.
  G. L. Stoychev, A. A. Auer, F. Neese, J. Chem. Theory Comput. 13, 554 (2017)

================================================================================
                                        WARNINGS
                       Please study these warnings very carefully!
================================================================================

WARNING: Old DensityContainer found on disk!
         Will remove this file - 
         If you want to keep old densities, please start your calculation with a different basename. 


WARNING: your system is open-shell and RHF/RKS was chosen
  ===> : WILL SWITCH to UHF/UKS


INFO   : the flag for use of the SHARK integral package has been found!

================================================================================
                                       INPUT FILE
================================================================================
NAME = cc-pVDZ.inp
|  1> ! B3LYP cc-pVDZ AUTOAUX
|  2> %pal nprocs 16 end
|  3> *XYZFile 0 2 opt_cc-pVDZ.xyz
|  4> %EPRNMR
|  5>         GTENSOR   TRUE
|  6>         NUCLEI    = ALL H {SHIFT, AISO, ADIP, AORB}
|  7>         ORI       CenterOfElCharge
|  8> END
|  9> 
| 10>                          ****END OF INPUT****
================================================================================

                       ****************************
                       * Single Point Calculation *
                       ****************************

---------------------------------
CARTESIAN COORDINATES (ANGSTROEM)
---------------------------------
  C      4.260858   -0.079059   -0.044003
  C      0.045450   -0.014090   -0.134842
  C      0.704771   -1.253031   -0.086291
  C      2.101954   -1.235180   -0.057796
  C      2.827944   -0.025995   -0.076106
  C      2.154189    1.220083   -0.124789
  C      0.753308    1.188798   -0.153319
  H      2.668497   -2.165912   -0.020459
  H      0.193918    2.124593   -0.191201
  C     -0.111958   -2.534895   -0.065106
  H     -0.785744   -2.530067   -0.942454
  H     -0.783440   -2.503205    0.813682
  C      0.667159   -3.852682   -0.045539
  H      1.334359   -3.904332   -0.925707
  H      1.325797   -3.884054    0.841939
  C     -0.246306   -5.084114   -0.034816
  H     -0.917017   -5.032681    0.843142
  H     -0.906655   -5.055516   -0.921607
  C      0.525018   -6.406223   -0.013061
  H      1.167844   -6.480056    0.881113
  H      1.178165   -6.503305   -0.897466
  C      2.952249    2.510065   -0.143621
  H      3.610531    2.523573    0.744656
  H      3.648581    2.474855   -1.001696
  C      2.153089    3.815066   -0.196858
  H      1.507145    3.823673   -1.094046
  H      1.473378    3.874270    0.673093
  C      3.051924    5.057517   -0.215562
  H      3.705029    5.049994    0.677487
  H      3.731779    5.004054   -1.086825
  C      2.270280    6.375265   -0.261870
  H      1.591532    6.428197    0.610746
  H      1.615679    6.380969   -1.154296
  C      3.165182    7.619488   -0.283178
  H      3.840345    7.577562   -1.157596
  H      3.818996    7.623060    0.608287
  C      2.361207    8.944210   -0.327269
  H      1.709407    8.920675   -1.220825
  H      1.689330    8.967401    0.551250
  C      3.214261   10.168439   -0.350108
  H      3.592496   10.605925    0.578245
  H      3.615223   10.555065   -1.291427
  C      5.475459   -0.132927   -0.017936
  H      6.546452   -0.180592    0.006458
  H     -0.156964   -7.271987   -0.005648
  H     -1.048305    0.010962   -0.158875

----------------------------
CARTESIAN COORDINATES (A.U.)
----------------------------
  NO LB      ZA    FRAG     MASS         X           Y           Z
   0 C     6.0000    0    12.011    8.051854   -0.149400   -0.083153
   1 C     6.0000    0    12.011    0.085888   -0.026627   -0.254814
   2 C     6.0000    0    12.011    1.331824   -2.367885   -0.163067
   3 C     6.0000    0    12.011    3.972117   -2.334153   -0.109218
   4 C     6.0000    0    12.011    5.344039   -0.049124   -0.143819
   5 C     6.0000    0    12.011    4.070827    2.305623   -0.235817
   6 C     6.0000    0    12.011    1.423546    2.246503   -0.289730
   7 H     1.0000    0     1.008    5.042729   -4.092981   -0.038662
   8 H     1.0000    0     1.008    0.366453    4.014898   -0.361317
   9 C     6.0000    0    12.011   -0.211571   -4.790258   -0.123033
  10 H     1.0000    0     1.008   -1.484842   -4.781134   -1.780979
  11 H     1.0000    0     1.008   -1.480486   -4.730372    1.537637
  12 C     6.0000    0    12.011    1.260748   -7.280513   -0.086056
  13 H     1.0000    0     1.008    2.521573   -7.378118   -1.749334
  14 H     1.0000    0     1.008    2.505393   -7.339799    1.591033
  15 C     6.0000    0    12.011   -0.465451   -9.607584   -0.065792
  16 H     1.0000    0     1.008   -1.732912   -9.510388    1.593307
  17 H     1.0000    0     1.008   -1.713330   -9.553541   -1.741585
  18 C     6.0000    0    12.011    0.992140  -12.106007   -0.024683
  19 H     1.0000    0     1.008    2.206905  -12.245531    1.665062
  20 H     1.0000    0     1.008    2.226410  -12.289465   -1.695965
  21 C     6.0000    0    12.011    5.578942    4.743336   -0.271404
  22 H     1.0000    0     1.008    6.822915    4.768862    1.407195
  23 H     1.0000    0     1.008    6.894820    4.676799   -1.892931
  24 C     6.0000    0    12.011    4.068748    7.209430   -0.372008
  25 H     1.0000    0     1.008    2.848092    7.225694   -2.067448
  26 H     1.0000    0     1.008    2.784280    7.321309    1.271961
  27 C     6.0000    0    12.011    5.767300    9.557322   -0.407354
  28 H     1.0000    0     1.008    7.001491    9.543105    1.280265
  29 H     1.0000    0     1.008    7.052041    9.456292   -2.053802
  30 C     6.0000    0    12.011    4.290207   12.047505   -0.494862
  31 H     1.0000    0     1.008    3.007559   12.147531    1.154142
  32 H     1.0000    0     1.008    3.053191   12.058284   -2.181304
  33 C     6.0000    0    12.011    5.981326   14.398746   -0.535128
  34 H     1.0000    0     1.008    7.257200   14.319518   -2.187540
  35 H     1.0000    0     1.008    7.216856   14.405496    1.149495
  36 C     6.0000    0    12.011    4.462035   16.902107   -0.618449
  37 H     1.0000    0     1.008    3.230310   16.857632   -2.307026
  38 H     1.0000    0     1.008    3.192371   16.945932    1.041712
  39 C     6.0000    0    12.011    6.074074   19.215564   -0.661608
  40 H     1.0000    0     1.008    6.788834   20.042294    1.092724
  41 H     1.0000    0     1.008    6.831782   19.946182   -2.440444
  42 C     6.0000    0    12.011   10.347118   -0.251197   -0.033895
  43 H     1.0000    0     1.008   12.371001   -0.341269    0.012205
  44 H     1.0000    0     1.008   -0.296619  -13.742064   -0.010674
  45 H     1.0000    0     1.008   -1.981010    0.020715   -0.300230

--------------------------------
INTERNAL COORDINATES (ANGSTROEM)
--------------------------------
 C      0   0   0     0.000000000000     0.00000000     0.00000000
 C      1   0   0     4.216886946045     0.00000000     0.00000000
 C      2   1   0     1.404291531551    61.07416861     0.00000000
 C      3   2   1     1.397587342993   117.31001597   359.97639140
 C      4   3   2     1.410505596039   121.68424912     0.03109556
 C      5   4   3     1.417401409721   120.62626657     0.00000000
 C      2   1   3     1.395831319551    60.43682442   179.99087668
 H      4   3   2     1.090241841547   120.61677633   180.03750678
 H      7   2   1     1.090900517362   118.66334412   179.99627892
 C      3   2   1     1.520089653150   119.48594383   179.88719686
 H     10   3   2     1.106231895230   108.21116833    55.27138093
 H     10   3   2     1.106417914889   108.23983911   301.89419807
 C     10   3   2     1.531002180283   116.91039242   178.59136700
 H     13  10   3     1.105676276706   109.70127536   302.29184799
 H     13  10   3     1.105624019439   109.74527456    58.55314262
 C     13  10   3     1.533283930179   112.84238519   180.39750044
 H     16  13  10     1.106033052287   109.23707348   302.41169761
 H     16  13  10     1.106018624371   109.22771012    57.76191422
 C     16  13  10     1.530811687140   113.17597271   180.08835129
 H     19  16  13     1.103732097801   111.26880915    59.84523047
 H     19  16  13     1.103719961123   111.26931563   300.14944410
 C      6   5   4     1.517006921708   119.86269377   179.99097063
 H     22   6   5     1.105691238740   108.27745537   303.62601537
 H     22   6   5     1.105626959626   108.29323986    56.28751996
 C     22   6   5     1.531181614880   116.78196806   179.98839135
 H     25  22   6     1.105560159940   109.86434020   301.90829703
 H     25  22   6     1.105589053736   109.82556226    58.36529942
 C     25  22   6     1.533603258439   112.64414425   180.13496783
 H     28  25  22     1.106408654752   109.30605188   302.59676953
 H     28  25  22     1.106417969549   109.30465283    57.98322939
 C     28  25  22     1.532831283796   113.45148450   180.28348934
 H     31  28  25     1.106778234222   109.27000389    57.78675185
 H     31  28  25     1.106779140312   109.29237343   302.41233417
 C     31  28  25     1.532773142941   113.61203199   180.10184952
 H     34  31  28     1.105536599917   109.68029237    58.16976369
 H     34  31  28     1.105529034738   109.67600218   302.06426363
 C     34  31  28     1.550227972564   113.03342153   180.10882303
 H     37  34  31     1.106273448717   108.08061925   302.61016947
 H     37  34  31     1.106233443830   108.07803396    57.50123908
 C     37  34  31     1.492299931336   113.89129600   180.06458804
 H     40  37  34     1.093752247095   120.85216694   275.07089663
 H     40  37  34     1.093769867420   120.84442750    84.79401635
 C      1   2   3     1.216074775027   178.34389730     1.77566418
 H     43   1   5     1.072330497013   179.92415773   269.26139244
 H     19  16  13     1.102135149388   111.51530939   179.99403574
 H      2   1   3     1.094306083323   179.57028509   181.63381856

---------------------------
INTERNAL COORDINATES (A.U.)
---------------------------
 C      0   0   0     0.000000000000     0.00000000     0.00000000
 C      1   0   0     7.968761465732     0.00000000     0.00000000
 C      2   1   0     2.653726406816    61.07416861     0.00000000
 C      3   2   1     2.641057326492   117.31001597   359.97639140
 C      4   3   2     2.665469286876   121.68424912     0.03109556
 C      5   4   3     2.678500486206   120.62626657     0.00000000
 C      2   1   3     2.637738923102    60.43682442   179.99087668
 H      4   3   2     2.060258500265   120.61677633   180.03750678
 H      7   2   1     2.061503217167   118.66334412   179.99627892
 C      3   2   1     2.872553143461   119.48594383   179.88719686
 H     10   3   2     2.090475322594   108.21116833    55.27138093
 H     10   3   2     2.090826848805   108.23983911   301.89419807
 C     10   3   2     2.893174831172   116.91039242   178.59136700
 H     13  10   3     2.089425355747   109.70127536   302.29184799
 H     13  10   3     2.089326603825   109.74527456    58.55314262
 C     13  10   3     2.897486713580   112.84238519   180.39750044
 H     16  13  10     2.090099563887   109.23707348   302.41169761
 H     16  13  10     2.090072299078   109.22771012    57.76191422
 C     16  13  10     2.892814851300   113.17597271   180.08835129
 H     19  16  13     2.085751390063   111.26880915    59.84523047
 H     19  16  13     2.085728455065   111.26931563   300.14944410
 C      6   5   4     2.866727625291   119.86269377   179.99097063
 H     22   6   5     2.089453629895   108.27745537   303.62601537
 H     22   6   5     2.089332159973   108.29323986    56.28751996
 C     22   6   5     2.893513913418   116.78196806   179.98839135
 H     25  22   6     2.089205926860   109.86434020   301.90829703
 H     25  22   6     2.089260528221   109.82556226    58.36529942
 C     25  22   6     2.898090156539   112.64414425   180.13496783
 H     28  25  22     2.090809349682   109.30605188   302.59676953
 H     28  25  22     2.090826952097   109.30465283    57.98322939
 C     28  25  22     2.896631335881   113.45148450   180.28348934
 H     31  28  25     2.091507753664   109.27000389    57.78675185
 H     31  28  25     2.091509465926   109.29237343   302.41233417
 C     31  28  25     2.896521465587   113.61203199   180.10184952
 H     34  31  28     2.089161404869   109.68029237    58.16976369
 H     34  31  28     2.089147108753   109.67600218   302.06426363
 C     34  31  28     2.929506313289   113.03342153   180.10882303
 H     37  34  31     2.090553847304   108.08061925   302.61016947
 H     37  34  31     2.090478249024   108.07803396    57.50123908
 C     37  34  31     2.820038179894   113.89129600   180.06458804
 H     40  37  34     2.066892205370   120.85216694   275.07089663
 H     40  37  34     2.066925502959   120.84442750    84.79401635
 C      1   2   3     2.298048283171   178.34389730     1.77566418
 H     43   1   5     2.026410964407   179.92415773   269.26139244
 H     19  16  13     2.082733594911   111.51530939   179.99403574
 H      2   1   3     2.067938804164   179.57028509   181.63381856

---------------------
BASIS SET INFORMATION
---------------------
There are 2 groups of distinct atoms

 Group   1 Type C   : 17s4p1d contracted to 3s2p1d pattern {881/31/1}
 Group   2 Type H   : 4s1p contracted to 2s1p pattern {31/1}

Atom   0C    basis set group =>   1
Atom   1C    basis set group =>   1
Atom   2C    basis set group =>   1
Atom   3C    basis set group =>   1
Atom   4C    basis set group =>   1
Atom   5C    basis set group =>   1
Atom   6C    basis set group =>   1
Atom   7H    basis set group =>   2
Atom   8H    basis set group =>   2
Atom   9C    basis set group =>   1
Atom  10H    basis set group =>   2
Atom  11H    basis set group =>   2
Atom  12C    basis set group =>   1
Atom  13H    basis set group =>   2
Atom  14H    basis set group =>   2
Atom  15C    basis set group =>   1
Atom  16H    basis set group =>   2
Atom  17H    basis set group =>   2
Atom  18C    basis set group =>   1
Atom  19H    basis set group =>   2
Atom  20H    basis set group =>   2
Atom  21C    basis set group =>   1
Atom  22H    basis set group =>   2
Atom  23H    basis set group =>   2
Atom  24C    basis set group =>   1
Atom  25H    basis set group =>   2
Atom  26H    basis set group =>   2
Atom  27C    basis set group =>   1
Atom  28H    basis set group =>   2
Atom  29H    basis set group =>   2
Atom  30C    basis set group =>   1
Atom  31H    basis set group =>   2
Atom  32H    basis set group =>   2
Atom  33C    basis set group =>   1
Atom  34H    basis set group =>   2
Atom  35H    basis set group =>   2
Atom  36C    basis set group =>   1
Atom  37H    basis set group =>   2
Atom  38H    basis set group =>   2
Atom  39C    basis set group =>   1
Atom  40H    basis set group =>   2
Atom  41H    basis set group =>   2
Atom  42C    basis set group =>   1
Atom  43H    basis set group =>   2
Atom  44H    basis set group =>   2
Atom  45H    basis set group =>   2
---------------------------------
AUXILIARY/J BASIS SET INFORMATION
---------------------------------
There are 2 groups of distinct atoms

 Group   1 Type C   : 14s11p10d2f contracted to 14s11p10d2f pattern {11111111111111/11111111111/1111111111/11}
 Group   2 Type H   : 9s2p1d contracted to 9s2p1d pattern {111111111/11/1}

Atom   0C    basis set group =>   1
Atom   1C    basis set group =>   1
Atom   2C    basis set group =>   1
Atom   3C    basis set group =>   1
Atom   4C    basis set group =>   1
Atom   5C    basis set group =>   1
Atom   6C    basis set group =>   1
Atom   7H    basis set group =>   2
Atom   8H    basis set group =>   2
Atom   9C    basis set group =>   1
Atom  10H    basis set group =>   2
Atom  11H    basis set group =>   2
Atom  12C    basis set group =>   1
Atom  13H    basis set group =>   2
Atom  14H    basis set group =>   2
Atom  15C    basis set group =>   1
Atom  16H    basis set group =>   2
Atom  17H    basis set group =>   2
Atom  18C    basis set group =>   1
Atom  19H    basis set group =>   2
Atom  20H    basis set group =>   2
Atom  21C    basis set group =>   1
Atom  22H    basis set group =>   2
Atom  23H    basis set group =>   2
Atom  24C    basis set group =>   1
Atom  25H    basis set group =>   2
Atom  26H    basis set group =>   2
Atom  27C    basis set group =>   1
Atom  28H    basis set group =>   2
Atom  29H    basis set group =>   2
Atom  30C    basis set group =>   1
Atom  31H    basis set group =>   2
Atom  32H    basis set group =>   2
Atom  33C    basis set group =>   1
Atom  34H    basis set group =>   2
Atom  35H    basis set group =>   2
Atom  36C    basis set group =>   1
Atom  37H    basis set group =>   2
Atom  38H    basis set group =>   2
Atom  39C    basis set group =>   1
Atom  40H    basis set group =>   2
Atom  41H    basis set group =>   2
Atom  42C    basis set group =>   1
Atom  43H    basis set group =>   2
Atom  44H    basis set group =>   2
Atom  45H    basis set group =>   2
---------------------------------
AUXILIARY/C BASIS SET INFORMATION
---------------------------------
There are 2 groups of distinct atoms

 Group   1 Type C   : 14s11p10d2f contracted to 14s11p10d2f pattern {11111111111111/11111111111/1111111111/11}
 Group   2 Type H   : 9s2p1d contracted to 9s2p1d pattern {111111111/11/1}

Atom   0C    basis set group =>   1
Atom   1C    basis set group =>   1
Atom   2C    basis set group =>   1
Atom   3C    basis set group =>   1
Atom   4C    basis set group =>   1
Atom   5C    basis set group =>   1
Atom   6C    basis set group =>   1
Atom   7H    basis set group =>   2
Atom   8H    basis set group =>   2
Atom   9C    basis set group =>   1
Atom  10H    basis set group =>   2
Atom  11H    basis set group =>   2
Atom  12C    basis set group =>   1
Atom  13H    basis set group =>   2
Atom  14H    basis set group =>   2
Atom  15C    basis set group =>   1
Atom  16H    basis set group =>   2
Atom  17H    basis set group =>   2
Atom  18C    basis set group =>   1
Atom  19H    basis set group =>   2
Atom  20H    basis set group =>   2
Atom  21C    basis set group =>   1
Atom  22H    basis set group =>   2
Atom  23H    basis set group =>   2
Atom  24C    basis set group =>   1
Atom  25H    basis set group =>   2
Atom  26H    basis set group =>   2
Atom  27C    basis set group =>   1
Atom  28H    basis set group =>   2
Atom  29H    basis set group =>   2
Atom  30C    basis set group =>   1
Atom  31H    basis set group =>   2
Atom  32H    basis set group =>   2
Atom  33C    basis set group =>   1
Atom  34H    basis set group =>   2
Atom  35H    basis set group =>   2
Atom  36C    basis set group =>   1
Atom  37H    basis set group =>   2
Atom  38H    basis set group =>   2
Atom  39C    basis set group =>   1
Atom  40H    basis set group =>   2
Atom  41H    basis set group =>   2
Atom  42C    basis set group =>   1
Atom  43H    basis set group =>   2
Atom  44H    basis set group =>   2
Atom  45H    basis set group =>   2
----------------------------------
AUXILIARY/JK BASIS SET INFORMATION
----------------------------------
There are 2 groups of distinct atoms

 Group   1 Type C   : 14s11p10d2f contracted to 14s11p10d2f pattern {11111111111111/11111111111/1111111111/11}
 Group   2 Type H   : 9s2p1d contracted to 9s2p1d pattern {111111111/11/1}

Atom   0C    basis set group =>   1
Atom   1C    basis set group =>   1
Atom   2C    basis set group =>   1
Atom   3C    basis set group =>   1
Atom   4C    basis set group =>   1
Atom   5C    basis set group =>   1
Atom   6C    basis set group =>   1
Atom   7H    basis set group =>   2
Atom   8H    basis set group =>   2
Atom   9C    basis set group =>   1
Atom  10H    basis set group =>   2
Atom  11H    basis set group =>   2
Atom  12C    basis set group =>   1
Atom  13H    basis set group =>   2
Atom  14H    basis set group =>   2
Atom  15C    basis set group =>   1
Atom  16H    basis set group =>   2
Atom  17H    basis set group =>   2
Atom  18C    basis set group =>   1
Atom  19H    basis set group =>   2
Atom  20H    basis set group =>   2
Atom  21C    basis set group =>   1
Atom  22H    basis set group =>   2
Atom  23H    basis set group =>   2
Atom  24C    basis set group =>   1
Atom  25H    basis set group =>   2
Atom  26H    basis set group =>   2
Atom  27C    basis set group =>   1
Atom  28H    basis set group =>   2
Atom  29H    basis set group =>   2
Atom  30C    basis set group =>   1
Atom  31H    basis set group =>   2
Atom  32H    basis set group =>   2
Atom  33C    basis set group =>   1
Atom  34H    basis set group =>   2
Atom  35H    basis set group =>   2
Atom  36C    basis set group =>   1
Atom  37H    basis set group =>   2
Atom  38H    basis set group =>   2
Atom  39C    basis set group =>   1
Atom  40H    basis set group =>   2
Atom  41H    basis set group =>   2
Atom  42C    basis set group =>   1
Atom  43H    basis set group =>   2
Atom  44H    basis set group =>   2
Atom  45H    basis set group =>   2

Checking for AutoStart:
The File: cc-pVDZ.gbw exists
Trying to determine its content:
     ... Fine, the file contains calculation information
     ... Fine, the calculation information was read
     ... Fine, the file contains a basis set
     ... Fine, the basis set was read
     ... Fine, the file contains a geometry
     ... Fine, the geometry was read
     ... Fine, the file contains a set of orbitals
     ... Fine, the orbitals can be read
     => possible old guess file was deleted
     => GBW file was renamed to GES file
     => GES file is set as startup file
     => Guess is set to MORead
     ... now leaving AutoStart



           ************************************************************
           *        Program running with 16 parallel MPI-processes    *
           *              working on a common directory               *
           ************************************************************
------------------------------------------------------------------------------
                           ORCA GTO INTEGRAL CALCULATION
                           -- RI-GTO INTEGRALS CHOSEN --
------------------------------------------------------------------------------
------------------------------------------------------------------------------
                   ___                                                        
                  /   \      - P O W E R E D   B Y -                         
                 /     \                                                     
                 |  |  |   _    _      __       _____    __    __             
                 |  |  |  | |  | |    /  \     |  _  \  |  |  /  |          
                  \  \/   | |  | |   /    \    | | | |  |  | /  /          
                 / \  \   | |__| |  /  /\  \   | |_| |  |  |/  /          
                |  |  |   |  __  | /  /__\  \  |    /   |      \           
                |  |  |   | |  | | |   __   |  |    \   |  |\   \          
                \     /   | |  | | |  |  |  |  | |\  \  |  | \   \       
                 \___/    |_|  |_| |__|  |__|  |_| \__\ |__|  \__/        
                                                                              
                      - O R C A' S   B I G   F R I E N D -                    
                                      &                                       
                       - I N T E G R A L  F E E D E R -                       
                                                                              
 v1 FN, 2020, v2 2021                                                         
------------------------------------------------------------------------------


Reading SHARK input file cc-pVDZ.SHARKINP.tmp ... ok
----------------------
SHARK INTEGRAL PACKAGE
----------------------

Number of atoms                             ...     46
Number of basis functions                   ...    515
Number of shells                            ...    309
Maximum angular momentum                    ...      2
Integral batch strategy                     ... SHARK/LIBINT Hybrid
RI-J (if used) integral strategy            ... SPLIT-RIJ (Revised 2003 algorithm where possible)
Printlevel                                  ...      1
Contraction scheme used                     ... PARTIAL GENERAL contraction
Coulomb Range Separation                    ... NOT USED
Exchange Range Separation                   ... NOT USED
Finite Nucleus Model                        ... NOT USED
Auxiliary Coulomb fitting basis             ... AVAILABLE
   # of basis functions in Aux-J            ...   2649
   # of shells in Aux-J                     ...   1027
   Maximum angular momentum in Aux-J        ...      3
Auxiliary J/K fitting basis                 ... AVAILABLE
   # of basis functions in Aux-JK           ...   2649
   # of shells in Aux-JK                    ...   1027
   Maximum angular momentum in Aux-JK       ...      3
Auxiliary Correlation fitting basis         ... AVAILABLE
   # of basis functions in Aux-C            ...   2649
   # of shells in Aux-C                     ...   1027
   Maximum angular momentum in Aux-C        ...      3
Auxiliary 'external' fitting basis          ... NOT available
Integral threshold                          ...     1.000000e-10
Primitive cut-off                           ...     1.000000e-11
Primitive pair pre-selection threshold      ...     1.000000e-11

Calculating pre-screening integrals         ... done (  0.0 sec) Dimension = 309
Calculating pre-screening integrals (ORCA)  ... done (  0.1 sec) Dimension = 195
Organizing shell pair data                  ... done (  0.1 sec)
Shell pair information
Total number of shell pairs                 ...     47895
Shell pairs after pre-screening             ...     20376
Total number of primitive shell pairs       ...     80739
Primitive shell pairs kept                  ...     28604
          la=0 lb=0:   9145 shell pairs
          la=1 lb=0:   7144 shell pairs
          la=1 lb=1:   1264 shell pairs
          la=2 lb=0:   1999 shell pairs
          la=2 lb=1:    712 shell pairs
          la=2 lb=2:    112 shell pairs

Calculating one electron integrals          ... done (  0.0 sec)
Calculating RI/J V-Matrix + Cholesky decomp.... done (  0.5 sec)
Calculating RI/JK V-Matrix + Cholesky decomp... done (  0.4 sec)
Calculating RI/C V-Matrix + Cholesky decomp.... done (  0.4 sec)
Calculating Nuclear repulsion               ... done (  0.0 sec) ENN=   1249.874956020445 Eh

SHARK setup successfully completed in   1.9 seconds

Maximum memory used throughout the entire GTOINT-calculation: 32.4 MB


           ************************************************************
           *        Program running with 16 parallel MPI-processes    *
           *              working on a common directory               *
           ************************************************************
-------------------------------------------------------------------------------
                                 ORCA SCF
-------------------------------------------------------------------------------

------------
SCF SETTINGS
------------
Hamiltonian:
 Density Functional     Method          .... DFT(GTOs)
 Exchange Functional    Exchange        .... B88
   X-Alpha parameter    XAlpha          ....  0.666667
   Becke's b parameter  XBeta           ....  0.004200
 Correlation Functional Correlation     .... LYP
 LDA part of GGA corr.  LDAOpt          .... VWN-5
 Gradients option       PostSCFGGA      .... off
 Hybrid DFT is turned on
   Fraction HF Exchange ScalHFX         ....  0.200000
   Scaling of DF-GGA-X  ScalDFX         ....  0.720000
   Scaling of DF-GGA-C  ScalDFC         ....  0.810000
   Scaling of DF-LDA-C  ScalLDAC        ....  1.000000
   Perturbative correction              ....  0.000000
   Density functional embedding theory  .... OFF
   NL short-range parameter             ....  4.800000
 RI-approximation to the Coulomb term is turned on
   Number of AuxJ basis functions       .... 2649
   RIJ-COSX (HFX calculated with COS-X)).... on


General Settings:
 Integral files         IntName         .... cc-pVDZ
 Hartree-Fock type      HFTyp           .... UHF
 Total Charge           Charge          ....    0
 Multiplicity           Mult            ....    2
 Number of Electrons    NEL             ....  141
 Basis Dimension        Dim             ....  401
 Nuclear Repulsion      ENuc            ....   1249.8749560204 Eh

Convergence Acceleration:
 DIIS                   CNVDIIS         .... on
   Start iteration      DIISMaxIt       ....    12
   Startup error        DIISStart       ....  0.200000
   # of expansion vecs  DIISMaxEq       ....     5
   Bias factor          DIISBfac        ....   1.050
   Max. coefficient     DIISMaxC        ....  10.000
 Trust-Rad. Augm. Hess. CNVTRAH         .... auto
   Auto Start mean grad. ratio tolernc. ....  1.125000
   Auto Start start iteration           ....     1
   Auto Start num. interpolation iter.  ....    10
   Max. Number of Micro iterations      ....    16
   Max. Number of Macro iterations      .... Maxiter - #DIIS iter
   Number of Davidson start vectors     ....     2
   Converg. threshold I  (grad. norm)   ....   5.000e-05
   Converg. threshold II (energy diff.) ....   1.000e-06
   Grad. Scal. Fac. for Micro threshold ....   0.100
   Minimum threshold for Micro iter.    ....   0.010
   NR start threshold (gradient norm)   ....   0.001
   Initial trust radius                 ....   0.400
   Minimum AH scaling param. (alpha)    ....   1.000
   Maximum AH scaling param. (alpha)    .... 1000.000
   Orbital update algorithm             .... Taylor
   White noise on init. David. guess    .... on
   Maximum white noise                  ....   0.010
   Quad. conv. algorithm                .... NR
 SOSCF                  CNVSOSCF        .... off
 Level Shifting         CNVShift        .... on
   Level shift para.    LevelShift      ....    0.2500
   Turn off err/grad.   ShiftErr        ....    0.0010
 Zerner damping         CNVZerner       .... off
 Static damping         CNVDamp         .... on
   Fraction old density DampFac         ....    0.7000
   Max. Damping (<1)    DampMax         ....    0.9800
   Min. Damping (>=0)   DampMin         ....    0.0000
   Turn off err/grad.   DampErr         ....    0.1000
 Fernandez-Rico         CNVRico         .... off

SCF Procedure:
 Maximum # iterations   MaxIter         ....   125
 SCF integral mode      SCFMode         .... Direct
   Integral package                     .... SHARK and LIBINT hybrid scheme
 Reset frequency        DirectResetFreq ....    20
 Integral Threshold     Thresh          ....  1.000e-10 Eh
 Primitive CutOff       TCut            ....  1.000e-11 Eh

Convergence Tolerance:
 Convergence Check Mode ConvCheckMode   .... Total+1el-Energy
 Convergence forced     ConvForced      .... 0
 Energy Change          TolE            ....  1.000e-06 Eh
 1-El. energy change                    ....  1.000e-03 Eh
 DIIS Error             TolErr          ....  1.000e-06


Diagonalization of the overlap matrix:
Smallest eigenvalue                        ... 1.543e-04
Time for diagonalization                   ...    0.029 sec
Threshold for overlap eigenvalues          ... 1.000e-08
Number of eigenvalues below threshold      ... 0
Time for construction of square roots      ...    0.043 sec
Total time needed                          ...    0.073 sec

---------------------
INITIAL GUESS: MOREAD
---------------------
Guess MOs are being read from file: cc-pVDZ.ges
Input geometry compatible with but different from current geometry
Input basis set matches current basis set (good)
MOs were renormalized
MOs were reorthogonalized (Cholesky)
                      ------------------
                      INITIAL GUESS DONE (   0.1 sec)
                      ------------------
-------------------
DFT GRID GENERATION
-------------------

General Integration Accuracy     IntAcc      ... 4.388
Radial Grid Type                 RadialGrid  ... OptM3 with GC (2021)
Angular Grid (max. ang.)         AngularGrid ... 4 (Lebedev-302)
Angular grid pruning method      GridPruning ... 4 (adaptive)
Weight generation scheme         WeightScheme... Becke
Basis function cutoff            BFCut       ... 1.0000e-10
Integration weight cutoff        WCut        ... 1.0000e-14
Angular grids for H and He will be reduced by one unit
Partially contracted basis set               ... off
Rotationally invariant grid construction     ... off

Total number of grid points                  ...   199577
Total number of batches                      ...     3141
Average number of points per batch           ...       63
Average number of grid points per atom       ...     4339
Time for grid setup =    1.043 sec

--------------------
COSX GRID GENERATION
--------------------

GRIDX 1
-------
General Integration Accuracy     IntAcc      ... 3.816
Radial Grid Type                 RadialGrid  ... OptM3 with GC (2021)
Angular Grid (max. ang.)         AngularGrid ... 1 (Lebedev-50)
Angular grid pruning method      GridPruning ... 4 (adaptive)
Weight generation scheme         WeightScheme... Becke
Basis function cutoff            BFCut       ... 1.0000e-10
Integration weight cutoff        WCut        ... 1.0000e-14
Angular grids for H and He will be reduced by one unit
Partially contracted basis set               ... on
Rotationally invariant grid construction     ... off

Total number of grid points                  ...    25466
Total number of batches                      ...      424
Average number of points per batch           ...       60
Average number of grid points per atom       ...      554
UseSFitting                                  ... on

GRIDX 2
-------
General Integration Accuracy     IntAcc      ... 4.020
Radial Grid Type                 RadialGrid  ... OptM3 with GC (2021)
Angular Grid (max. ang.)         AngularGrid ... 2 (Lebedev-110)
Angular grid pruning method      GridPruning ... 4 (adaptive)
Weight generation scheme         WeightScheme... Becke
Basis function cutoff            BFCut       ... 1.0000e-10
Integration weight cutoff        WCut        ... 1.0000e-14
Angular grids for H and He will be reduced by one unit
Partially contracted basis set               ... on
Rotationally invariant grid construction     ... off

Total number of grid points                  ...    53461
Total number of batches                      ...      857
Average number of points per batch           ...       62
Average number of grid points per atom       ...     1162
UseSFitting                                  ... on

GRIDX 3
-------
General Integration Accuracy     IntAcc      ... 4.338
Radial Grid Type                 RadialGrid  ... OptM3 with GC (2021)
Angular Grid (max. ang.)         AngularGrid ... 3 (Lebedev-194)
Angular grid pruning method      GridPruning ... 4 (adaptive)
Weight generation scheme         WeightScheme... Becke
Basis function cutoff            BFCut       ... 1.0000e-10
Integration weight cutoff        WCut        ... 1.0000e-14
Angular grids for H and He will be reduced by one unit
Partially contracted basis set               ... on
Rotationally invariant grid construction     ... off

Total number of grid points                  ...   116757
Total number of batches                      ...     1850
Average number of points per batch           ...       63
Average number of grid points per atom       ...     2538
UseSFitting                                  ... on

Time for X-Grid setup             =    1.936 sec

 re-compute Schwartz prescreening matrix in partically contracted basis (1) ...done (   0.117 sec)
--------------
SCF ITERATIONS
--------------
ITER       Energy         Delta-E        Max-DP      RMS-DP      [F,P]     Damp
               ***  Starting incremental Fock matrix formation  ***
  0   -739.6891273520   0.000000000000 0.00004011  0.00000054  0.0000930 0.7000
                 **** Energy Check signals convergence ****

               *****************************************************
               *                     SUCCESS                       *
               *           SCF CONVERGED AFTER   1 CYCLES          *
               *****************************************************

Old exchange energy                            =    -21.608778881 Eh
New exchange energy                            =    -21.608866431 Eh
Exchange energy change after final integration =     -0.000087550 Eh
Total energy after final integration           =   -739.689215096 Eh
Final COS-X integration done in                =     5.629 sec

----------------
TOTAL SCF ENERGY
----------------

Total Energy       :         -739.68921510 Eh          -20127.96683 eV

Components:
Nuclear Repulsion  :         1249.87495602 Eh           34010.82663 eV
Electronic Energy  :        -1989.56417112 Eh          -54138.79346 eV
One Electron Energy:        -3477.47401881 Eh          -94626.87879 eV
Two Electron Energy:         1487.90984770 Eh           40488.08533 eV
Max COSX asymmetry :            0.00000044 Eh               0.00001 eV

Virial components:
Potential Energy   :        -1473.96980345 Eh          -40108.75744 eV
Kinetic Energy     :          734.28058836 Eh           19980.79061 eV
Virial Ratio       :            2.00736589


DFT components:
N(Alpha)           :       71.000178899841 electrons
N(Beta)            :       70.000176394193 electrons
N(Total)           :      141.000355294034 electrons
E(X)               :      -85.623680508713 Eh       
E(C)               :       -5.414290598047 Eh       
E(XC)              :      -91.037971106760 Eh       
DFET-embed. en.    :        0.000000000000 Eh       

---------------
SCF CONVERGENCE
---------------

  Last Energy change         ...   -1.9381e-07  Tolerance :   1.0000e-06
  Last MAX-Density change    ...    1.1828e-05  Tolerance :   1.0000e-05
  Last RMS-Density change    ...    1.6823e-07  Tolerance :   1.0000e-06
  Last DIIS Error            ...    7.3192e-05  Tolerance :   1.0000e-06

             **** THE GBW FILE WAS UPDATED (cc-pVDZ.gbw) ****
             **** DENSITY cc-pVDZ.scfp WAS UPDATED ****
             **** ENERGY FILE WAS UPDATED (cc-pVDZ.en.tmp) ****
----------------------
UHF SPIN CONTAMINATION
----------------------

Warning: in a DFT calculation there is little theoretical justification to 
         calculate <S**2> as in Hartree-Fock theory. We will do it anyways
         but you should keep in mind that the values have only limited relevance

Expectation value of <S**2>     :     0.753906
Ideal value S*(S+1) for S=0.5   :     0.750000
Deviation                       :     0.003906

             **** THE GBW FILE WAS UPDATED (cc-pVDZ.gbw) ****
             **** DENSITY cc-pVDZ.scfp WAS UPDATED ****
----------------
ORBITAL ENERGIES
----------------
                 SPIN UP ORBITALS
  NO   OCC          E(Eh)            E(eV) 
   0   1.0000     -10.205494      -277.7056 
   1   1.0000     -10.195992      -277.4470 
   2   1.0000     -10.192302      -277.3466 
   3   1.0000     -10.187874      -277.2261 
   4   1.0000     -10.186894      -277.1995 
   5   1.0000     -10.186551      -277.1902 
   6   1.0000     -10.185691      -277.1667 
   7   1.0000     -10.185330      -277.1569 
   8   1.0000     -10.184368      -277.1307 
   9   1.0000     -10.183784      -277.1149 
  10   1.0000     -10.183636      -277.1108 
  11   1.0000     -10.182267      -277.0736 
  12   1.0000     -10.181658      -277.0570 
  13   1.0000     -10.181586      -277.0550 
  14   1.0000     -10.181187      -277.0442 
  15   1.0000     -10.180827      -277.0344 
  16   1.0000     -10.179173      -276.9894 
  17   1.0000     -10.178885      -276.9815 
  18   1.0000     -10.175896      -276.9002 
  19   1.0000      -0.863840       -23.5063 
  20   1.0000      -0.813308       -22.1312 
  21   1.0000      -0.804049       -21.8793 
  22   1.0000      -0.784795       -21.3554 
  23   1.0000      -0.776696       -21.1350 
  24   1.0000      -0.758526       -20.6405 
  25   1.0000      -0.732351       -19.9283 
  26   1.0000      -0.721460       -19.6319 
  27   1.0000      -0.704439       -19.1688 
  28   1.0000      -0.668039       -18.1783 
  29   1.0000      -0.637537       -17.3483 
  30   1.0000      -0.617995       -16.8165 
  31   1.0000      -0.608591       -16.5606 
  32   1.0000      -0.583028       -15.8650 
  33   1.0000      -0.576668       -15.6919 
  34   1.0000      -0.570720       -15.5301 
  35   1.0000      -0.559228       -15.2174 
  36   1.0000      -0.525430       -14.2977 
  37   1.0000      -0.493454       -13.4276 
  38   1.0000      -0.479967       -13.0606 
  39   1.0000      -0.470448       -12.8015 
  40   1.0000      -0.467792       -12.7293 
  41   1.0000      -0.459699       -12.5090 
  42   1.0000      -0.458543       -12.4776 
  43   1.0000      -0.426408       -11.6031 
  44   1.0000      -0.425792       -11.5864 
  45   1.0000      -0.422138       -11.4870 
  46   1.0000      -0.418741       -11.3945 
  47   1.0000      -0.418436       -11.3862 
  48   1.0000      -0.410932       -11.1820 
  49   1.0000      -0.399170       -10.8620 
  50   1.0000      -0.388608       -10.5746 
  51   1.0000      -0.380511       -10.3542 
  52   1.0000      -0.370862       -10.0917 
  53   1.0000      -0.365903        -9.9567 
  54   1.0000      -0.357939        -9.7400 
  55   1.0000      -0.353516        -9.6197 
  56   1.0000      -0.352420        -9.5898 
  57   1.0000      -0.337622        -9.1872 
  58   1.0000      -0.337096        -9.1728 
  59   1.0000      -0.328943        -8.9510 
  60   1.0000      -0.324590        -8.8326 
  61   1.0000      -0.324243        -8.8231 
  62   1.0000      -0.322574        -8.7777 
  63   1.0000      -0.322196        -8.7674 
  64   1.0000      -0.318718        -8.6728 
  65   1.0000      -0.314494        -8.5578 
  66   1.0000      -0.298582        -8.1248 
  67   1.0000      -0.270437        -7.3590 
  68   1.0000      -0.240977        -6.5573 
  69   1.0000      -0.222622        -6.0578 
  70   1.0000      -0.198496        -5.4013 
  71   0.0000      -0.030194        -0.8216 
  72   0.0000       0.002371         0.0645 
  73   0.0000       0.049390         1.3440 
  74   0.0000       0.061377         1.6701 
  75   0.0000       0.062363         1.6970 
  76   0.0000       0.074960         2.0398 
  77   0.0000       0.075263         2.0480 
  78   0.0000       0.076138         2.0718 
  79   0.0000       0.083529         2.2729 
  80   0.0000       0.083680         2.2771 
  81   0.0000       0.086680         2.3587 
  82   0.0000       0.095019         2.5856 
  83   0.0000       0.096232         2.6186 
  84   0.0000       0.097058         2.6411 
  85   0.0000       0.102290         2.7835 
  86   0.0000       0.111727         3.0402 
  87   0.0000       0.114365         3.1120 
  88   0.0000       0.128062         3.4847 
  89   0.0000       0.133855         3.6424 
  90   0.0000       0.143909         3.9160 
  91   0.0000       0.151065         4.1107 
  92   0.0000       0.151378         4.1192 
  93   0.0000       0.158324         4.3082 
  94   0.0000       0.160449         4.3660 
  95   0.0000       0.160799         4.3756 
  96   0.0000       0.167277         4.5518 
  97   0.0000       0.174325         4.7436 
  98   0.0000       0.176490         4.8025 
  99   0.0000       0.182413         4.9637 
 100   0.0000       0.183442         4.9917 
 101   0.0000       0.190941         5.1958 
 102   0.0000       0.199567         5.4305 
 103   0.0000       0.201787         5.4909 
 104   0.0000       0.210990         5.7413 
 105   0.0000       0.213730         5.8159 
 106   0.0000       0.218061         5.9337 
 107   0.0000       0.225267         6.1298 
 108   0.0000       0.232925         6.3382 
 109   0.0000       0.244903         6.6641 
 110   0.0000       0.253871         6.9082 
 111   0.0000       0.272069         7.4034 
 112   0.0000       0.275699         7.5022 
 113   0.0000       0.289579         7.8798 
 114   0.0000       0.299374         8.1464 
 115   0.0000       0.330427         8.9914 
 116   0.0000       0.338643         9.2150 
 117   0.0000       0.354550         9.6478 
 118   0.0000       0.359952         9.7948 
 119   0.0000       0.375170        10.2089 
 120   0.0000       0.398558        10.8453 
 121   0.0000       0.407342        11.0843 
 122   0.0000       0.411941        11.2095 
 123   0.0000       0.413619        11.2552 
 124   0.0000       0.417824        11.3696 
 125   0.0000       0.420392        11.4395 
 126   0.0000       0.425244        11.5715 
 127   0.0000       0.427678        11.6377 
 128   0.0000       0.439959        11.9719 
 129   0.0000       0.442383        12.0379 
 130   0.0000       0.462515        12.5857 
 131   0.0000       0.463038        12.5999 
 132   0.0000       0.478725        13.0268 
 133   0.0000       0.484969        13.1967 
 134   0.0000       0.487850        13.2751 
 135   0.0000       0.493702        13.4343 
 136   0.0000       0.497768        13.5449 
 137   0.0000       0.498220        13.5573 
 138   0.0000       0.504716        13.7340 
 139   0.0000       0.520131        14.1535 
 140   0.0000       0.522670        14.2226 
 141   0.0000       0.523931        14.2569 
 142   0.0000       0.532243        14.4831 
 143   0.0000       0.538108        14.6427 
 144   0.0000       0.540248        14.7009 
 145   0.0000       0.545581        14.8460 
 146   0.0000       0.563310        15.3284 
 147   0.0000       0.568714        15.4755 
 148   0.0000       0.586926        15.9711 
 149   0.0000       0.591153        16.0861 
 150   0.0000       0.605188        16.4680 
 151   0.0000       0.607243        16.5239 
 152   0.0000       0.611138        16.6299 
 153   0.0000       0.618764        16.8374 
 154   0.0000       0.621962        16.9245 
 155   0.0000       0.630331        17.1522 
 156   0.0000       0.630733        17.1631 
 157   0.0000       0.633526        17.2391 
 158   0.0000       0.636552        17.3214 
 159   0.0000       0.641661        17.4605 
 160   0.0000       0.643143        17.5008 
 161   0.0000       0.648438        17.6449 
 162   0.0000       0.650615        17.7041 
 163   0.0000       0.653336        17.7782 
 164   0.0000       0.657350        17.8874 
 165   0.0000       0.660297        17.9676 
 166   0.0000       0.661083        17.9890 
 167   0.0000       0.661143        17.9906 
 168   0.0000       0.664590        18.0844 
 169   0.0000       0.666659        18.1407 
 170   0.0000       0.670541        18.2463 
 171   0.0000       0.676531        18.4094 
 172   0.0000       0.684639        18.6300 
 173   0.0000       0.686975        18.6935 
 174   0.0000       0.688353        18.7310 
 175   0.0000       0.692827        18.8528 
 176   0.0000       0.693825        18.8799 
 177   0.0000       0.699365        19.0307 
 178   0.0000       0.699933        19.0461 
 179   0.0000       0.704051        19.1582 
 180   0.0000       0.705934        19.2094 
 181   0.0000       0.711439        19.3592 
 182   0.0000       0.714336        19.4381 
 183   0.0000       0.722626        19.6637 
 184   0.0000       0.727241        19.7892 
 185   0.0000       0.728239        19.8164 
 186   0.0000       0.737063        20.0565 
 187   0.0000       0.742077        20.1929 
 188   0.0000       0.759123        20.6568 
 189   0.0000       0.764668        20.8077 
 190   0.0000       0.770999        20.9800 
 191   0.0000       0.778667        21.1886 
 192   0.0000       0.803555        21.8658 
 193   0.0000       0.812763        22.1164 
 194   0.0000       0.825923        22.4745 
 195   0.0000       0.838339        22.8124 
 196   0.0000       0.839658        22.8482 
 197   0.0000       0.856118        23.2961 
 198   0.0000       0.862687        23.4749 
 199   0.0000       0.874050        23.7841 
 200   0.0000       0.891444        24.2574 
 201   0.0000       0.904240        24.6056 
 202   0.0000       0.927033        25.2258 
 203   0.0000       0.946279        25.7496 
 204   0.0000       0.977685        26.6042 
 205   0.0000       0.980316        26.6758 
 206   0.0000       0.995409        27.0865 
 207   0.0000       0.996612        27.1192 
 208   0.0000       1.008712        27.4485 
 209   0.0000       1.008825        27.4515 
 210   0.0000       1.029800        28.0223 
 211   0.0000       1.033774        28.1304 
 212   0.0000       1.038836        28.2682 
 213   0.0000       1.048003        28.5176 
 214   0.0000       1.056273        28.7427 
 215   0.0000       1.067559        29.0498 
 216   0.0000       1.071511        29.1573 
 217   0.0000       1.086389        29.5622 
 218   0.0000       1.092779        29.7360 
 219   0.0000       1.118897        30.4467 
 220   0.0000       1.132789        30.8248 
 221   0.0000       1.153069        31.3766 
 222   0.0000       1.176775        32.0217 
 223   0.0000       1.186812        32.2948 
 224   0.0000       1.199039        32.6275 
 225   0.0000       1.204481        32.7756 
 226   0.0000       1.205678        32.8082 
 227   0.0000       1.208986        32.8982 
 228   0.0000       1.215385        33.0723 
 229   0.0000       1.216975        33.1156 
 230   0.0000       1.217932        33.1416 
 231   0.0000       1.224514        33.3207 
 232   0.0000       1.227114        33.3915 
 233   0.0000       1.232265        33.5316 
 234   0.0000       1.242649        33.8142 
 235   0.0000       1.265229        34.4286 
 236   0.0000       1.286923        35.0190 
 237   0.0000       1.310436        35.6588 
 238   0.0000       1.320308        35.9274 
 239   0.0000       1.323819        36.0229 
 240   0.0000       1.333583        36.2886 
 241   0.0000       1.338017        36.4093 
 242   0.0000       1.343600        36.5612 
 243   0.0000       1.350523        36.7496 
 244   0.0000       1.361119        37.0379 
 245   0.0000       1.378542        37.5120 
 246   0.0000       1.412096        38.4251 
 247   0.0000       1.412756        38.4430 
 248   0.0000       1.425020        38.7768 
 249   0.0000       1.426254        38.8103 
 250   0.0000       1.445223        39.3265 
 251   0.0000       1.455545        39.6074 
 252   0.0000       1.462101        39.7858 
 253   0.0000       1.472242        40.0617 
 254   0.0000       1.473487        40.0956 
 255   0.0000       1.474304        40.1179 
 256   0.0000       1.486632        40.4533 
 257   0.0000       1.498731        40.7825 
 258   0.0000       1.508883        41.0588 
 259   0.0000       1.517390        41.2903 
 260   0.0000       1.526042        41.5257 
 261   0.0000       1.549027        42.1512 
 262   0.0000       1.552338        42.2413 
 263   0.0000       1.558850        42.4185 
 264   0.0000       1.585405        43.1411 
 265   0.0000       1.593663        43.3658 
 266   0.0000       1.595644        43.4197 
 267   0.0000       1.597589        43.4726 
 268   0.0000       1.607697        43.7477 
 269   0.0000       1.613326        43.9008 
 270   0.0000       1.628344        44.3095 
 271   0.0000       1.629261        44.3344 
 272   0.0000       1.629679        44.3458 
 273   0.0000       1.631152        44.3859 
 274   0.0000       1.638925        44.5974 
 275   0.0000       1.641205        44.6595 
 276   0.0000       1.646003        44.7900 
 277   0.0000       1.647990        44.8441 
 278   0.0000       1.650962        44.9250 
 279   0.0000       1.658229        45.1227 
 280   0.0000       1.665694        45.3258 
 281   0.0000       1.673897        45.5491 
 282   0.0000       1.681817        45.7646 
 283   0.0000       1.682266        45.7768 
 284   0.0000       1.689927        45.9853 
 285   0.0000       1.691434        46.0263 
 286   0.0000       1.695424        46.1348 
 287   0.0000       1.701229        46.2928 
 288   0.0000       1.705630        46.4125 
 289   0.0000       1.708328        46.4860 
 290   0.0000       1.709033        46.5051 
 291   0.0000       1.711008        46.5589 
 292   0.0000       1.712498        46.5994 
 293   0.0000       1.717891        46.7462 
 294   0.0000       1.722383        46.8684 
 295   0.0000       1.733767        47.1782 
 296   0.0000       1.739799        47.3423 
 297   0.0000       1.750091        47.6224 
 298   0.0000       1.754461        47.7413 
 299   0.0000       1.760692        47.9109 
 300   0.0000       1.766370        48.0654 
 301   0.0000       1.767706        48.1017 
 302   0.0000       1.776339        48.3366 
 303   0.0000       1.781651        48.4812 
 304   0.0000       1.787952        48.6526 
 305   0.0000       1.792629        48.7799 
 306   0.0000       1.794266        48.8245 
 307   0.0000       1.798795        48.9477 
 308   0.0000       1.804325        49.0982 
 309   0.0000       1.809728        49.2452 
 310   0.0000       1.823371        49.6165 
 311   0.0000       1.833405        49.8895 
 312   0.0000       1.836238        49.9666 
 313   0.0000       1.854808        50.4719 
 314   0.0000       1.866333        50.7855 
 315   0.0000       1.871036        50.9135 
 316   0.0000       1.879023        51.1308 
 317   0.0000       1.899230        51.6807 
 318   0.0000       1.902954        51.7820 
 319   0.0000       1.911572        52.0165 
 320   0.0000       1.918792        52.2130 
 321   0.0000       1.925941        52.4075 
 322   0.0000       1.945097        52.9288 
 323   0.0000       1.955684        53.2169 
 324   0.0000       1.963340        53.4252 
 325   0.0000       1.967282        53.5325 
 326   0.0000       1.981057        53.9073 
 327   0.0000       1.985008        54.0148 
 328   0.0000       1.992849        54.2282 
 329   0.0000       2.010661        54.7129 
 330   0.0000       2.027009        55.1577 
 331   0.0000       2.040023        55.5119 
 332   0.0000       2.046414        55.6858 
 333   0.0000       2.055807        55.9414 
 334   0.0000       2.059094        56.0308 
 335   0.0000       2.075178        56.4685 
 336   0.0000       2.090410        56.8830 
 337   0.0000       2.100866        57.1675 
 338   0.0000       2.102051        57.1997 
 339   0.0000       2.114677        57.5433 
 340   0.0000       2.151362        58.5415 
 341   0.0000       2.152610        58.5755 
 342   0.0000       2.161038        58.8048 
 343   0.0000       2.181331        59.3570 
 344   0.0000       2.190060        59.5946 
 345   0.0000       2.206230        60.0346 
 346   0.0000       2.210594        60.1533 
 347   0.0000       2.217309        60.3360 
 348   0.0000       2.227383        60.6102 
 349   0.0000       2.231496        60.7221 
 350   0.0000       2.235437        60.8293 
 351   0.0000       2.243127        61.0386 
 352   0.0000       2.275151        61.9100 
 353   0.0000       2.276946        61.9588 
 354   0.0000       2.288420        62.2711 
 355   0.0000       2.289851        62.3100 
 356   0.0000       2.307742        62.7969 
 357   0.0000       2.309779        62.8523 
 358   0.0000       2.319548        63.1181 
 359   0.0000       2.326786        63.3151 
 360   0.0000       2.336618        63.5826 
 361   0.0000       2.340315        63.6832 
 362   0.0000       2.341904        63.7264 
 363   0.0000       2.347948        63.8909 
 364   0.0000       2.353965        64.0547 
 365   0.0000       2.371180        64.5231 
 366   0.0000       2.378226        64.7148 
 367   0.0000       2.406813        65.4927 
 368   0.0000       2.412540        65.6486 
 369   0.0000       2.417057        65.7715 
 370   0.0000       2.426612        66.0315 
 371   0.0000       2.442723        66.4699 
 372   0.0000       2.449296        66.6487 
 373   0.0000       2.458938        66.9111 
 374   0.0000       2.479568        67.4725 
 375   0.0000       2.480040        67.4853 
 376   0.0000       2.485966        67.6466 
 377   0.0000       2.514240        68.4159 
 378   0.0000       2.528884        68.8144 
 379   0.0000       2.530437        68.8567 
 380   0.0000       2.568021        69.8794 
 381   0.0000       2.572733        70.0076 
 382   0.0000       2.589977        70.4769 
 383   0.0000       2.597495        70.6814 
 384   0.0000       2.611234        71.0553 
 385   0.0000       2.614057        71.1321 
 386   0.0000       2.628092        71.5140 
 387   0.0000       2.665537        72.5329 
 388   0.0000       2.703054        73.5538 
 389   0.0000       2.711887        73.7942 
 390   0.0000       2.720217        74.0209 
 391   0.0000       2.730783        74.3084 
 392   0.0000       2.741729        74.6062 
 393   0.0000       2.761377        75.1409 
 394   0.0000       2.811925        76.5164 
 395   0.0000       2.814441        76.5848 
 396   0.0000       2.827179        76.9314 
 397   0.0000       2.883429        78.4621 
 398   0.0000       2.935626        79.8824 
 399   0.0000       3.196772        86.9886 
 400   0.0000       3.419515        93.0497 

                 SPIN DOWN ORBITALS
  NO   OCC          E(Eh)            E(eV) 
   0   1.0000     -10.205493      -277.7056 
   1   1.0000     -10.195989      -277.4470 
   2   1.0000     -10.192302      -277.3466 
   3   1.0000     -10.187874      -277.2261 
   4   1.0000     -10.186894      -277.1995 
   5   1.0000     -10.186551      -277.1901 
   6   1.0000     -10.185330      -277.1569 
   7   1.0000     -10.184672      -277.1390 
   8   1.0000     -10.184368      -277.1307 
   9   1.0000     -10.183629      -277.1106 
  10   1.0000     -10.182267      -277.0736 
  11   1.0000     -10.181658      -277.0570 
  12   1.0000     -10.181586      -277.0550 
  13   1.0000     -10.180792      -277.0334 
  14   1.0000     -10.179621      -277.0016 
  15   1.0000     -10.179129      -276.9882 
  16   1.0000     -10.178705      -276.9766 
  17   1.0000     -10.175896      -276.9002 
  18   1.0000     -10.171629      -276.7841 
  19   1.0000      -0.863836       -23.5062 
  20   1.0000      -0.812832       -22.1183 
  21   1.0000      -0.802468       -21.8363 
  22   1.0000      -0.782413       -21.2905 
  23   1.0000      -0.775702       -21.1079 
  24   1.0000      -0.755748       -20.5649 
  25   1.0000      -0.728533       -19.8244 
  26   1.0000      -0.721459       -19.6319 
  27   1.0000      -0.700483       -19.0611 
  28   1.0000      -0.662297       -18.0220 
  29   1.0000      -0.634205       -17.2576 
  30   1.0000      -0.617116       -16.7926 
  31   1.0000      -0.603521       -16.4226 
  32   1.0000      -0.580343       -15.7919 
  33   1.0000      -0.575219       -15.6525 
  34   1.0000      -0.563800       -15.3418 
  35   1.0000      -0.557151       -15.1608 
  36   1.0000      -0.525418       -14.2973 
  37   1.0000      -0.493424       -13.4267 
  38   1.0000      -0.479111       -13.0373 
  39   1.0000      -0.470444       -12.8014 
  40   1.0000      -0.467749       -12.7281 
  41   1.0000      -0.459620       -12.5069 
  42   1.0000      -0.456314       -12.4169 
  43   1.0000      -0.425812       -11.5869 
  44   1.0000      -0.423262       -11.5175 
  45   1.0000      -0.421801       -11.4778 
  46   1.0000      -0.418126       -11.3778 
  47   1.0000      -0.416640       -11.3374 
  48   1.0000      -0.409103       -11.1323 
  49   1.0000      -0.395238       -10.7550 
  50   1.0000      -0.386387       -10.5141 
  51   1.0000      -0.378083       -10.2882 
  52   1.0000      -0.368651       -10.0315 
  53   1.0000      -0.365085        -9.9345 
  54   1.0000      -0.356262        -9.6944 
  55   1.0000      -0.352031        -9.5793 
  56   1.0000      -0.351669        -9.5694 
  57   1.0000      -0.336676        -9.1614 
  58   1.0000      -0.335548        -9.1307 
  59   1.0000      -0.328132        -8.9289 
  60   1.0000      -0.324298        -8.8246 
  61   1.0000      -0.323981        -8.8160 
  62   1.0000      -0.322059        -8.7637 
  63   1.0000      -0.321177        -8.7397 
  64   1.0000      -0.318214        -8.6590 
  65   1.0000      -0.311507        -8.4765 
  66   1.0000      -0.298581        -8.1248 
  67   1.0000      -0.270429        -7.3587 
  68   1.0000      -0.240977        -6.5573 
  69   1.0000      -0.222621        -6.0578 
  70   0.0000      -0.044707        -1.2165 
  71   0.0000      -0.030194        -0.8216 
  72   0.0000       0.002372         0.0645 
  73   0.0000       0.049394         1.3441 
  74   0.0000       0.061618         1.6767 
  75   0.0000       0.062928         1.7124 
  76   0.0000       0.075322         2.0496 
  77   0.0000       0.075984         2.0676 
  78   0.0000       0.077000         2.0953 
  79   0.0000       0.083652         2.2763 
  80   0.0000       0.083969         2.2849 
  81   0.0000       0.087277         2.3749 
  82   0.0000       0.095237         2.5915 
  83   0.0000       0.097034         2.6404 
  84   0.0000       0.098718         2.6863 
  85   0.0000       0.104028         2.8307 
  86   0.0000       0.112667         3.0658 
  87   0.0000       0.116393         3.1672 
  88   0.0000       0.128349         3.4926 
  89   0.0000       0.135971         3.7000 
  90   0.0000       0.144538         3.9331 
  91   0.0000       0.151491         4.1223 
  92   0.0000       0.151784         4.1302 
  93   0.0000       0.158436         4.3113 
  94   0.0000       0.160628         4.3709 
  95   0.0000       0.161355         4.3907 
  96   0.0000       0.168401         4.5824 
  97   0.0000       0.174550         4.7497 
  98   0.0000       0.176578         4.8049 
  99   0.0000       0.182978         4.9791 
 100   0.0000       0.183588         4.9957 
 101   0.0000       0.192184         5.2296 
 102   0.0000       0.199590         5.4311 
 103   0.0000       0.203523         5.5382 
 104   0.0000       0.211160         5.7460 
 105   0.0000       0.213977         5.8226 
 106   0.0000       0.218900         5.9566 
 107   0.0000       0.225773         6.1436 
 108   0.0000       0.233557         6.3554 
 109   0.0000       0.246307         6.7024 
 110   0.0000       0.255936         6.9644 
 111   0.0000       0.273791         7.4502 
 112   0.0000       0.278381         7.5751 
 113   0.0000       0.290828         7.9138 
 114   0.0000       0.301890         8.2148 
 115   0.0000       0.331442         9.0190 
 116   0.0000       0.340473         9.2647 
 117   0.0000       0.355390         9.6707 
 118   0.0000       0.360095         9.7987 
 119   0.0000       0.375523        10.2185 
 120   0.0000       0.400227        10.8907 
 121   0.0000       0.408251        11.1091 
 122   0.0000       0.411942        11.2095 
 123   0.0000       0.414873        11.2893 
 124   0.0000       0.417952        11.3731 
 125   0.0000       0.420398        11.4396 
 126   0.0000       0.426336        11.6012 
 127   0.0000       0.427965        11.6455 
 128   0.0000       0.442060        12.0291 
 129   0.0000       0.444117        12.0850 
 130   0.0000       0.462688        12.5904 
 131   0.0000       0.467939        12.7333 
 132   0.0000       0.480857        13.0848 
 133   0.0000       0.487844        13.2749 
 134   0.0000       0.489212        13.3121 
 135   0.0000       0.496594        13.5130 
 136   0.0000       0.498513        13.5652 
 137   0.0000       0.498927        13.5765 
 138   0.0000       0.513248        13.9662 
 139   0.0000       0.523763        14.2523 
 140   0.0000       0.523874        14.2553 
 141   0.0000       0.533396        14.5144 
 142   0.0000       0.538247        14.6464 
 143   0.0000       0.540955        14.7201 
 144   0.0000       0.545590        14.8463 
 145   0.0000       0.555725        15.1220 
 146   0.0000       0.569205        15.4889 
 147   0.0000       0.578292        15.7361 
 148   0.0000       0.587161        15.9775 
 149   0.0000       0.592582        16.1250 
 150   0.0000       0.607378        16.5276 
 151   0.0000       0.607805        16.5392 
 152   0.0000       0.613278        16.6881 
 153   0.0000       0.618822        16.8390 
 154   0.0000       0.623636        16.9700 
 155   0.0000       0.630979        17.1698 
 156   0.0000       0.631683        17.1890 
 157   0.0000       0.634236        17.2584 
 158   0.0000       0.637630        17.3508 
 159   0.0000       0.643019        17.4974 
 160   0.0000       0.643190        17.5021 
 161   0.0000       0.648905        17.6576 
 162   0.0000       0.651562        17.7299 
 163   0.0000       0.654863        17.8197 
 164   0.0000       0.659283        17.9400 
 165   0.0000       0.660599        17.9758 
 166   0.0000       0.661305        17.9950 
 167   0.0000       0.662019        18.0145 
 168   0.0000       0.665551        18.1106 
 169   0.0000       0.669152        18.2085 
 170   0.0000       0.671753        18.2793 
 171   0.0000       0.678478        18.4623 
 172   0.0000       0.684730        18.6325 
 173   0.0000       0.687283        18.7019 
 174   0.0000       0.688918        18.7464 
 175   0.0000       0.693421        18.8689 
 176   0.0000       0.694717        18.9042 
 177   0.0000       0.701718        19.0947 
 178   0.0000       0.702040        19.1035 
 179   0.0000       0.704456        19.1692 
 180   0.0000       0.705983        19.2108 
 181   0.0000       0.714368        19.4390 
 182   0.0000       0.715574        19.4718 
 183   0.0000       0.722748        19.6670 
 184   0.0000       0.727286        19.7905 
 185   0.0000       0.729838        19.8599 
 186   0.0000       0.737363        20.0647 
 187   0.0000       0.744586        20.2612 
 188   0.0000       0.759505        20.6672 
 189   0.0000       0.765867        20.8403 
 190   0.0000       0.771975        21.0065 
 191   0.0000       0.779025        21.1984 
 192   0.0000       0.803558        21.8659 
 193   0.0000       0.812928        22.1209 
 194   0.0000       0.829317        22.5669 
 195   0.0000       0.839389        22.8409 
 196   0.0000       0.841242        22.8914 
 197   0.0000       0.856808        23.3149 
 198   0.0000       0.866477        23.5780 
 199   0.0000       0.874392        23.7934 
 200   0.0000       0.891470        24.2581 
 201   0.0000       0.905388        24.6369 
 202   0.0000       0.927058        25.2265 
 203   0.0000       0.947725        25.7889 
 204   0.0000       0.978105        26.6156 
 205   0.0000       0.995526        27.0896 
 206   0.0000       0.997590        27.1458 
 207   0.0000       1.008719        27.4486 
 208   0.0000       1.009101        27.4590 
 209   0.0000       1.012707        27.5572 
 210   0.0000       1.033272        28.1168 
 211   0.0000       1.037462        28.2308 
 212   0.0000       1.039800        28.2944 
 213   0.0000       1.048005        28.5177 
 214   0.0000       1.056380        28.7456 
 215   0.0000       1.070977        29.1428 
 216   0.0000       1.078068        29.3357 
 217   0.0000       1.086400        29.5624 
 218   0.0000       1.095501        29.8101 
 219   0.0000       1.122218        30.5371 
 220   0.0000       1.134590        30.8738 
 221   0.0000       1.153162        31.3791 
 222   0.0000       1.180183        32.1144 
 223   0.0000       1.189061        32.3560 
 224   0.0000       1.200351        32.6632 
 225   0.0000       1.204562        32.7778 
 226   0.0000       1.205714        32.8092 
 227   0.0000       1.209065        32.9003 
 228   0.0000       1.215448        33.0740 
 229   0.0000       1.217287        33.1241 
 230   0.0000       1.218957        33.1695 
 231   0.0000       1.224528        33.3211 
 232   0.0000       1.227230        33.3946 
 233   0.0000       1.232438        33.5363 
 234   0.0000       1.243097        33.8264 
 235   0.0000       1.266006        34.4498 
 236   0.0000       1.286924        35.0190 
 237   0.0000       1.310704        35.6661 
 238   0.0000       1.320312        35.9275 
 239   0.0000       1.333026        36.2735 
 240   0.0000       1.333584        36.2887 
 241   0.0000       1.338336        36.4180 
 242   0.0000       1.343704        36.5641 
 243   0.0000       1.351605        36.7791 
 244   0.0000       1.361576        37.0504 
 245   0.0000       1.390443        37.8359 
 246   0.0000       1.412098        38.4251 
 247   0.0000       1.413086        38.4520 
 248   0.0000       1.425328        38.7851 
 249   0.0000       1.426254        38.8103 
 250   0.0000       1.445484        39.3336 
 251   0.0000       1.456563        39.6351 
 252   0.0000       1.462116        39.7862 
 253   0.0000       1.472652        40.0729 
 254   0.0000       1.476125        40.1674 
 255   0.0000       1.476467        40.1767 
 256   0.0000       1.486929        40.4614 
 257   0.0000       1.499787        40.8113 
 258   0.0000       1.509194        41.0672 
 259   0.0000       1.517393        41.2904 
 260   0.0000       1.526049        41.5259 
 261   0.0000       1.551061        42.2065 
 262   0.0000       1.557902        42.3927 
 263   0.0000       1.560196        42.4551 
 264   0.0000       1.585689        43.1488 
 265   0.0000       1.594476        43.3879 
 266   0.0000       1.595834        43.4248 
 267   0.0000       1.607945        43.7544 
 268   0.0000       1.613669        43.9102 
 269   0.0000       1.615769        43.9673 
 270   0.0000       1.628518        44.3142 
 271   0.0000       1.629714        44.3468 
 272   0.0000       1.631280        44.3894 
 273   0.0000       1.632039        44.4100 
 274   0.0000       1.639219        44.6054 
 275   0.0000       1.646095        44.7925 
[...]
  Z           0.8637562            0.0857360            0.4965627

Notes:  (1) The A matrix conforms to the "SAI" spin Hamiltonian convention.
        (2) Tensor is right-handed.

 -----------------------------------------------------------
 Nucleus  43H : A:ISTP=    1 I=  0.5 P=533.5514 MHz/au**3
                Q:ISTP=    2 I=  1.0 Q=  0.0029 barn     
 -----------------------------------------------------------
 Solving for nuclear perturbation:
Forming RHS of the CP-SCF equations         ... 
Calc. nucleus orbit integrals (SHARK)       ... done

------------------------------------------------------------------------------
                           ORCA CP-SCF CALCULATION
------------------------------------------------------------------------------

Input orbitals are from        ... cc-pVDZ.gbw
Input Perturbation             ... cc-pVDZ.pin.tmp
Wavefunction output            ... cc-pVDZ.pout.tmp
Perturbation mode              ... Imaginary perturbation
Solver                         ... POPLE
Max. number of iterations      ... 64
Convergence tolerance          ... 1.000e-03
Integral handling              ... Direct
DFT GridXC                     ... 1
COSX GridX                     ... 1
COSX IntAccX                   ... 3.067
COSX Algorithm                 ... Auto
Number of perturbations        ... 3
Number of operators            ... 2
Orbital ranges used for CP-SCF:
 Operator 0:  Orbitals   0... 70  to  71...400
 Operator 1:  Orbitals   0... 69  to  70...400
Variables per perturbation     ... 46600
DFT calculation                         ... on
XC functional terms                     ... off
Hybrid DFT                              ... on
   Exchange mixing (SCF)                ...  0.200
   Exchange mixing (CP-SCF)             ...  0.200
   GGA exch. scaling(SCF)               ...  0.720
   GGA exch. scaling (CP-SCF)           ...  0.720
   GGA corr. scaling (SCF)              ...  0.810
   GGA corr. scaling (CP-SCF)           ...  0.810

CP-SCF GRID
-----------

General Integration Accuracy     IntAcc      ... 3.467
Radial Grid Type                 RadialGrid  ... OptM3 with GC (2021)
Angular Grid (max. ang.)         AngularGrid ... 1 (Lebedev-50)
Angular grid pruning method      GridPruning ... 4 (adaptive)
Weight generation scheme         WeightScheme... Becke
Basis function cutoff            BFCut       ... 1.0000e-10
Integration weight cutoff        WCut        ... 1.0000e-14
Angular grids for H and He will be reduced by one unit
Partially contracted basis set               ... off
Rotationally invariant grid construction     ... off

Total number of grid points                  ...    27867
Total number of batches                      ...      455
Average number of points per batch           ...       61
Average number of grid points per atom       ...      606

CP-SCF GRIDX
------------

General Integration Accuracy     IntAcc      ... 3.067
Radial Grid Type                 RadialGrid  ... OptM3 with GC (2021)
Angular Grid (max. ang.)         AngularGrid ... 1 (Lebedev-50)
Angular grid pruning method      GridPruning ... 4 (adaptive)
Weight generation scheme         WeightScheme... Becke
Basis function cutoff            BFCut       ... 1.0000e-10
Integration weight cutoff        WCut        ... 1.0000e-14
Angular grids for H and He will be reduced by one unit
Partially contracted basis set               ... on
Rotationally invariant grid construction     ... off

Total number of grid points                  ...    13256
Total number of batches                      ...      234
Average number of points per batch           ...       56
Average number of grid points per atom       ...      288

Memory available               ... 896.3 MB
Memory needed per perturbation ...  10.1 MB
Perturbations treated per batch... 3
Number of batches              ... 1
     CP-SCF ITERATION   0:   1.0048e-01 (   1.4 sec   0/  3 done)
     CP-SCF ITERATION   1:   1.5303e-03 (   1.4 sec   2/  3 done)
     CP-SCF ITERATION   2:   8.0792e-05 (   0.9 sec   3/  3 done)
                    *** THE CP-SCF HAS CONVERGED ***

Forming final perturbed densities           ... done
Transforming perturbed density to AO basis  ... done

 Raw HFC matrix (all values in MHz): 
 -----------------------------------
                -0.0437              -0.0595               0.0021
                -0.0596               0.1097              -0.0061
                 0.0021              -0.0061              -0.0654

 A(FC)           0.0002               0.0002               0.0002
 A(SD)          -0.0643              -0.0658               0.1301
 A(ORB+DIA)      0.0000               0.0000               0.0000    A(PC) =   0.0000
 A(ORB)         -0.0000              -0.0000               0.0000    A(PC) =  -0.0000
 A(DIA)          0.0000               0.0000               0.0000    A(PC) =   0.0000
             ----------           ----------           ----------
 A(Tot)         -0.0641              -0.0656               0.1303    A(iso)=    0.0002
 Orientation: 
  X           0.9458701           -0.0185450            0.3240151
  Y           0.3244398            0.0285619           -0.9454750
  Z           0.0082793            0.9994200            0.0330326

Notes:  (1) The A matrix conforms to the "SAI" spin Hamiltonian convention.
        (2) Tensor is right-handed.

 -----------------------------------------------------------
 Nucleus  44H : A:ISTP=    1 I=  0.5 P=533.5514 MHz/au**3
                Q:ISTP=    2 I=  1.0 Q=  0.0029 barn     
 -----------------------------------------------------------
 Solving for nuclear perturbation:
Forming RHS of the CP-SCF equations         ... 
Calc. nucleus orbit integrals (SHARK)       ... done

------------------------------------------------------------------------------
                           ORCA CP-SCF CALCULATION
------------------------------------------------------------------------------

Input orbitals are from        ... cc-pVDZ.gbw
Input Perturbation             ... cc-pVDZ.pin.tmp
Wavefunction output            ... cc-pVDZ.pout.tmp
Perturbation mode              ... Imaginary perturbation
Solver                         ... POPLE
Max. number of iterations      ... 64
Convergence tolerance          ... 1.000e-03
Integral handling              ... Direct
DFT GridXC                     ... 1
COSX GridX                     ... 1
COSX IntAccX                   ... 3.067
COSX Algorithm                 ... Auto
Number of perturbations        ... 3
Number of operators            ... 2
Orbital ranges used for CP-SCF:
 Operator 0:  Orbitals   0... 70  to  71...400
 Operator 1:  Orbitals   0... 69  to  70...400
Variables per perturbation     ... 46600
DFT calculation                         ... on
XC functional terms                     ... off
Hybrid DFT                              ... on
   Exchange mixing (SCF)                ...  0.200
   Exchange mixing (CP-SCF)             ...  0.200
   GGA exch. scaling(SCF)               ...  0.720
   GGA exch. scaling (CP-SCF)           ...  0.720
   GGA corr. scaling (SCF)              ...  0.810
   GGA corr. scaling (CP-SCF)           ...  0.810

CP-SCF GRID
-----------

General Integration Accuracy     IntAcc      ... 3.467
Radial Grid Type                 RadialGrid  ... OptM3 with GC (2021)
Angular Grid (max. ang.)         AngularGrid ... 1 (Lebedev-50)
Angular grid pruning method      GridPruning ... 4 (adaptive)
Weight generation scheme         WeightScheme... Becke
Basis function cutoff            BFCut       ... 1.0000e-10
Integration weight cutoff        WCut        ... 1.0000e-14
Angular grids for H and He will be reduced by one unit
Partially contracted basis set               ... off
Rotationally invariant grid construction     ... off

Total number of grid points                  ...    27867
Total number of batches                      ...      455
Average number of points per batch           ...       61
Average number of grid points per atom       ...      606

CP-SCF GRIDX
------------

General Integration Accuracy     IntAcc      ... 3.067
Radial Grid Type                 RadialGrid  ... OptM3 with GC (2021)
Angular Grid (max. ang.)         AngularGrid ... 1 (Lebedev-50)
Angular grid pruning method      GridPruning ... 4 (adaptive)
Weight generation scheme         WeightScheme... Becke
Basis function cutoff            BFCut       ... 1.0000e-10
Integration weight cutoff        WCut        ... 1.0000e-14
Angular grids for H and He will be reduced by one unit
Partially contracted basis set               ... on
Rotationally invariant grid construction     ... off

Total number of grid points                  ...    13256
Total number of batches                      ...      234
Average number of points per batch           ...       56
Average number of grid points per atom       ...      288

Memory available               ... 895.8 MB
Memory needed per perturbation ...  10.1 MB
Perturbations treated per batch... 3
Number of batches              ... 1
     CP-SCF ITERATION   0:   3.6531e-02 (   1.4 sec   0/  3 done)
     CP-SCF ITERATION   1:   5.7376e-04 (   1.4 sec   3/  3 done)
                    *** THE CP-SCF HAS CONVERGED ***

Forming final perturbed densities           ... done
Transforming perturbed density to AO basis  ... done

 Raw HFC matrix (all values in MHz): 
 -----------------------------------
                -0.0130               0.0081              -0.0002
                 0.0081               0.0277              -0.0008
                -0.0002              -0.0008              -0.0146

 A(FC)           0.0000               0.0000               0.0000
 A(SD)          -0.0146              -0.0146               0.0292
 A(ORB+DIA)      0.0000               0.0000               0.0000    A(PC) =   0.0000
 A(ORB)         -0.0000              -0.0000               0.0000    A(PC) =  -0.0000
 A(DIA)          0.0000               0.0000               0.0000    A(PC) =   0.0000
             ----------           ----------           ----------
 A(Tot)         -0.0146              -0.0146               0.0292    A(iso)=    0.0000
 Orientation: 
  X           0.9817700           -0.0166471           -0.1893425
  Y          -0.1889453            0.0228678           -0.9817213
  Z           0.0206727            0.9995999            0.0193055

Notes:  (1) The A matrix conforms to the "SAI" spin Hamiltonian convention.
        (2) Tensor is right-handed.

 -----------------------------------------------------------
 Nucleus  45H : A:ISTP=    1 I=  0.5 P=533.5514 MHz/au**3
                Q:ISTP=    2 I=  1.0 Q=  0.0029 barn     
 -----------------------------------------------------------
 Solving for nuclear perturbation:
Forming RHS of the CP-SCF equations         ... 
Calc. nucleus orbit integrals (SHARK)       ... done

------------------------------------------------------------------------------
                           ORCA CP-SCF CALCULATION
------------------------------------------------------------------------------

Input orbitals are from        ... cc-pVDZ.gbw
Input Perturbation             ... cc-pVDZ.pin.tmp
Wavefunction output            ... cc-pVDZ.pout.tmp
Perturbation mode              ... Imaginary perturbation
Solver                         ... POPLE
Max. number of iterations      ... 64
Convergence tolerance          ... 1.000e-03
Integral handling              ... Direct
DFT GridXC                     ... 1
COSX GridX                     ... 1
COSX IntAccX                   ... 3.067
COSX Algorithm                 ... Auto
Number of perturbations        ... 3
Number of operators            ... 2
Orbital ranges used for CP-SCF:
 Operator 0:  Orbitals   0... 70  to  71...400
 Operator 1:  Orbitals   0... 69  to  70...400
Variables per perturbation     ... 46600
DFT calculation                         ... on
XC functional terms                     ... off
Hybrid DFT                              ... on
   Exchange mixing (SCF)                ...  0.200
   Exchange mixing (CP-SCF)             ...  0.200
   GGA exch. scaling(SCF)               ...  0.720
   GGA exch. scaling (CP-SCF)           ...  0.720
   GGA corr. scaling (SCF)              ...  0.810
   GGA corr. scaling (CP-SCF)           ...  0.810

CP-SCF GRID
-----------

General Integration Accuracy     IntAcc      ... 3.467
Radial Grid Type                 RadialGrid  ... OptM3 with GC (2021)
Angular Grid (max. ang.)         AngularGrid ... 1 (Lebedev-50)
Angular grid pruning method      GridPruning ... 4 (adaptive)
Weight generation scheme         WeightScheme... Becke
Basis function cutoff            BFCut       ... 1.0000e-10
Integration weight cutoff        WCut        ... 1.0000e-14
Angular grids for H and He will be reduced by one unit
Partially contracted basis set               ... off
Rotationally invariant grid construction     ... off

Total number of grid points                  ...    27867
Total number of batches                      ...      455
Average number of points per batch           ...       61
Average number of grid points per atom       ...      606

CP-SCF GRIDX
------------

General Integration Accuracy     IntAcc      ... 3.067
Radial Grid Type                 RadialGrid  ... OptM3 with GC (2021)
Angular Grid (max. ang.)         AngularGrid ... 1 (Lebedev-50)
Angular grid pruning method      GridPruning ... 4 (adaptive)
Weight generation scheme         WeightScheme... Becke
Basis function cutoff            BFCut       ... 1.0000e-10
Integration weight cutoff        WCut        ... 1.0000e-14
Angular grids for H and He will be reduced by one unit
Partially contracted basis set               ... on
Rotationally invariant grid construction     ... off

Total number of grid points                  ...    13256
Total number of batches                      ...      234
Average number of points per batch           ...       56
Average number of grid points per atom       ...      288

Memory available               ... 895.4 MB
Memory needed per perturbation ...  10.1 MB
Perturbations treated per batch... 3
Number of batches              ... 1
     CP-SCF ITERATION   0:   4.2805e-02 (   1.4 sec   0/  3 done)
     CP-SCF ITERATION   1:   1.6700e-03 (   1.4 sec   2/  3 done)
     CP-SCF ITERATION   2:   7.5154e-05 (   1.0 sec   3/  3 done)
                    *** THE CP-SCF HAS CONVERGED ***

Forming final perturbed densities           ... done
Transforming perturbed density to AO basis  ... done

 Raw HFC matrix (all values in MHz): 
 -----------------------------------
                -0.0327               0.0694              -0.0013
                 0.0694               0.0964              -0.0030
                -0.0013              -0.0030              -0.0644

 A(FC)          -0.0003              -0.0003              -0.0003
 A(SD)          -0.0627              -0.0642               0.1269
 A(ORB+DIA)      0.0000               0.0000               0.0000    A(PC) =   0.0000
 A(ORB)         -0.0000              -0.0000               0.0000    A(PC) =  -0.0000
 A(DIA)          0.0000               0.0000               0.0000    A(PC) =   0.0000
             ----------           ----------           ----------
 A(Tot)         -0.0629              -0.0645               0.1267    A(iso)=   -0.0002
 Orientation: 
  X           0.9167000           -0.0181010           -0.3991659
  Y          -0.3986556            0.0263365           -0.9167225
  Z           0.0271062            0.9994892            0.0169266

Notes:  (1) The A matrix conforms to the "SAI" spin Hamiltonian convention.
        (2) Tensor is right-handed.


--------------------------------------------------------------------------------
----------------------------------------------------------------------------
                           ORCA EULER ANGLE PROGRAM
----------------------------------------------------------------------------

Only g-tensor available        -->  using g-tensor as reference tensor

Reference tensor               ...  g

g-tensor ordering              ...  |g_min> --> |gx>
                                    |g_mid> --> |gy>
                                    |g_max> --> |gz>

A- and EFG-tensor ordering     ...  the axes |Ax>, |Qx>, |Ay>, etc. are assigned
                                    such that the Euler rotation is minimal. You
                                    can find the respective eigenvalues as Ax,
                                    EFGx, Ay, etc. in the tables below.
                                    The relation of |Ax>, |Ay>,  etc. to Amin, Amid, etc.
                                    (as printed in the ORCA EPR/NMR CALCULATION Output)
                                    is obtained in the detailed printout.

Euler rotation around          ...  z - y - z
   First rotation              -->  by alpha around z
   Second rotation             -->  by beta around y'
   Third rotation              -->  by gamma around z''
   Positive / Negative angle   -->  clockwise / counterclockwise rotation

Plot EFG-tensors                    (-)
Plot HFC-tensors                    (-)
Detailed Printout                   (-)

-------------------------------------------------------------------------
          Euler rotation of hyperfine tensor to g-tensor
-------------------------------------------------------------------------

-------------------------------------------------------------------
 Atom  |   Alpha    Beta    Gamma   |   Ax       Ay       Az 
       |          [degrees]         |           [MHz]         
-------------------------------------------------------------------
  7H      -74.4      0.3     40.4       0.10    -0.04    -0.04
  8H      -13.6      0.3     49.1      -0.13     0.28    -0.15
 10H      -39.1      6.2     79.2      -0.04     0.07    -0.04
 11H      140.1      6.2    -99.8      -0.04     0.07    -0.04
 13H     -129.6      6.1     89.9       0.06    -0.03    -0.03
 14H       42.0      4.8    -81.5       0.06    -0.03    -0.03
 16H      147.8      6.0   -105.0      -0.02     0.04    -0.02
 17H      -32.2      6.4     74.9      -0.02     0.04    -0.02
 19H       21.5      3.1    -60.3       0.03    -0.02    -0.02
 20H     -158.3      3.6    119.5       0.03    -0.02    -0.02
 22H      -74.9     34.5     51.5       0.38    -0.19    -0.23
 23H      104.9     33.6   -128.3       0.38    -0.19    -0.23
 25H      -18.1     42.4     52.0      -0.35     0.58    -0.47
 26H      161.8     41.7   -127.8      -0.35     0.58    -0.47
 28H      -63.2     33.9     46.1       1.51    -0.37    -0.60
 29H      116.7     33.8   -133.8       1.52    -0.36    -0.59
 31H      154.4     43.5   -133.5      -1.28     1.85    -2.16
 32H      -25.5     43.5     46.4      -1.28     1.85    -2.16
 34H      138.8     41.1   -137.1       4.15    -5.54    -8.96
 35H      -41.1     40.9     42.8       4.14    -5.55    -8.97
 37H     -139.4     36.8    158.6      24.15    38.03    23.71
 38H       41.0     36.9    -21.6      23.93    37.80    23.48
 40H       96.6     30.9    -78.0     -59.27   -96.35   -18.14
 41H      -83.4     30.7    102.0     -59.27   -96.34   -18.13
 43H      -43.2      0.3     30.3       0.13    -0.06    -0.07
 44H     -148.7      0.2    105.9       0.03    -0.01    -0.01
 45H      -19.6      0.3     54.2      -0.06     0.13    -0.06
-------------------------------------------------------------------


Maximum memory used throughout the entire EPRNMR-calculation: 181.7 MB

Timings for individual modules:

Sum of individual times         ...     3315.241 sec (=  55.254 min)
GTO integral calculation        ...        4.181 sec (=   0.070 min)   0.1 %
Spin-Orbit-Coupling Matrices    ...        7.501 sec (=   0.125 min)   0.2 %
SCF iterations                  ...       23.840 sec (=   0.397 min)   0.7 %
EPR/NMR calculation             ...     3279.718 sec (=  54.662 min)  98.9 %
                             ****ORCA TERMINATED NORMALLY****
TOTAL RUN TIME: 0 days 0 hours 55 minutes 19 seconds 387 msec
