
                                 *****************
                                 * O   R   C   A *
                                 *****************

                                            #,                                       
                                            ###                                      
                                            ####                                     
                                            #####                                    
                                            ######                                   
                                           ########,                                 
                                     ,,################,,,,,                         
                               ,,#################################,,                 
                          ,,##########################################,,             
                       ,#########################################, ''#####,          
                    ,#############################################,,   '####,        
                  ,##################################################,,,,####,       
                ,###########''''           ''''###############################       
              ,#####''   ,,,,##########,,,,          '''####'''          '####       
            ,##' ,,,,###########################,,,                        '##       
           ' ,,###''''                  '''############,,,                           
         ,,##''                                '''############,,,,        ,,,,,,###''
      ,#''                                            '''#######################'''  
     '                                                          ''''####''''         
             ,#######,   #######,   ,#######,      ##                                
            ,#'     '#,  ##    ##  ,#'     '#,    #''#        ######   ,####,        
            ##       ##  ##   ,#'  ##            #'  '#       #        #'  '#        
            ##       ##  #######   ##           ,######,      #####,   #    #        
            '#,     ,#'  ##    ##  '#,     ,#' ,#      #,         ##   #,  ,#        
             '#######'   ##     ##  '#######'  #'      '#     #####' # '####'        



                  #######################################################
                  #                        -***-                        #
                  #          Department of theory and spectroscopy      #
                  #    Directorship and core code : Frank Neese         #
                  #        Max Planck Institute fuer Kohlenforschung    #
                  #                Kaiser Wilhelm Platz 1               #
                  #                 D-45470 Muelheim/Ruhr               #
                  #                      Germany                        #
                  #                                                     #
                  #                  All rights reserved                #
                  #                        -***-                        #
                  #######################################################


                         Program Version 5.0.4 -  RELEASE  -


 With contributions from (in alphabetic order):
   Daniel Aravena         : Magnetic Suceptibility
   Michael Atanasov       : Ab Initio Ligand Field Theory (pilot matlab implementation)
   Alexander A. Auer      : GIAO ZORA, VPT2 properties, NMR spectrum
   Ute Becker             : Parallelization
   Giovanni Bistoni       : ED, misc. LED, open-shell LED, HFLD
   Martin Brehm           : Molecular dynamics
   Dmytro Bykov           : SCF Hessian
   Vijay G. Chilkuri      : MRCI spin determinant printing, contributions to CSF-ICE
   Dipayan Datta          : RHF DLPNO-CCSD density
   Achintya Kumar Dutta   : EOM-CC, STEOM-CC
   Dmitry Ganyushin       : Spin-Orbit,Spin-Spin,Magnetic field MRCI
   Miquel Garcia          : C-PCM and meta-GGA Hessian, CC/C-PCM, Gaussian charge scheme
   Yang Guo               : DLPNO-NEVPT2, F12-NEVPT2, CIM, IAO-localization
   Andreas Hansen         : Spin unrestricted coupled pair/coupled cluster methods
   Benjamin Helmich-Paris : MC-RPA, TRAH-SCF, COSX integrals
   Lee Huntington         : MR-EOM, pCC
   Robert Izsak           : Overlap fitted RIJCOSX, COSX-SCS-MP3, EOM
   Marcus Kettner         : VPT2
   Christian Kollmar      : KDIIS, OOCD, Brueckner-CCSD(T), CCSD density, CASPT2, CASPT2-K
   Simone Kossmann        : Meta GGA functionals, TD-DFT gradient, OOMP2, MP2 Hessian
   Martin Krupicka        : Initial AUTO-CI
   Lucas Lang             : DCDCAS
   Marvin Lechner         : AUTO-CI (C++ implementation), FIC-MRCC
   Dagmar Lenk            : GEPOL surface, SMD
   Dimitrios Liakos       : Extrapolation schemes; Compound Job, initial MDCI parallelization
   Dimitrios Manganas     : Further ROCIS development; embedding schemes
   Dimitrios Pantazis     : SARC Basis sets
   Anastasios Papadopoulos: AUTO-CI, single reference methods and gradients
   Taras Petrenko         : DFT Hessian,TD-DFT gradient, ASA, ECA, R-Raman, ABS, FL, XAS/XES, NRVS
   Peter Pinski           : DLPNO-MP2, DLPNO-MP2 Gradient
   Christoph Reimann      : Effective Core Potentials
   Marius Retegan         : Local ZFS, SOC
   Christoph Riplinger    : Optimizer, TS searches, QM/MM, DLPNO-CCSD(T), (RO)-DLPNO pert. Triples
   Tobias Risthaus        : Range-separated hybrids, TD-DFT gradient, RPA, STAB
   Michael Roemelt        : Original ROCIS implementation
   Masaaki Saitow         : Open-shell DLPNO-CCSD energy and density
   Barbara Sandhoefer     : DKH picture change effects
   Avijit Sen             : IP-ROCIS
   Kantharuban Sivalingam : CASSCF convergence, NEVPT2, FIC-MRCI
   Bernardo de Souza      : ESD, SOC TD-DFT
   Georgi Stoychev        : AutoAux, RI-MP2 NMR, DLPNO-MP2 response
   Willem Van den Heuvel  : Paramagnetic NMR
   Boris Wezisla          : Elementary symmetry handling
   Frank Wennmohs         : Technical directorship


 We gratefully acknowledge several colleagues who have allowed us to
 interface, adapt or use parts of their codes:
   Stefan Grimme, W. Hujo, H. Kruse, P. Pracht,  : VdW corrections, initial TS optimization,
                  C. Bannwarth, S. Ehlert          DFT functionals, gCP, sTDA/sTD-DF
   Ed Valeev, F. Pavosevic, A. Kumar             : LibInt (2-el integral package), F12 methods
   Garnet Chan, S. Sharma, J. Yang, R. Olivares  : DMRG
   Ulf Ekstrom                                   : XCFun DFT Library
   Mihaly Kallay                                 : mrcc  (arbitrary order and MRCC methods)
   Jiri Pittner, Ondrej Demel                    : Mk-CCSD
   Frank Weinhold                                : gennbo (NPA and NBO analysis)
   Christopher J. Cramer and Donald G. Truhlar   : smd solvation model
   Lars Goerigk                                  : TD-DFT with DH, B97 family of functionals
   V. Asgeirsson, H. Jonsson                     : NEB implementation
   FAccTs GmbH                                   : IRC, NEB, NEB-TS, DLPNO-Multilevel, CI-OPT
                                                   MM, QMMM, 2- and 3-layer-ONIOM, Crystal-QMMM,
                                                   LR-CPCM, SF, NACMEs, symmetry and pop. for TD-DFT,
                                                   nearIR, NL-DFT gradient (VV10), updates on ESD,
                                                   ML-optimized integration grids
   S Lehtola, MJT Oliveira, MAL Marques          : LibXC Library
   Liviu Ungur et al                             : ANISO software


 Your calculation uses the libint2 library for the computation of 2-el integrals
 For citations please refer to: http://libint.valeyev.net

 Your ORCA version has been built with support for libXC version: 5.1.0
 For citations please refer to: https://tddft.org/programs/libxc/

 This ORCA versions uses:
   CBLAS   interface :  Fast vector & matrix operations
   LAPACKE interface :  Fast linear algebra routines
   SCALAPACK package :  Parallel linear algebra routines
   Shared memory     :  Shared parallel matrices
   BLAS/LAPACK       :  OpenBLAS 0.3.15  USE64BITINT DYNAMIC_ARCH NO_AFFINITY SkylakeX SINGLE_THREADED
        Core in use  :  SkylakeX
   Copyright (c) 2011-2014, The OpenBLAS Project




***************************************
The coordinates will be read from file: opt_EPRII.xyz
***************************************


================================================================================

----- Orbital basis set information -----
Your calculation utilizes the basis: EPR-II
   V. Barone, in Recent Advances in Density Functional Methods, Part 1 (ed. D. P. Chong), World Scientific, Singapore, 1995, p. 287.

----- AuxJ basis set information -----
Your calculation utilizes the AutoAux generation procedure.
  G. L. Stoychev, A. A. Auer, F. Neese, J. Chem. Theory Comput. 13, 554 (2017)

----- AuxC basis set information -----
Your calculation utilizes the AutoAux generation procedure.
  G. L. Stoychev, A. A. Auer, F. Neese, J. Chem. Theory Comput. 13, 554 (2017)

----- AuxJK basis set information -----
Your calculation utilizes the AutoAux generation procedure.
  G. L. Stoychev, A. A. Auer, F. Neese, J. Chem. Theory Comput. 13, 554 (2017)

================================================================================
                                        WARNINGS
                       Please study these warnings very carefully!
================================================================================

WARNING: Old DensityContainer found on disk!
         Will remove this file - 
         If you want to keep old densities, please start your calculation with a different basename. 


WARNING: your system is open-shell and RHF/RKS was chosen
  ===> : WILL SWITCH to UHF/UKS


INFO   : the flag for use of the SHARK integral package has been found!

================================================================================
                                       INPUT FILE
================================================================================
NAME = EPRII_i.inp
|  1> ! B3LYP EPR-II AUTOAUX
|  2> %pal nprocs 16 end
|  3> *XYZFile 0 2 opt_EPRII.xyz
|  4> %EPRNMR
|  5>         GTENSOR   TRUE
|  6>         NUCLEI    = ALL H {SHIFT, AISO, ADIP, AORB}
|  7>         ORI       GIAO
|  8> END
|  9> 
| 10>                          ****END OF INPUT****
================================================================================

                       ****************************
                       * Single Point Calculation *
                       ****************************

---------------------------------
CARTESIAN COORDINATES (ANGSTROEM)
---------------------------------
  C      4.264294   -0.089356   -0.046740
  C      0.039858   -0.014240   -0.150042
  C      0.699300   -1.258295   -0.094411
  C      2.100316   -1.245146   -0.062230
  C      2.828460   -0.033154   -0.083076
  C      2.158391    1.217772   -0.137715
  C      0.753184    1.191443   -0.170923
  H      2.659673   -2.173254   -0.020289
  H      0.200137    2.124008   -0.213515
  C     -0.123624   -2.541720   -0.068077
  H     -0.789648   -2.541822   -0.942106
  H     -0.785513   -2.508338    0.808682
  C      0.663034   -3.861928   -0.043977
  H      1.320185   -3.918002   -0.922043
  H      1.316461   -3.888780    0.838180
  C     -0.254014   -5.097940   -0.023936
  H     -0.914094   -5.044986    0.852231
  H     -0.909149   -5.077334   -0.905137
  C      0.526248   -6.423843    0.003025
  H      1.166612   -6.485555    0.890124
  H      1.170617   -6.519369   -0.878153
  C      2.962635    2.509642   -0.157359
  H      3.613732    2.523374    0.726975
  H      3.647896    2.476755   -1.014992
  C      2.156084    3.816732   -0.207141
  H      1.517762    3.828317   -1.100663
  H      1.483853    3.872867    0.659453
  C      3.059389    5.063153   -0.221531
  H      3.704749    5.054040    0.667821
  H      3.731212    5.014967   -1.089777
  C      2.269907    6.383535   -0.262611
  H      1.599303    6.431391    0.606858
  H      1.623728    6.392014   -1.151635
  C      3.169729    7.632084   -0.278137
  H      3.836918    7.596307   -1.148878
  H      3.814741    7.633801    0.609880
  C      2.357702    8.958960   -0.316752
  H      1.714438    8.940884   -1.206718
  H      1.693041    8.979014    0.557274
  C      3.216719   10.187601   -0.333045
  H      3.585931   10.621822    0.591388
  H      3.609281   10.580765   -1.266199
  C      5.483466   -0.138630   -0.017030
  H      6.548053   -0.182846    0.010274
  H     -0.150361   -7.284567    0.018002
  H     -1.048241    0.011713   -0.177434

----------------------------
CARTESIAN COORDINATES (A.U.)
----------------------------
  NO LB      ZA    FRAG     MASS         X           Y           Z
   0 C     6.0000    0    12.011    8.058347   -0.168859   -0.088326
   1 C     6.0000    0    12.011    0.075321   -0.026910   -0.283538
   2 C     6.0000    0    12.011    1.321486   -2.377834   -0.178412
   3 C     6.0000    0    12.011    3.969021   -2.352986   -0.117597
   4 C     6.0000    0    12.011    5.345015   -0.062651   -0.156991
   5 C     6.0000    0    12.011    4.078768    2.301255   -0.260244
   6 C     6.0000    0    12.011    1.423311    2.251501   -0.322997
   7 H     1.0000    0     1.008    5.026054   -4.106854   -0.038341
   8 H     1.0000    0     1.008    0.378204    4.013793   -0.403485
   9 C     6.0000    0    12.011   -0.233615   -4.803154   -0.128647
  10 H     1.0000    0     1.008   -1.492218   -4.803347   -1.780322
  11 H     1.0000    0     1.008   -1.484404   -4.740072    1.528188
  12 C     6.0000    0    12.011    1.252952   -7.297986   -0.083104
  13 H     1.0000    0     1.008    2.494789   -7.403951   -1.742409
  14 H     1.0000    0     1.008    2.487750   -7.348730    1.583931
  15 C     6.0000    0    12.011   -0.480017   -9.633711   -0.045233
  16 H     1.0000    0     1.008   -1.727388   -9.533642    1.610484
  17 H     1.0000    0     1.008   -1.718043   -9.594770   -1.710461
  18 C     6.0000    0    12.011    0.994464  -12.139304    0.005716
  19 H     1.0000    0     1.008    2.204577  -12.255924    1.682091
  20 H     1.0000    0     1.008    2.212146  -12.319822   -1.659468
  21 C     6.0000    0    12.011    5.598569    4.742536   -0.297365
  22 H     1.0000    0     1.008    6.828963    4.768486    1.373783
  23 H     1.0000    0     1.008    6.893525    4.680389   -1.918057
  24 C     6.0000    0    12.011    4.074407    7.212577   -0.391440
  25 H     1.0000    0     1.008    2.868155    7.234471   -2.079952
  26 H     1.0000    0     1.008    2.804075    7.318658    1.246186
  27 C     6.0000    0    12.011    5.781407    9.567973   -0.418633
  28 H     1.0000    0     1.008    7.000960    9.550751    1.261998
  29 H     1.0000    0     1.008    7.050970    9.476914   -2.059379
  30 C     6.0000    0    12.011    4.289503   12.063133   -0.496263
  31 H     1.0000    0     1.008    3.022245   12.153567    1.146796
  32 H     1.0000    0     1.008    3.068402   12.079156   -2.176275
  33 C     6.0000    0    12.011    5.989920   14.422548   -0.525604
  34 H     1.0000    0     1.008    7.250725   14.354939   -2.171065
  35 H     1.0000    0     1.008    7.208816   14.425793    1.152507
  36 C     6.0000    0    12.011    4.455411   16.929981   -0.598575
  37 H     1.0000    0     1.008    3.239818   16.895823   -2.280367
  38 H     1.0000    0     1.008    3.199384   16.967877    1.053095
  39 C     6.0000    0    12.011    6.078718   19.251776   -0.629363
  40 H     1.0000    0     1.008    6.776427   20.072335    1.117562
  41 H     1.0000    0     1.008    6.820553   19.994747   -2.392769
  42 C     6.0000    0    12.011   10.362250   -0.261973   -0.032182
  43 H     1.0000    0     1.008   12.374027   -0.345528    0.019416
  44 H     1.0000    0     1.008   -0.284142  -13.765836    0.034020
  45 H     1.0000    0     1.008   -1.980889    0.022134   -0.335303

--------------------------------
INTERNAL COORDINATES (ANGSTROEM)
--------------------------------
 C      0   0   0     0.000000000000     0.00000000     0.00000000
 C      1   0   0     4.226365765456     0.00000000     0.00000000
 C      2   1   0     1.409124595939    61.02536835     0.00000000
 C      3   2   1     1.401446735932   117.41674061   359.96052724
 C      4   3   2     1.414056518152   121.49861107     0.06890016
 C      5   4   3     1.420138096433   120.83595336     0.00000000
 C      2   1   3     1.401049876232    60.44593266   179.96557039
 H      4   3   2     1.084445813321   120.56395906   180.06929901
 H      7   2   1     1.085058280558   118.73087474   179.99737568
 C      3   2   1     1.524819945098   119.42018301   179.79112055
 H     10   3   2     1.098869548713   108.26693491    55.46403961
 H     10   3   2     1.099052955579   108.25404635   301.40282399
 C     10   3   2     1.536997173919   116.55282616   178.47036441
 H     13  10   3     1.098177176915   109.73029717   301.87943732
 H     13  10   3     1.098129603476   109.76412077    58.66088370
 C     13  10   3     1.539189946012   112.64549755   180.22377943
 H     16  13  10     1.098262294054   109.25400024   302.13769940
 H     16  13  10     1.098244588202   109.26255940    58.05081082
 C     16  13  10     1.538686055569   112.95938969   180.11208190
 H     19  16  13     1.095819539211   111.04155281    59.78672442
 H     19  16  13     1.095815014824   111.05196844   300.09809135
 C      6   5   4     1.521881610463   119.92551783   179.91660277
 H     22   6   5     1.098253743490   108.27105091   303.65561041
 H     22   6   5     1.098270985686   108.32383850    57.04324032
 C     22   6   5     1.536713102395   116.42838026   180.41295030
 H     25  22   6     1.098166500282   109.90183046   301.44191829
 H     25  22   6     1.098194870056   109.82756769    58.41338647
 C     25  22   6     1.539394407226   112.39675533   179.91098612
 H     28  25  22     1.098871500381   109.28933665   302.38326948
 H     28  25  22     1.098871861085   109.30709182    58.29603098
 C     28  25  22     1.538953230859   113.19816977   180.35255910
 H     31  28  25     1.099079932001   109.22306595    58.00394796
 H     31  28  25     1.099082631311   109.25761671   302.09985078
 C     31  28  25     1.539088459144   113.35063332   180.04206563
 H     34  31  28     1.097547635440   109.69180506    58.45771205
 H     34  31  28     1.097551380224   109.67555495   301.77171923
 C     34  31  28     1.556110585134   112.76088558   180.11702382
 H     37  34  31     1.098250583648   108.16291921   302.30189622
 H     37  34  31     1.098225157567   108.15813029    57.74500644
 C     37  34  31     1.499244785764   113.58200285   180.02846258
 H     40  37  34     1.086020882012   120.87728888   274.58743291
 H     40  37  34     1.086029182046   120.87202481    85.34112312
 C      1   2   3     1.220529764616   178.70465634     2.04915531
 H     43   1   5     1.065854147935   179.90293768   274.74309254
 H     19  16  13     1.094928945594   111.36275823   179.93596075
 H      2   1   3     1.088753475885   179.65005097   184.94195295

---------------------------
INTERNAL COORDINATES (A.U.)
---------------------------
 C      0   0   0     0.000000000000     0.00000000     0.00000000
 C      1   0   0     7.986673838493     0.00000000     0.00000000
 C      2   1   0     2.662859574898    61.02536835     0.00000000
 C      3   2   1     2.648350522190   117.41674061   359.96052724
 C      4   3   2     2.672179557193   121.49861107     0.06890016
 C      5   4   3     2.683672074607   120.83595336     0.00000000
 C      2   1   3     2.647600566043    60.44593266   179.96557039
 H      4   3   2     2.049305594254   120.56395906   180.06929901
 H      7   2   1     2.050462989598   118.73087474   179.99737568
 C      3   2   1     2.881492099775   119.42018301   179.79112055
 H     10   3   2     2.076562503972   108.26693491    55.46403961
 H     10   3   2     2.076909092722   108.25404635   301.40282399
 C     10   3   2     2.904503727319   116.55282616   178.47036441
 H     13  10   3     2.075254110893   109.73029717   301.87943732
 H     13  10   3     2.075164210122   109.76412077    58.66088370
 C     13  10   3     2.908647466048   112.64549755   180.22377943
 H     16  13  10     2.075414958974   109.25400024   302.13769940
 H     16  13  10     2.075381499762   109.26255940    58.05081082
 C     16  13  10     2.907695251109   112.95938969   180.11208190
 H     19  16  13     2.070798821308   111.04155281    59.78672442
 H     19  16  13     2.070790271456   111.05196844   300.09809135
 C      6   5   4     2.875939452026   119.92551783   179.91660277
 H     22   6   5     2.075398800750   108.27105091   303.65561041
 H     22   6   5     2.075431383778   108.32383850    57.04324032
 C     22   6   5     2.903966909935   116.42838026   180.41295030
 H     25  22   6     2.075233934979   109.90183046   301.44191829
 H     25  22   6     2.075287546082   109.82756769    58.41338647
 C     25  22   6     2.909033841748   112.39675533   179.91098612
 H     28  25  22     2.076566192091   109.28933665   302.38326948
 H     28  25  22     2.076566873723   109.30709182    58.29603098
 C     28  25  22     2.908200139238   113.19816977   180.35255910
 H     31  28  25     2.076960070771   109.22306595    58.00394796
 H     31  28  25     2.076965171728   109.25761671   302.09985078
 C     31  28  25     2.908455683662   113.35063332   180.04206563
 H     34  31  28     2.074064449914   109.69180506    58.45771205
 H     34  31  28     2.074071526530   109.67555495   301.77171923
 C     34  31  28     2.940622839999   112.76088558   180.11702382
 H     37  34  31     2.075392829513   108.16291921   302.30189622
 H     37  34  31     2.075344781184   108.15813029    57.74500644
 C     37  34  31     2.833162052803   113.58200285   180.02846258
 H     40  37  34     2.052282042723   120.87728888   274.58743291
 H     40  37  34     2.052297727513   120.87202481    85.34112312
 C      1   2   3     2.306466993423   178.70465634     2.04915531
 H     43   1   5     2.014172438301   179.90293768   274.74309254
 H     19  16  13     2.069115843276   111.36275823   179.93596075
 H      2   1   3     2.057445896777   179.65005097   184.94195295

---------------------
BASIS SET INFORMATION
---------------------
There are 2 groups of distinct atoms

 Group   1 Type C   : 10s5p1d contracted to 6s2p1d pattern {511111/41/1}
 Group   2 Type H   : 6s1p contracted to 4s1p pattern {3111/1}

Atom   0C    basis set group =>   1
Atom   1C    basis set group =>   1
Atom   2C    basis set group =>   1
Atom   3C    basis set group =>   1
Atom   4C    basis set group =>   1
Atom   5C    basis set group =>   1
Atom   6C    basis set group =>   1
Atom   7H    basis set group =>   2
Atom   8H    basis set group =>   2
Atom   9C    basis set group =>   1
Atom  10H    basis set group =>   2
Atom  11H    basis set group =>   2
Atom  12C    basis set group =>   1
Atom  13H    basis set group =>   2
Atom  14H    basis set group =>   2
Atom  15C    basis set group =>   1
Atom  16H    basis set group =>   2
Atom  17H    basis set group =>   2
Atom  18C    basis set group =>   1
Atom  19H    basis set group =>   2
Atom  20H    basis set group =>   2
Atom  21C    basis set group =>   1
Atom  22H    basis set group =>   2
Atom  23H    basis set group =>   2
Atom  24C    basis set group =>   1
Atom  25H    basis set group =>   2
Atom  26H    basis set group =>   2
Atom  27C    basis set group =>   1
Atom  28H    basis set group =>   2
Atom  29H    basis set group =>   2
Atom  30C    basis set group =>   1
Atom  31H    basis set group =>   2
Atom  32H    basis set group =>   2
Atom  33C    basis set group =>   1
Atom  34H    basis set group =>   2
Atom  35H    basis set group =>   2
Atom  36C    basis set group =>   1
Atom  37H    basis set group =>   2
Atom  38H    basis set group =>   2
Atom  39C    basis set group =>   1
Atom  40H    basis set group =>   2
Atom  41H    basis set group =>   2
Atom  42C    basis set group =>   1
Atom  43H    basis set group =>   2
Atom  44H    basis set group =>   2
Atom  45H    basis set group =>   2
---------------------------------
AUXILIARY/J BASIS SET INFORMATION
---------------------------------
There are 2 groups of distinct atoms

 Group   1 Type C   : 17s13p12d2f contracted to 17s13p12d2f pattern {11111111111111111/1111111111111/111111111111/11}
 Group   2 Type H   : 15s6p1d contracted to 15s6p1d pattern {111111111111111/111111/1}

Atom   0C    basis set group =>   1
Atom   1C    basis set group =>   1
Atom   2C    basis set group =>   1
Atom   3C    basis set group =>   1
Atom   4C    basis set group =>   1
Atom   5C    basis set group =>   1
Atom   6C    basis set group =>   1
Atom   7H    basis set group =>   2
Atom   8H    basis set group =>   2
Atom   9C    basis set group =>   1
Atom  10H    basis set group =>   2
Atom  11H    basis set group =>   2
Atom  12C    basis set group =>   1
Atom  13H    basis set group =>   2
Atom  14H    basis set group =>   2
Atom  15C    basis set group =>   1
Atom  16H    basis set group =>   2
Atom  17H    basis set group =>   2
Atom  18C    basis set group =>   1
Atom  19H    basis set group =>   2
Atom  20H    basis set group =>   2
Atom  21C    basis set group =>   1
Atom  22H    basis set group =>   2
Atom  23H    basis set group =>   2
Atom  24C    basis set group =>   1
Atom  25H    basis set group =>   2
Atom  26H    basis set group =>   2
Atom  27C    basis set group =>   1
Atom  28H    basis set group =>   2
Atom  29H    basis set group =>   2
Atom  30C    basis set group =>   1
Atom  31H    basis set group =>   2
Atom  32H    basis set group =>   2
Atom  33C    basis set group =>   1
Atom  34H    basis set group =>   2
Atom  35H    basis set group =>   2
Atom  36C    basis set group =>   1
Atom  37H    basis set group =>   2
Atom  38H    basis set group =>   2
Atom  39C    basis set group =>   1
Atom  40H    basis set group =>   2
Atom  41H    basis set group =>   2
Atom  42C    basis set group =>   1
Atom  43H    basis set group =>   2
Atom  44H    basis set group =>   2
Atom  45H    basis set group =>   2
---------------------------------
AUXILIARY/C BASIS SET INFORMATION
---------------------------------
There are 2 groups of distinct atoms

 Group   1 Type C   : 17s13p12d2f contracted to 17s13p12d2f pattern {11111111111111111/1111111111111/111111111111/11}
 Group   2 Type H   : 15s6p1d contracted to 15s6p1d pattern {111111111111111/111111/1}

Atom   0C    basis set group =>   1
Atom   1C    basis set group =>   1
Atom   2C    basis set group =>   1
Atom   3C    basis set group =>   1
Atom   4C    basis set group =>   1
Atom   5C    basis set group =>   1
Atom   6C    basis set group =>   1
Atom   7H    basis set group =>   2
Atom   8H    basis set group =>   2
Atom   9C    basis set group =>   1
Atom  10H    basis set group =>   2
Atom  11H    basis set group =>   2
Atom  12C    basis set group =>   1
Atom  13H    basis set group =>   2
Atom  14H    basis set group =>   2
Atom  15C    basis set group =>   1
Atom  16H    basis set group =>   2
Atom  17H    basis set group =>   2
Atom  18C    basis set group =>   1
Atom  19H    basis set group =>   2
Atom  20H    basis set group =>   2
Atom  21C    basis set group =>   1
Atom  22H    basis set group =>   2
Atom  23H    basis set group =>   2
Atom  24C    basis set group =>   1
Atom  25H    basis set group =>   2
Atom  26H    basis set group =>   2
Atom  27C    basis set group =>   1
Atom  28H    basis set group =>   2
Atom  29H    basis set group =>   2
Atom  30C    basis set group =>   1
Atom  31H    basis set group =>   2
Atom  32H    basis set group =>   2
Atom  33C    basis set group =>   1
Atom  34H    basis set group =>   2
Atom  35H    basis set group =>   2
Atom  36C    basis set group =>   1
Atom  37H    basis set group =>   2
Atom  38H    basis set group =>   2
Atom  39C    basis set group =>   1
Atom  40H    basis set group =>   2
Atom  41H    basis set group =>   2
Atom  42C    basis set group =>   1
Atom  43H    basis set group =>   2
Atom  44H    basis set group =>   2
Atom  45H    basis set group =>   2
----------------------------------
AUXILIARY/JK BASIS SET INFORMATION
----------------------------------
There are 2 groups of distinct atoms

 Group   1 Type C   : 17s13p12d2f contracted to 17s13p12d2f pattern {11111111111111111/1111111111111/111111111111/11}
 Group   2 Type H   : 15s6p1d contracted to 15s6p1d pattern {111111111111111/111111/1}

Atom   0C    basis set group =>   1
Atom   1C    basis set group =>   1
Atom   2C    basis set group =>   1
Atom   3C    basis set group =>   1
Atom   4C    basis set group =>   1
Atom   5C    basis set group =>   1
Atom   6C    basis set group =>   1
Atom   7H    basis set group =>   2
Atom   8H    basis set group =>   2
Atom   9C    basis set group =>   1
Atom  10H    basis set group =>   2
Atom  11H    basis set group =>   2
Atom  12C    basis set group =>   1
Atom  13H    basis set group =>   2
Atom  14H    basis set group =>   2
Atom  15C    basis set group =>   1
Atom  16H    basis set group =>   2
Atom  17H    basis set group =>   2
Atom  18C    basis set group =>   1
Atom  19H    basis set group =>   2
Atom  20H    basis set group =>   2
Atom  21C    basis set group =>   1
Atom  22H    basis set group =>   2
Atom  23H    basis set group =>   2
Atom  24C    basis set group =>   1
Atom  25H    basis set group =>   2
Atom  26H    basis set group =>   2
Atom  27C    basis set group =>   1
Atom  28H    basis set group =>   2
Atom  29H    basis set group =>   2
Atom  30C    basis set group =>   1
Atom  31H    basis set group =>   2
Atom  32H    basis set group =>   2
Atom  33C    basis set group =>   1
Atom  34H    basis set group =>   2
Atom  35H    basis set group =>   2
Atom  36C    basis set group =>   1
Atom  37H    basis set group =>   2
Atom  38H    basis set group =>   2
Atom  39C    basis set group =>   1
Atom  40H    basis set group =>   2
Atom  41H    basis set group =>   2
Atom  42C    basis set group =>   1
Atom  43H    basis set group =>   2
Atom  44H    basis set group =>   2
Atom  45H    basis set group =>   2

Checking for AutoStart:
The File: EPRII_i.gbw exists
Trying to determine its content:
     ... Fine, the file contains calculation information
     ... Fine, the calculation information was read
     ... Fine, the file contains a basis set
     ... Fine, the basis set was read
     ... Fine, the file contains a geometry
     ... Fine, the geometry was read
     ... Fine, the file contains a set of orbitals
     ... Fine, the orbitals can be read
     => possible old guess file was deleted
     => GBW file was renamed to GES file
     => GES file is set as startup file
     => Guess is set to MORead
     ... now leaving AutoStart



           ************************************************************
           *        Program running with 16 parallel MPI-processes    *
           *              working on a common directory               *
           ************************************************************
------------------------------------------------------------------------------
                           ORCA GTO INTEGRAL CALCULATION
                           -- RI-GTO INTEGRALS CHOSEN --
------------------------------------------------------------------------------
------------------------------------------------------------------------------
                   ___                                                        
                  /   \      - P O W E R E D   B Y -                         
                 /     \                                                     
                 |  |  |   _    _      __       _____    __    __             
                 |  |  |  | |  | |    /  \     |  _  \  |  |  /  |          
                  \  \/   | |  | |   /    \    | | | |  |  | /  /          
                 / \  \   | |__| |  /  /\  \   | |_| |  |  |/  /          
                |  |  |   |  __  | /  /__\  \  |    /   |      \           
                |  |  |   | |  | | |   __   |  |    \   |  |\   \          
                \     /   | |  | | |  |  |  |  | |\  \  |  | \   \       
                 \___/    |_|  |_| |__|  |__|  |_| \__\ |__|  \__/        
                                                                              
                      - O R C A' S   B I G   F R I E N D -                    
                                      &                                       
                       - I N T E G R A L  F E E D E R -                       
                                                                              
 v1 FN, 2020, v2 2021                                                         
------------------------------------------------------------------------------


Reading SHARK input file EPRII_i.SHARKINP.tmp ... ok
----------------------
SHARK INTEGRAL PACKAGE
----------------------

Number of atoms                             ...     46
Number of basis functions                   ...    512
Number of shells                            ...    306
Maximum angular momentum                    ...      2
Integral batch strategy                     ... SHARK/LIBINT Hybrid
RI-J (if used) integral strategy            ... SPLIT-RIJ (Revised 2003 algorithm where possible)
Printlevel                                  ...      1
Contraction scheme used                     ... SEGMENTED contraction
Coulomb Range Separation                    ... NOT USED
Exchange Range Separation                   ... NOT USED
Finite Nucleus Model                        ... NOT USED
Auxiliary Coulomb fitting basis             ... AVAILABLE
   # of basis functions in Aux-J            ...   3496
   # of shells in Aux-J                     ...   1430
   Maximum angular momentum in Aux-J        ...      3
Auxiliary J/K fitting basis                 ... AVAILABLE
   # of basis functions in Aux-JK           ...   3496
   # of shells in Aux-JK                    ...   1430
   Maximum angular momentum in Aux-JK       ...      3
Auxiliary Correlation fitting basis         ... AVAILABLE
   # of basis functions in Aux-C            ...   3496
   # of shells in Aux-C                     ...   1430
   Maximum angular momentum in Aux-C        ...      3
Auxiliary 'external' fitting basis          ... NOT available
Integral threshold                          ...     1.000000e-10
Primitive cut-off                           ...     1.000000e-11
Primitive pair pre-selection threshold      ...     1.000000e-11

Calculating pre-screening integrals         ... done (  0.0 sec) Dimension = 306
Organizing shell pair data                  ... done (  0.1 sec)
Shell pair information
Total number of shell pairs                 ...     46971
Shell pairs after pre-screening             ...     23479
Total number of primitive shell pairs       ...    122156
Primitive shell pairs kept                  ...     43921
          la=0 lb=0:  11075 shell pairs
          la=1 lb=0:   8099 shell pairs
          la=1 lb=1:   1386 shell pairs
          la=2 lb=0:   2063 shell pairs
          la=2 lb=1:    744 shell pairs
          la=2 lb=2:    112 shell pairs

Calculating one electron integrals          ... done (  0.0 sec)
Calculating RI/J V-Matrix + Cholesky decomp.... done (  0.7 sec)
Calculating RI/JK V-Matrix + Cholesky decomp... done (  0.7 sec)
Calculating RI/C V-Matrix + Cholesky decomp.... done (  0.7 sec)
Calculating Nuclear repulsion               ... done (  0.0 sec) ENN=   1247.890156515890 Eh

SHARK setup successfully completed in   2.7 seconds

Maximum memory used throughout the entire GTOINT-calculation: 46.7 MB


           ************************************************************
           *        Program running with 16 parallel MPI-processes    *
           *              working on a common directory               *
           ************************************************************
-------------------------------------------------------------------------------
                                 ORCA SCF
-------------------------------------------------------------------------------

------------
SCF SETTINGS
------------
Hamiltonian:
 Density Functional     Method          .... DFT(GTOs)
 Exchange Functional    Exchange        .... B88
   X-Alpha parameter    XAlpha          ....  0.666667
   Becke's b parameter  XBeta           ....  0.004200
 Correlation Functional Correlation     .... LYP
 LDA part of GGA corr.  LDAOpt          .... VWN-5
 Gradients option       PostSCFGGA      .... off
 Hybrid DFT is turned on
   Fraction HF Exchange ScalHFX         ....  0.200000
   Scaling of DF-GGA-X  ScalDFX         ....  0.720000
   Scaling of DF-GGA-C  ScalDFC         ....  0.810000
   Scaling of DF-LDA-C  ScalLDAC        ....  1.000000
   Perturbative correction              ....  0.000000
   Density functional embedding theory  .... OFF
   NL short-range parameter             ....  4.800000
 RI-approximation to the Coulomb term is turned on
   Number of AuxJ basis functions       .... 3496
   RIJ-COSX (HFX calculated with COS-X)).... on


General Settings:
 Integral files         IntName         .... EPRII_i
 Hartree-Fock type      HFTyp           .... UHF
 Total Charge           Charge          ....    0
 Multiplicity           Mult            ....    2
 Number of Electrons    NEL             ....  141
 Basis Dimension        Dim             ....  512
 Nuclear Repulsion      ENuc            ....   1247.8901565159 Eh

Convergence Acceleration:
 DIIS                   CNVDIIS         .... on
   Start iteration      DIISMaxIt       ....    12
   Startup error        DIISStart       ....  0.200000
   # of expansion vecs  DIISMaxEq       ....     5
   Bias factor          DIISBfac        ....   1.050
   Max. coefficient     DIISMaxC        ....  10.000
 Trust-Rad. Augm. Hess. CNVTRAH         .... auto
   Auto Start mean grad. ratio tolernc. ....  1.125000
   Auto Start start iteration           ....     1
   Auto Start num. interpolation iter.  ....    10
   Max. Number of Micro iterations      ....    16
   Max. Number of Macro iterations      .... Maxiter - #DIIS iter
   Number of Davidson start vectors     ....     2
   Converg. threshold I  (grad. norm)   ....   5.000e-05
   Converg. threshold II (energy diff.) ....   1.000e-06
   Grad. Scal. Fac. for Micro threshold ....   0.100
   Minimum threshold for Micro iter.    ....   0.010
   NR start threshold (gradient norm)   ....   0.001
   Initial trust radius                 ....   0.400
   Minimum AH scaling param. (alpha)    ....   1.000
   Maximum AH scaling param. (alpha)    .... 1000.000
   Orbital update algorithm             .... Taylor
   White noise on init. David. guess    .... on
   Maximum white noise                  ....   0.010
   Quad. conv. algorithm                .... NR
 SOSCF                  CNVSOSCF        .... off
 Level Shifting         CNVShift        .... on
   Level shift para.    LevelShift      ....    0.2500
   Turn off err/grad.   ShiftErr        ....    0.0010
 Zerner damping         CNVZerner       .... off
 Static damping         CNVDamp         .... on
   Fraction old density DampFac         ....    0.7000
   Max. Damping (<1)    DampMax         ....    0.9800
   Min. Damping (>=0)   DampMin         ....    0.0000
   Turn off err/grad.   DampErr         ....    0.1000
 Fernandez-Rico         CNVRico         .... off

SCF Procedure:
 Maximum # iterations   MaxIter         ....   125
 SCF integral mode      SCFMode         .... Direct
   Integral package                     .... SHARK and LIBINT hybrid scheme
 Reset frequency        DirectResetFreq ....    20
 Integral Threshold     Thresh          ....  1.000e-10 Eh
 Primitive CutOff       TCut            ....  1.000e-11 Eh

Convergence Tolerance:
 Convergence Check Mode ConvCheckMode   .... Total+1el-Energy
 Convergence forced     ConvForced      .... 0
 Energy Change          TolE            ....  1.000e-06 Eh
 1-El. energy change                    ....  1.000e-03 Eh
 DIIS Error             TolErr          ....  1.000e-06


Diagonalization of the overlap matrix:
Smallest eigenvalue                        ... 1.544e-04
Time for diagonalization                   ...    0.073 sec
Threshold for overlap eigenvalues          ... 1.000e-08
Number of eigenvalues below threshold      ... 0
Time for construction of square roots      ...    0.052 sec
Total time needed                          ...    0.127 sec

---------------------
INITIAL GUESS: MOREAD
---------------------
Guess MOs are being read from file: EPRII_i.ges
Input geometry compatible with but different from current geometry
Input basis set matches current basis set (good)
MOs were renormalized
MOs were reorthogonalized (Cholesky)
                      ------------------
                      INITIAL GUESS DONE (   0.2 sec)
                      ------------------
-------------------
DFT GRID GENERATION
-------------------

General Integration Accuracy     IntAcc      ... 4.388
Radial Grid Type                 RadialGrid  ... OptM3 with GC (2021)
Angular Grid (max. ang.)         AngularGrid ... 4 (Lebedev-302)
Angular grid pruning method      GridPruning ... 4 (adaptive)
Weight generation scheme         WeightScheme... Becke
Basis function cutoff            BFCut       ... 1.0000e-10
Integration weight cutoff        WCut        ... 1.0000e-14
Angular grids for H and He will be reduced by one unit
Partially contracted basis set               ... off
Rotationally invariant grid construction     ... off

Total number of grid points                  ...   199588
Total number of batches                      ...     3139
Average number of points per batch           ...       63
Average number of grid points per atom       ...     4339
Time for grid setup =    1.047 sec

--------------------
COSX GRID GENERATION
--------------------

GRIDX 1
-------
General Integration Accuracy     IntAcc      ... 3.816
Radial Grid Type                 RadialGrid  ... OptM3 with GC (2021)
Angular Grid (max. ang.)         AngularGrid ... 1 (Lebedev-50)
Angular grid pruning method      GridPruning ... 4 (adaptive)
Weight generation scheme         WeightScheme... Becke
Basis function cutoff            BFCut       ... 1.0000e-10
Integration weight cutoff        WCut        ... 1.0000e-14
Angular grids for H and He will be reduced by one unit
Partially contracted basis set               ... on
Rotationally invariant grid construction     ... off

Total number of grid points                  ...    25472
Total number of batches                      ...      425
Average number of points per batch           ...       59
Average number of grid points per atom       ...      554
UseSFitting                                  ... on

GRIDX 2
-------
General Integration Accuracy     IntAcc      ... 4.020
Radial Grid Type                 RadialGrid  ... OptM3 with GC (2021)
Angular Grid (max. ang.)         AngularGrid ... 2 (Lebedev-110)
Angular grid pruning method      GridPruning ... 4 (adaptive)
Weight generation scheme         WeightScheme... Becke
Basis function cutoff            BFCut       ... 1.0000e-10
Integration weight cutoff        WCut        ... 1.0000e-14
Angular grids for H and He will be reduced by one unit
Partially contracted basis set               ... on
Rotationally invariant grid construction     ... off

Total number of grid points                  ...    53475
Total number of batches                      ...      859
Average number of points per batch           ...       62
Average number of grid points per atom       ...     1162
UseSFitting                                  ... on

GRIDX 3
-------
General Integration Accuracy     IntAcc      ... 4.338
Radial Grid Type                 RadialGrid  ... OptM3 with GC (2021)
Angular Grid (max. ang.)         AngularGrid ... 3 (Lebedev-194)
Angular grid pruning method      GridPruning ... 4 (adaptive)
Weight generation scheme         WeightScheme... Becke
Basis function cutoff            BFCut       ... 1.0000e-10
Integration weight cutoff        WCut        ... 1.0000e-14
Angular grids for H and He will be reduced by one unit
Partially contracted basis set               ... on
Rotationally invariant grid construction     ... off

Total number of grid points                  ...   116762
Total number of batches                      ...     1850
Average number of points per batch           ...       63
Average number of grid points per atom       ...     2538
UseSFitting                                  ... on

Time for X-Grid setup             =    1.905 sec

--------------
SCF ITERATIONS
--------------
ITER       Energy         Delta-E        Max-DP      RMS-DP      [F,P]     Damp
               ***  Starting incremental Fock matrix formation  ***
  0   -739.7697262902   0.000000000000 0.00191977  0.00002681  0.0022616 0.7000
  1   -739.7699069397  -0.000180649520 0.00153887  0.00002297  0.0016304 0.7000
                               ***Turning on DIIS***
  2   -739.7700361879  -0.000129248213 0.00408347  0.00005639  0.0011548 0.0000
  3   -739.7703364839  -0.000300295994 0.00096764  0.00001110  0.0003345 0.0000
               *** Restarting incremental Fock matrix formation ***
                                   *** Resetting DIIS ***
  4   -739.7703294040   0.000007079975 0.00091802  0.00001091  0.0003871 0.0000
  5   -739.7703258408   0.000003563133 0.00047698  0.00000591  0.0004577 0.0000
  6   -739.7703364450  -0.000010604166 0.00020850  0.00000126  0.0001410 0.0000
  7   -739.7703361969   0.000000248127 0.00012503  0.00000076  0.0001906 0.0000
                 **** Energy Check signals convergence ****

               *****************************************************
               *                     SUCCESS                       *
               *           SCF CONVERGED AFTER   8 CYCLES          *
               *****************************************************

Old exchange energy                            =    -21.589409319 Eh
New exchange energy                            =    -21.589328896 Eh
Exchange energy change after final integration =      0.000080423 Eh
Total energy after final integration           =   -739.770256050 Eh
Final COS-X integration done in                =     6.853 sec

----------------
TOTAL SCF ENERGY
----------------

Total Energy       :         -739.77025605 Eh          -20130.17207 eV

Components:
Nuclear Repulsion  :         1247.89015652 Eh           33956.81749 eV
Electronic Energy  :        -1987.66041257 Eh          -54086.98956 eV
One Electron Energy:        -3473.60084920 Eh          -94521.48449 eV
Two Electron Energy:         1485.94043664 Eh           40434.49493 eV
Max COSX asymmetry :            0.00000291 Eh               0.00008 eV

Virial components:
Potential Energy   :        -1473.68556611 Eh          -40101.02295 eV
Kinetic Energy     :          733.91531006 Eh           19970.85089 eV
Virial Ratio       :            2.00797769


DFT components:
N(Alpha)           :       71.000118140852 electrons
N(Beta)            :       70.000129102611 electrons
N(Total)           :      141.000247243463 electrons
E(X)               :      -85.570752477265 Eh       
E(C)               :       -5.417037542319 Eh       
E(XC)              :      -90.987790019584 Eh       
DFET-embed. en.    :        0.000000000000 Eh       

---------------
SCF CONVERGENCE
---------------

  Last Energy change         ...   -2.7576e-07  Tolerance :   1.0000e-06
  Last MAX-Density change    ...    0.0000e+00  Tolerance :   1.0000e-05
  Last RMS-Density change    ...    0.0000e+00  Tolerance :   1.0000e-06
  Last DIIS Error            ...    2.1890e-05  Tolerance :   1.0000e-06

             **** THE GBW FILE WAS UPDATED (EPRII_i.gbw) ****
             **** DENSITY EPRII_i.scfp WAS UPDATED ****
             **** ENERGY FILE WAS UPDATED (EPRII_i.en.tmp) ****
----------------------
UHF SPIN CONTAMINATION
----------------------

Warning: in a DFT calculation there is little theoretical justification to 
         calculate <S**2> as in Hartree-Fock theory. We will do it anyways
         but you should keep in mind that the values have only limited relevance

Expectation value of <S**2>     :     0.753806
Ideal value S*(S+1) for S=0.5   :     0.750000
Deviation                       :     0.003806

             **** THE GBW FILE WAS UPDATED (EPRII_i.gbw) ****
             **** DENSITY EPRII_i.scfp WAS UPDATED ****
----------------
ORBITAL ENERGIES
----------------
                 SPIN UP ORBITALS
  NO   OCC          E(Eh)            E(eV) 
   0   1.0000     -10.216707      -278.0107 
   1   1.0000     -10.206197      -277.7247 
   2   1.0000     -10.202671      -277.6288 
   3   1.0000     -10.202082      -277.6128 
   4   1.0000     -10.194064      -277.3946 
   5   1.0000     -10.193233      -277.3720 
   6   1.0000     -10.192409      -277.3495 
   7   1.0000     -10.192022      -277.3390 
   8   1.0000     -10.187901      -277.2269 
   9   1.0000     -10.187078      -277.2045 
  10   1.0000     -10.184141      -277.1246 
  11   1.0000     -10.183628      -277.1106 
  12   1.0000     -10.181500      -277.0527 
  13   1.0000     -10.180991      -277.0389 
  14   1.0000     -10.180338      -277.0211 
  15   1.0000     -10.180026      -277.0126 
  16   1.0000     -10.178203      -276.9630 
  17   1.0000     -10.177981      -276.9569 
  18   1.0000     -10.171108      -276.7699 
  19   1.0000      -0.861227       -23.4352 
  20   1.0000      -0.809994       -22.0410 
  21   1.0000      -0.800684       -21.7877 
  22   1.0000      -0.781614       -21.2688 
  23   1.0000      -0.775523       -21.1030 
  24   1.0000      -0.756211       -20.5775 
  25   1.0000      -0.729881       -19.8611 
  26   1.0000      -0.721823       -19.6418 
  27   1.0000      -0.702405       -19.1134 
  28   1.0000      -0.666510       -18.1367 
  29   1.0000      -0.637034       -17.3346 
  30   1.0000      -0.617861       -16.8128 
  31   1.0000      -0.608678       -16.5630 
  32   1.0000      -0.583651       -15.8820 
  33   1.0000      -0.577285       -15.7087 
  34   1.0000      -0.571727       -15.5575 
  35   1.0000      -0.560085       -15.2407 
  36   1.0000      -0.527582       -14.3562 
  37   1.0000      -0.493530       -13.4296 
  38   1.0000      -0.480236       -13.0679 
  39   1.0000      -0.470807       -12.8113 
  40   1.0000      -0.466928       -12.7058 
  41   1.0000      -0.459631       -12.5072 
  42   1.0000      -0.459542       -12.5048 
  43   1.0000      -0.427233       -11.6256 
  44   1.0000      -0.425326       -11.5737 
  45   1.0000      -0.420146       -11.4328 
  46   1.0000      -0.419594       -11.4177 
  47   1.0000      -0.416811       -11.3420 
  48   1.0000      -0.410141       -11.1605 
  49   1.0000      -0.395928       -10.7737 
  50   1.0000      -0.389978       -10.6119 
  51   1.0000      -0.379084       -10.3154 
  52   1.0000      -0.369135       -10.0447 
  53   1.0000      -0.366726        -9.9791 
  54   1.0000      -0.356619        -9.7041 
  55   1.0000      -0.354352        -9.6424 
  56   1.0000      -0.352814        -9.6005 
  57   1.0000      -0.339558        -9.2398 
  58   1.0000      -0.336275        -9.1505 
  59   1.0000      -0.327516        -8.9121 
  60   1.0000      -0.325965        -8.8700 
  61   1.0000      -0.324379        -8.8268 
  62   1.0000      -0.323045        -8.7905 
  63   1.0000      -0.319999        -8.7076 
  64   1.0000      -0.319684        -8.6990 
  65   1.0000      -0.311330        -8.4717 
  66   1.0000      -0.298585        -8.1249 
  67   1.0000      -0.271452        -7.3866 
  68   1.0000      -0.240862        -6.5542 
  69   1.0000      -0.223126        -6.0716 
  70   1.0000      -0.198297        -5.3959 
  71   0.0000      -0.033205        -0.9035 
  72   0.0000      -0.000433        -0.0118 
  73   0.0000       0.020271         0.5516 
  74   0.0000       0.023886         0.6500 
  75   0.0000       0.025247         0.6870 
  76   0.0000       0.030311         0.8248 
  77   0.0000       0.032739         0.8909 
  78   0.0000       0.039431         1.0730 
  79   0.0000       0.043720         1.1897 
  80   0.0000       0.044612         1.2140 
  81   0.0000       0.051089         1.3902 
  82   0.0000       0.056845         1.5468 
  83   0.0000       0.063560         1.7296 
  84   0.0000       0.076797         2.0898 
  85   0.0000       0.082199         2.2367 
  86   0.0000       0.085094         2.3155 
  87   0.0000       0.089711         2.4412 
  88   0.0000       0.111381         3.0308 
  89   0.0000       0.116869         3.1802 
  90   0.0000       0.120675         3.2837 
  91   0.0000       0.146649         3.9905 
  92   0.0000       0.148928         4.0525 
  93   0.0000       0.155282         4.2254 
  94   0.0000       0.159890         4.3508 
  95   0.0000       0.165722         4.5095 
  96   0.0000       0.171121         4.6564 
  97   0.0000       0.172874         4.7041 
  98   0.0000       0.179521         4.8850 
  99   0.0000       0.188483         5.1289 
 100   0.0000       0.189271         5.1503 
 101   0.0000       0.192826         5.2471 
 102   0.0000       0.197073         5.3626 
 103   0.0000       0.197524         5.3749 
 104   0.0000       0.199957         5.4411 
 105   0.0000       0.206333         5.6146 
 106   0.0000       0.210308         5.7228 
 107   0.0000       0.216767         5.8985 
 108   0.0000       0.217747         5.9252 
 109   0.0000       0.219796         5.9809 
 110   0.0000       0.224045         6.0966 
 111   0.0000       0.232546         6.3279 
 112   0.0000       0.234342         6.3768 
 113   0.0000       0.239219         6.5095 
 114   0.0000       0.249160         6.7800 
 115   0.0000       0.250839         6.8257 
 116   0.0000       0.252364         6.8672 
 117   0.0000       0.254467         6.9244 
 118   0.0000       0.255293         6.9469 
 119   0.0000       0.257967         7.0196 
 120   0.0000       0.268719         7.3122 
 121   0.0000       0.274536         7.4705 
 122   0.0000       0.278233         7.5711 
 123   0.0000       0.278807         7.5867 
 124   0.0000       0.281135         7.6501 
 125   0.0000       0.284636         7.7453 
 126   0.0000       0.288965         7.8631 
 127   0.0000       0.293475         7.9859 
 128   0.0000       0.296004         8.0547 
 129   0.0000       0.299538         8.1509 
 130   0.0000       0.306977         8.3533 
 131   0.0000       0.308926         8.4063 
 132   0.0000       0.310094         8.4381 
 133   0.0000       0.310858         8.4589 
 134   0.0000       0.318179         8.6581 
 135   0.0000       0.320270         8.7150 
 136   0.0000       0.321301         8.7430 
 137   0.0000       0.323723         8.8090 
 138   0.0000       0.328423         8.9369 
 139   0.0000       0.331274         9.0144 
 140   0.0000       0.340969         9.2782 
 141   0.0000       0.345468         9.4007 
 142   0.0000       0.351066         9.5530 
 143   0.0000       0.355814         9.6822 
 144   0.0000       0.366028         9.9601 
 145   0.0000       0.369941        10.0666 
 146   0.0000       0.371752        10.1159 
 147   0.0000       0.374735        10.1971 
 148   0.0000       0.380597        10.3566 
 149   0.0000       0.383572        10.4375 
 150   0.0000       0.390528        10.6268 
 151   0.0000       0.400424        10.8961 
 152   0.0000       0.402135        10.9426 
 153   0.0000       0.409066        11.1312 
 154   0.0000       0.416281        11.3276 
 155   0.0000       0.421225        11.4621 
 156   0.0000       0.425061        11.5665 
 157   0.0000       0.426181        11.5970 
 158   0.0000       0.430357        11.7106 
 159   0.0000       0.441703        12.0193 
 160   0.0000       0.449912        12.2427 
 161   0.0000       0.455722        12.4008 
 162   0.0000       0.456695        12.4273 
 163   0.0000       0.465249        12.6601 
 164   0.0000       0.475716        12.9449 
 165   0.0000       0.476152        12.9567 
 166   0.0000       0.480006        13.0616 
 167   0.0000       0.484573        13.1859 
 168   0.0000       0.489200        13.3118 
 169   0.0000       0.504386        13.7251 
 170   0.0000       0.508700        13.8424 
 171   0.0000       0.511601        13.9214 
 172   0.0000       0.511868        13.9286 
 173   0.0000       0.515641        14.0313 
 174   0.0000       0.529736        14.4149 
 175   0.0000       0.534522        14.5451 
 176   0.0000       0.544883        14.8270 
 177   0.0000       0.546004        14.8575 
 178   0.0000       0.552592        15.0368 
 179   0.0000       0.560012        15.2387 
 180   0.0000       0.572532        15.5794 
 181   0.0000       0.582882        15.8610 
 182   0.0000       0.587400        15.9840 
 183   0.0000       0.588722        16.0199 
 184   0.0000       0.597605        16.2616 
 185   0.0000       0.605897        16.4873 
 186   0.0000       0.621458        16.9107 
 187   0.0000       0.644318        17.5328 
 188   0.0000       0.654835        17.8190 
 189   0.0000       0.673559        18.3285 
 190   0.0000       0.683797        18.6071 
 191   0.0000       0.692964        18.8565 
 192   0.0000       0.714549        19.4439 
 193   0.0000       0.747774        20.3480 
 194   0.0000       0.759952        20.6793 
 195   0.0000       0.776604        21.1325 
 196   0.0000       0.777256        21.1502 
 197   0.0000       0.782879        21.3032 
 198   0.0000       0.814371        22.1602 
 199   0.0000       0.817006        22.2319 
 200   0.0000       0.839252        22.8372 
 201   0.0000       0.846001        23.0208 
 202   0.0000       0.849422        23.1139 
 203   0.0000       0.850430        23.1414 
 204   0.0000       0.859304        23.3828 
 205   0.0000       0.866042        23.5662 
 206   0.0000       0.871359        23.7109 
 207   0.0000       0.881341        23.9825 
 208   0.0000       0.886239        24.1158 
 209   0.0000       0.891596        24.2616 
 210   0.0000       0.901012        24.5178 
 211   0.0000       0.902217        24.5506 
 212   0.0000       0.911869        24.8132 
 213   0.0000       0.919683        25.0258 
 214   0.0000       0.921305        25.0700 
 215   0.0000       0.926324        25.2066 
 216   0.0000       0.928008        25.2524 
 217   0.0000       0.929385        25.2899 
 218   0.0000       0.936010        25.4701 
 219   0.0000       0.943671        25.6786 
 220   0.0000       0.945907        25.7394 
 221   0.0000       0.951493        25.8914 
 222   0.0000       0.954575        25.9753 
 223   0.0000       0.965407        26.2701 
 224   0.0000       0.970237        26.4015 
 225   0.0000       0.977941        26.6111 
 226   0.0000       0.988808        26.9068 
 227   0.0000       0.991439        26.9784 
 228   0.0000       0.995999        27.1025 
 229   0.0000       0.996548        27.1174 
 230   0.0000       0.999131        27.1877 
 231   0.0000       1.000475        27.2243 
 232   0.0000       1.015494        27.6330 
 233   0.0000       1.019186        27.7335 
 234   0.0000       1.030610        28.0443 
 235   0.0000       1.035414        28.1750 
 236   0.0000       1.035587        28.1798 
 237   0.0000       1.038765        28.2662 
 238   0.0000       1.050653        28.5897 
 239   0.0000       1.055768        28.7289 
 240   0.0000       1.062098        28.9011 
 241   0.0000       1.079535        29.3756 
 242   0.0000       1.087593        29.5949 
 243   0.0000       1.088315        29.6145 
 244   0.0000       1.108420        30.1616 
 245   0.0000       1.110242        30.2112 
 246   0.0000       1.115157        30.3450 
 247   0.0000       1.126054        30.6415 
 248   0.0000       1.135771        30.9059 
 249   0.0000       1.158013        31.5111 
 250   0.0000       1.160812        31.5873 
 251   0.0000       1.177192        32.0330 
 252   0.0000       1.179940        32.1078 
 253   0.0000       1.183415        32.2024 
 254   0.0000       1.192492        32.4494 
 255   0.0000       1.194001        32.4904 
 256   0.0000       1.201449        32.6931 
 257   0.0000       1.205035        32.7907 
 258   0.0000       1.208871        32.8950 
 259   0.0000       1.211389        32.9636 
 260   0.0000       1.220132        33.2015 
 261   0.0000       1.239970        33.7413 
 262   0.0000       1.248097        33.9624 
 263   0.0000       1.268463        34.5166 
 264   0.0000       1.278480        34.7892 
 265   0.0000       1.284533        34.9539 
 266   0.0000       1.291607        35.1464 
 267   0.0000       1.298408        35.3315 
 268   0.0000       1.301302        35.4102 
 269   0.0000       1.321873        35.9700 
 270   0.0000       1.339175        36.4408 
 271   0.0000       1.347613        36.6704 
 272   0.0000       1.364143        37.1202 
 273   0.0000       1.370441        37.2916 
 274   0.0000       1.381870        37.6026 
 275   0.0000       1.382246        37.6128 
 276   0.0000       1.391724        37.8707 
 277   0.0000       1.392604        37.8947 
 278   0.0000       1.407237        38.2929 
 279   0.0000       1.410038        38.3691 
 280   0.0000       1.428002        38.8579 
 281   0.0000       1.434031        39.0220 
 282   0.0000       1.446574        39.3633 
 283   0.0000       1.451619        39.5006 
 284   0.0000       1.463360        39.8201 
 285   0.0000       1.481666        40.3182 
 286   0.0000       1.489260        40.5248 
 287   0.0000       1.500356        40.8268 
 288   0.0000       1.506670        40.9986 
 289   0.0000       1.509843        41.0849 
 290   0.0000       1.522163        41.4202 
 291   0.0000       1.526245        41.5312 
 292   0.0000       1.539961        41.9045 
 293   0.0000       1.547537        42.1106 
 294   0.0000       1.554380        42.2968 
 295   0.0000       1.556366        42.3509 
 296   0.0000       1.572086        42.7786 
 297   0.0000       1.581239        43.0277 
 298   0.0000       1.585269        43.1374 
 299   0.0000       1.587030        43.1853 
 300   0.0000       1.589537        43.2535 
 301   0.0000       1.595506        43.4159 
 302   0.0000       1.604541        43.6618 
 303   0.0000       1.605468        43.6870 
 304   0.0000       1.606902        43.7260 
 305   0.0000       1.609766        43.8039 
 306   0.0000       1.616518        43.9877 
 307   0.0000       1.619044        44.0564 
 308   0.0000       1.627505        44.2867 
 309   0.0000       1.641916        44.6788 
 310   0.0000       1.653320        44.9891 
 311   0.0000       1.659933        45.1691 
 312   0.0000       1.672817        45.5197 
 313   0.0000       1.679702        45.7070 
 314   0.0000       1.681215        45.7482 
 315   0.0000       1.692211        46.0474 
 316   0.0000       1.698929        46.2302 
 317   0.0000       1.706191        46.4278 
 318   0.0000       1.709859        46.5276 
 319   0.0000       1.719409        46.7875 
 320   0.0000       1.720159        46.8079 
 321   0.0000       1.729380        47.0588 
 322   0.0000       1.730528        47.0900 
 323   0.0000       1.746662        47.5291 
 324   0.0000       1.752891        47.6986 
 325   0.0000       1.758610        47.8542 
 326   0.0000       1.759540        47.8795 
 327   0.0000       1.768687        48.1284 
 328   0.0000       1.769906        48.1616 
 329   0.0000       1.779124        48.4124 
 330   0.0000       1.780786        48.4576 
 331   0.0000       1.787413        48.6380 
 332   0.0000       1.795292        48.8524 
 333   0.0000       1.802751        49.0554 
 334   0.0000       1.813066        49.3360 
 335   0.0000       1.820053        49.5262 
 336   0.0000       1.832088        49.8536 
 337   0.0000       1.832350        49.8608 
 338   0.0000       1.834588        49.9217 
 339   0.0000       1.855093        50.4796 
 340   0.0000       1.874052        50.9956 
 341   0.0000       1.901668        51.7470 
 342   0.0000       1.904044        51.8117 
 343   0.0000       1.922057        52.3018 
 344   0.0000       1.925929        52.4072 
 345   0.0000       1.935291        52.6619 
 346   0.0000       1.944624        52.9159 
 347   0.0000       1.956375        53.2357 
 348   0.0000       1.960739        53.3544 
 349   0.0000       1.967042        53.5259 
 350   0.0000       1.988254        54.1031 
 351   0.0000       2.008676        54.6589 
 352   0.0000       2.016605        54.8746 
 353   0.0000       2.043083        55.5951 
 354   0.0000       2.056084        55.9489 
 355   0.0000       2.069893        56.3246 
 356   0.0000       2.072964        56.4082 
 357   0.0000       2.081901        56.6514 
 358   0.0000       2.099068        57.1186 
 359   0.0000       2.112871        57.4941 
 360   0.0000       2.129524        57.9473 
 361   0.0000       2.157432        58.7067 
 362   0.0000       2.157911        58.7197 
 363   0.0000       2.194145        59.7057 
 364   0.0000       2.195117        59.7322 
 365   0.0000       2.203348        59.9562 
 366   0.0000       2.219734        60.4020 
 367   0.0000       2.230672        60.6997 
 368   0.0000       2.236144        60.8486 
 369   0.0000       2.244461        61.0749 
 370   0.0000       2.263879        61.6033 
 371   0.0000       2.269884        61.7667 
 372   0.0000       2.270911        61.7946 
 373   0.0000       2.284287        62.1586 
 374   0.0000       2.297976        62.5311 
 375   0.0000       2.312085        62.9150 
 376   0.0000       2.315355        63.0040 
 377   0.0000       2.326578        63.3094 
 378   0.0000       2.327529        63.3353 
 379   0.0000       2.334021        63.5120 
 380   0.0000       2.339622        63.6644 
 381   0.0000       2.356882        64.1340 
 382   0.0000       2.365247        64.3616 
 383   0.0000       2.376576        64.6699 
 384   0.0000       2.384707        64.8912 
 385   0.0000       2.413894        65.6854 
 386   0.0000       2.423065        65.9350 
 387   0.0000       2.432908        66.2028 
 388   0.0000       2.448196        66.6188 
 389   0.0000       2.450137        66.6716 
 390   0.0000       2.455122        66.8073 
 391   0.0000       2.459421        66.9242 
 392   0.0000       2.462605        67.0109 
 393   0.0000       2.470709        67.2314 
 394   0.0000       2.483205        67.5715 
 395   0.0000       2.489488        67.7424 
 396   0.0000       2.503547        68.1250 
 397   0.0000       2.508076        68.2482 
 398   0.0000       2.511235        68.3342 
 399   0.0000       2.526951        68.7618 
 400   0.0000       2.531242        68.8786 
 401   0.0000       2.540627        69.1340 
 402   0.0000       2.562894        69.7399 
 403   0.0000       2.569329        69.9150 
 404   0.0000       2.576432        70.1083 
 405   0.0000       2.590352        70.4871 
 406   0.0000       2.605660        70.9036 
 407   0.0000       2.618051        71.2408 
 408   0.0000       2.620242        71.3004 
 409   0.0000       2.625751        71.4503 
 410   0.0000       2.641361        71.8751 
 411   0.0000       2.658830        72.3505 
 412   0.0000       2.692703        73.2722 
 413   0.0000       2.699808        73.4655 
 414   0.0000       2.724802        74.1456 
 415   0.0000       2.779133        75.6241 
 416   0.0000       2.860180        77.8295 
 417   0.0000       2.908447        79.1429 
 418   0.0000       2.965644        80.6993 
 419   0.0000       3.282511        89.3217 
 420   0.0000       4.989231       135.7639 
 421   0.0000       4.999600       136.0460 
 422   0.0000       5.011268       136.3635 
 423   0.0000       5.013818       136.4329 
 424   0.0000       5.016585       136.5082 
 425   0.0000       5.023789       136.7042 
 426   0.0000       5.028240       136.8254 
 427   0.0000       5.035077       137.0114 
 428   0.0000       5.038524       137.1052 
 429   0.0000       5.049718       137.4098 
 430   0.0000       5.059177       137.6672 
 431   0.0000       5.061256       137.7238 
 432   0.0000       5.082488       138.3015 
 433   0.0000       5.141224       139.8998 
 434   0.0000       5.163782       140.5137 
 435   0.0000       5.209742       141.7643 
 436   0.0000       5.230035       142.3165 
 437   0.0000       5.240351       142.5972 
 438   0.0000       5.253381       142.9518 
 439   0.0000       5.256335       143.0321 
 440   0.0000       5.280272       143.6835 
 441   0.0000       5.303090       144.3044 
 442   0.0000       5.307900       144.4353 
 443   0.0000       5.312160       144.5512 
 444   0.0000       5.327966       144.9813 
 445   0.0000       5.343996       145.4175 
 446   0.0000       5.362498       145.9210 
 447   0.0000       5.386505       146.5743 
 448   0.0000       5.401541       146.9834 
 449   0.0000       5.419063       147.4602 
 450   0.0000       5.436908       147.9458 
 451   0.0000       5.464334       148.6921 
 452   0.0000       5.514661       150.0616 
 453   0.0000       5.515502       150.0844 
 454   0.0000       5.580242       151.8461 
 455   0.0000       5.602125       152.4416 
 456   0.0000       5.623254       153.0165 
 457   0.0000       5.666376       154.1899 
 458   0.0000       5.722764       155.7243 
 459   0.0000       5.740188       156.1984 
 460   0.0000       5.786651       157.4628 
 461   0.0000       5.818736       158.3359 
 462   0.0000       5.860782       159.4800 
 463   0.0000       5.901580       160.5902 
 464   0.0000       6.058371       164.8567 
 465   0.0000       6.325127       172.1155 
 466   0.0000      29.615375       805.8753 
 467   0.0000      29.719641       808.7126 
 468   0.0000      29.807061       811.0914 
 469   0.0000      29.839861       811.9839 
 470   0.0000      29.880441       813.0881 
 471   0.0000      29.931895       814.4883 
 472   0.0000      29.964492       815.3753 
 473   0.0000      29.997249       816.2666 
 474   0.0000      30.018911       816.8561 
 475   0.0000      30.074750       818.3755 
 476   0.0000      30.105452       819.2110 
 477   0.0000      30.123805       819.7104 
 478   0.0000      30.147209       820.3473 
 479   0.0000      30.198409       821.7405 
 480   0.0000      30.245318       823.0169 
 481   0.0000      30.271987       823.7426 
 482   0.0000      30.317515       824.9815 
 483   0.0000      30.368425       826.3669 
 484   0.0000      30.549309       831.2889 
 485   0.0000      36.616412       996.3832 
 486   0.0000      36.625445       996.6290 
 487   0.0000      36.630266       996.7602 
 488   0.0000      36.637035       996.9444 
 489   0.0000      36.639325       997.0067 
 490   0.0000      36.646088       997.1907 
 491   0.0000      36.653654       997.3966 
 492   0.0000      36.663353       997.6605 
 493   0.0000      36.674141       997.9541 
 494   0.0000      36.684262       998.2295 
 495   0.0000      36.688984       998.3580 
 496   0.0000      36.708000       998.8755 
 497   0.0000      36.766598      1000.4700 
 498   0.0000      36.790910      1001.1315 
 499   0.0000      36.828383      1002.1513 
 500   0.0000      36.842129      1002.5253 
 501   0.0000      36.864959      1003.1465 
 502   0.0000      36.872386      1003.3486 
 503   0.0000      36.877639      1003.4916 
 504   0.0000      36.883392      1003.6481 
 505   0.0000      36.891019      1003.8557 
 506   0.0000      36.925750      1004.8007 
 507   0.0000      36.937205      1005.1125 
 508   0.0000      36.966408      1005.9071 
 509   0.0000      36.977350      1006.2048 
 510   0.0000      36.998124      1006.7701 
 511   0.0000      37.021943      1007.4183 

                 SPIN DOWN ORBITALS
  NO   OCC          E(Eh)            E(eV) 
   0   1.0000     -10.216706      -278.0107 
   1   1.0000     -10.206194      -277.7247 
   2   1.0000     -10.202671      -277.6288 
   3   1.0000     -10.202082      -277.6128 
   4   1.0000     -10.194064      -277.3946 
   5   1.0000     -10.193233      -277.3720 
   6   1.0000     -10.192409      -277.3495 
   7   1.0000     -10.192022      -277.3390 
   8   1.0000     -10.187901      -277.2269 
   9   1.0000     -10.184994      -277.1478 
  10   1.0000     -10.183621      -277.1104 
  11   1.0000     -10.181500      -277.0527 
  12   1.0000     -10.180991      -277.0389 
  13   1.0000     -10.179990      -277.0116 
  14   1.0000     -10.178790      -276.9790 
  15   1.0000     -10.178135      -276.9611 
  16   1.0000     -10.177825      -276.9527 
  17   1.0000     -10.173307      -276.8298 
  18   1.0000     -10.171108      -276.7699 
  19   1.0000      -0.861223       -23.4351 
  20   1.0000      -0.809578       -22.0297 
  21   1.0000      -0.799050       -21.7433 
  22   1.0000      -0.779332       -21.2067 
  23   1.0000      -0.774533       -21.0761 
  24   1.0000      -0.753360       -20.5000 
  25   1.0000      -0.726113       -19.7585 
  26   1.0000      -0.721812       -19.6415 
  27   1.0000      -0.698493       -19.0069 
  28   1.0000      -0.660805       -17.9814 
  29   1.0000      -0.633807       -17.2468 
  30   1.0000      -0.616969       -16.7886 
  31   1.0000      -0.603563       -16.4238 
  32   1.0000      -0.580977       -15.8092 
  33   1.0000      -0.575667       -15.6647 
  34   1.0000      -0.565096       -15.3771 
  35   1.0000      -0.558533       -15.1985 
  36   1.0000      -0.527573       -14.3560 
  37   1.0000      -0.493504       -13.4289 
  38   1.0000      -0.479349       -13.0438 
  39   1.0000      -0.470803       -12.8112 
  40   1.0000      -0.466901       -12.7050 
  41   1.0000      -0.459494       -12.5035 
  42   1.0000      -0.457325       -12.4444 
  43   1.0000      -0.425084       -11.5671 
  44   1.0000      -0.424573       -11.5532 
  45   1.0000      -0.419432       -11.4133 
  46   1.0000      -0.419333       -11.4106 
  47   1.0000      -0.415448       -11.3049 
  48   1.0000      -0.407676       -11.0934 
  49   1.0000      -0.392083       -10.6691 
  50   1.0000      -0.387686       -10.5495 
  51   1.0000      -0.376692       -10.2503 
  52   1.0000      -0.367077        -9.9887 
  53   1.0000      -0.366008        -9.9596 
  54   1.0000      -0.354787        -9.6543 
  55   1.0000      -0.353537        -9.6202 
  56   1.0000      -0.351404        -9.5622 
  57   1.0000      -0.338663        -9.2155 
  58   1.0000      -0.334707        -9.1078 
  59   1.0000      -0.327040        -8.8992 
  60   1.0000      -0.325617        -8.8605 
  61   1.0000      -0.323937        -8.8148 
  62   1.0000      -0.322600        -8.7784 
  63   1.0000      -0.319547        -8.6953 
  64   1.0000      -0.318906        -8.6779 
  65   1.0000      -0.307783        -8.3752 
  66   1.0000      -0.298585        -8.1249 
  67   1.0000      -0.271442        -7.3863 
  68   1.0000      -0.240862        -6.5542 
  69   1.0000      -0.223125        -6.0715 
  70   0.0000      -0.050696        -1.3795 
  71   0.0000      -0.033204        -0.9035 
  72   0.0000      -0.000432        -0.0118 
  73   0.0000       0.020280         0.5518 
  74   0.0000       0.023917         0.6508 
  75   0.0000       0.025440         0.6923 
  76   0.0000       0.030429         0.8280 
  77   0.0000       0.034110         0.9282 
  78   0.0000       0.040183         1.0934 
  79   0.0000       0.044412         1.2085 
  80   0.0000       0.045189         1.2297 
  81   0.0000       0.051497         1.4013 
  82   0.0000       0.058595         1.5944 
  83   0.0000       0.063926         1.7395 
  84   0.0000       0.076798         2.0898 
  85   0.0000       0.082411         2.2425 
  86   0.0000       0.086643         2.3577 
  87   0.0000       0.089825         2.4443 
  88   0.0000       0.111427         3.0321 
  89   0.0000       0.117124         3.1871 
  90   0.0000       0.121757         3.3132 
  91   0.0000       0.146856         3.9962 
  92   0.0000       0.148942         4.0529 
  93   0.0000       0.155544         4.2326 
  94   0.0000       0.161580         4.3968 
  95   0.0000       0.169484         4.6119 
  96   0.0000       0.171690         4.6719 
  97   0.0000       0.173898         4.7320 
  98   0.0000       0.181322         4.9340 
  99   0.0000       0.188874         5.1395 
 100   0.0000       0.190003         5.1702 
 101   0.0000       0.193965         5.2781 
 102   0.0000       0.198046         5.3891 
 103   0.0000       0.198150         5.3919 
 104   0.0000       0.199981         5.4418 
 105   0.0000       0.206800         5.6273 
 106   0.0000       0.210659         5.7323 
 107   0.0000       0.217122         5.9082 
 108   0.0000       0.218453         5.9444 
 109   0.0000       0.220249         5.9933 
 110   0.0000       0.224077         6.0975 
 111   0.0000       0.232956         6.3391 
 112   0.0000       0.235158         6.3990 
 113   0.0000       0.241627         6.5750 
 114   0.0000       0.251219         6.8360 
 115   0.0000       0.251661         6.8480 
 116   0.0000       0.252995         6.8843 
 117   0.0000       0.255152         6.9430 
 118   0.0000       0.255688         6.9576 
 119   0.0000       0.265588         7.2270 
 120   0.0000       0.269811         7.3419 
 121   0.0000       0.276056         7.5119 
 122   0.0000       0.278790         7.5863 
 123   0.0000       0.280517         7.6333 
 124   0.0000       0.286093         7.7850 
 125   0.0000       0.287040         7.8107 
 126   0.0000       0.289360         7.8739 
 127   0.0000       0.294527         8.0145 
 128   0.0000       0.296160         8.0589 
 129   0.0000       0.300362         8.1733 
 130   0.0000       0.307226         8.3600 
 131   0.0000       0.309172         8.4130 
 132   0.0000       0.310795         8.4572 
 133   0.0000       0.312089         8.4924 
 134   0.0000       0.318235         8.6596 
 135   0.0000       0.320515         8.7217 
 136   0.0000       0.321799         8.7566 
 137   0.0000       0.326570         8.8864 
 138   0.0000       0.329494         8.9660 
 139   0.0000       0.331354         9.0166 
 140   0.0000       0.342209         9.3120 
 141   0.0000       0.346990         9.4421 
 142   0.0000       0.351704         9.5704 
 143   0.0000       0.356411         9.6984 
 144   0.0000       0.366126         9.9628 
 145   0.0000       0.370163        10.0727 
 146   0.0000       0.372301        10.1308 
 147   0.0000       0.374957        10.2031 
 148   0.0000       0.383779        10.4432 
 149   0.0000       0.390386        10.6229 
 150   0.0000       0.391468        10.6524 
 151   0.0000       0.402009        10.9392 
 152   0.0000       0.404596        11.0096 
 153   0.0000       0.414626        11.2826 
 154   0.0000       0.416469        11.3327 
 155   0.0000       0.421816        11.4782 
 156   0.0000       0.426121        11.5953 
 157   0.0000       0.428580        11.6622 
 158   0.0000       0.436021        11.8647 
 159   0.0000       0.441930        12.0255 
 160   0.0000       0.450617        12.2619 
 161   0.0000       0.456097        12.4110 
 162   0.0000       0.461727        12.5642 
 163   0.0000       0.471930        12.8419 
 164   0.0000       0.476773        12.9737 
 165   0.0000       0.477243        12.9864 
 166   0.0000       0.482282        13.1236 
 167   0.0000       0.486729        13.2446 
 168   0.0000       0.490131        13.3371 
 169   0.0000       0.507397        13.8070 
 170   0.0000       0.510576        13.8935 
 171   0.0000       0.512258        13.9392 
 172   0.0000       0.515991        14.0408 
 173   0.0000       0.518480        14.1085 
 174   0.0000       0.530783        14.4433 
 175   0.0000       0.536352        14.5949 
 176   0.0000       0.545254        14.8371 
 177   0.0000       0.546429        14.8691 
 178   0.0000       0.552939        15.0462 
[...]
  Z           0.8636957            0.0768719            0.4981169

Notes:  (1) The A matrix conforms to the "SAI" spin Hamiltonian convention.
        (2) Tensor is right-handed.

 -----------------------------------------------------------
 Nucleus  43H : A:ISTP=    1 I=  0.5 P=533.5514 MHz/au**3
                Q:ISTP=    2 I=  1.0 Q=  0.0029 barn     
 -----------------------------------------------------------
 Solving for nuclear perturbation:
Forming RHS of the CP-SCF equations         ... 
Calc. nucleus orbit integrals (SHARK)       ... done

------------------------------------------------------------------------------
                           ORCA CP-SCF CALCULATION
------------------------------------------------------------------------------

Input orbitals are from        ... EPRII_i.gbw
Input Perturbation             ... EPRII_i.pin.tmp
Wavefunction output            ... EPRII_i.pout.tmp
Perturbation mode              ... Imaginary perturbation
Solver                         ... POPLE
Max. number of iterations      ... 64
Convergence tolerance          ... 1.000e-03
Integral handling              ... Direct
DFT GridXC                     ... 1
COSX GridX                     ... 1
COSX IntAccX                   ... 3.067
COSX Algorithm                 ... Auto
Number of perturbations        ... 3
Number of operators            ... 2
Orbital ranges used for CP-SCF:
 Operator 0:  Orbitals   0... 70  to  71...511
 Operator 1:  Orbitals   0... 69  to  70...511
Variables per perturbation     ... 62251
DFT calculation                         ... on
XC functional terms                     ... off
Hybrid DFT                              ... on
   Exchange mixing (SCF)                ...  0.200
   Exchange mixing (CP-SCF)             ...  0.200
   GGA exch. scaling(SCF)               ...  0.720
   GGA exch. scaling (CP-SCF)           ...  0.720
   GGA corr. scaling (SCF)              ...  0.810
   GGA corr. scaling (CP-SCF)           ...  0.810

CP-SCF GRID
-----------

General Integration Accuracy     IntAcc      ... 3.467
Radial Grid Type                 RadialGrid  ... OptM3 with GC (2021)
Angular Grid (max. ang.)         AngularGrid ... 1 (Lebedev-50)
Angular grid pruning method      GridPruning ... 4 (adaptive)
Weight generation scheme         WeightScheme... Becke
Basis function cutoff            BFCut       ... 1.0000e-10
Integration weight cutoff        WCut        ... 1.0000e-14
Angular grids for H and He will be reduced by one unit
Partially contracted basis set               ... off
Rotationally invariant grid construction     ... off

Total number of grid points                  ...    27869
Total number of batches                      ...      456
Average number of points per batch           ...       61
Average number of grid points per atom       ...      606

CP-SCF GRIDX
------------

General Integration Accuracy     IntAcc      ... 3.067
Radial Grid Type                 RadialGrid  ... OptM3 with GC (2021)
Angular Grid (max. ang.)         AngularGrid ... 1 (Lebedev-50)
Angular grid pruning method      GridPruning ... 4 (adaptive)
Weight generation scheme         WeightScheme... Becke
Basis function cutoff            BFCut       ... 1.0000e-10
Integration weight cutoff        WCut        ... 1.0000e-14
Angular grids for H and He will be reduced by one unit
Partially contracted basis set               ... on
Rotationally invariant grid construction     ... off

Total number of grid points                  ...    13253
Total number of batches                      ...      235
Average number of points per batch           ...       56
Average number of grid points per atom       ...      288

Memory available               ... 876.9 MB
Memory needed per perturbation ...  15.3 MB
Perturbations treated per batch... 3
Number of batches              ... 1
     CP-SCF ITERATION   0:   1.0355e-01 (   1.5 sec   0/  3 done)
     CP-SCF ITERATION   1:   1.7124e-03 (   1.6 sec   2/  3 done)
     CP-SCF ITERATION   2:   8.5142e-05 (   1.1 sec   3/  3 done)
                    *** THE CP-SCF HAS CONVERGED ***

Forming final perturbed densities           ... done
Transforming perturbed density to AO basis  ... done

 Raw HFC matrix (all values in MHz): 
 -----------------------------------
                -0.0436              -0.0588               0.0020
                -0.0589               0.1094              -0.0059
                 0.0020              -0.0059              -0.0649

 A(FC)           0.0003               0.0003               0.0003
 A(SD)          -0.0639              -0.0654               0.1293
 A(ORB+DIA)      0.0000               0.0000               0.0000    A(PC) =   0.0000
 A(ORB)         -0.0000              -0.0000               0.0000    A(PC) =  -0.0000
 A(DIA)          0.0000               0.0000               0.0000    A(PC) =   0.0000
             ----------           ----------           ----------
 A(Tot)         -0.0636              -0.0651               0.1296    A(iso)=    0.0003
 Orientation: 
  X           0.9465558           -0.0229896            0.3217198
  Y           0.3222610            0.0259122           -0.9462962
  Z           0.0134185            0.9993998            0.0319360

Notes:  (1) The A matrix conforms to the "SAI" spin Hamiltonian convention.
        (2) Tensor is right-handed.

 -----------------------------------------------------------
 Nucleus  44H : A:ISTP=    1 I=  0.5 P=533.5514 MHz/au**3
                Q:ISTP=    2 I=  1.0 Q=  0.0029 barn     
 -----------------------------------------------------------
 Solving for nuclear perturbation:
Forming RHS of the CP-SCF equations         ... 
Calc. nucleus orbit integrals (SHARK)       ... done

------------------------------------------------------------------------------
                           ORCA CP-SCF CALCULATION
------------------------------------------------------------------------------

Input orbitals are from        ... EPRII_i.gbw
Input Perturbation             ... EPRII_i.pin.tmp
Wavefunction output            ... EPRII_i.pout.tmp
Perturbation mode              ... Imaginary perturbation
Solver                         ... POPLE
Max. number of iterations      ... 64
Convergence tolerance          ... 1.000e-03
Integral handling              ... Direct
DFT GridXC                     ... 1
COSX GridX                     ... 1
COSX IntAccX                   ... 3.067
COSX Algorithm                 ... Auto
Number of perturbations        ... 3
Number of operators            ... 2
Orbital ranges used for CP-SCF:
 Operator 0:  Orbitals   0... 70  to  71...511
 Operator 1:  Orbitals   0... 69  to  70...511
Variables per perturbation     ... 62251
DFT calculation                         ... on
XC functional terms                     ... off
Hybrid DFT                              ... on
   Exchange mixing (SCF)                ...  0.200
   Exchange mixing (CP-SCF)             ...  0.200
   GGA exch. scaling(SCF)               ...  0.720
   GGA exch. scaling (CP-SCF)           ...  0.720
   GGA corr. scaling (SCF)              ...  0.810
   GGA corr. scaling (CP-SCF)           ...  0.810

CP-SCF GRID
-----------

General Integration Accuracy     IntAcc      ... 3.467
Radial Grid Type                 RadialGrid  ... OptM3 with GC (2021)
Angular Grid (max. ang.)         AngularGrid ... 1 (Lebedev-50)
Angular grid pruning method      GridPruning ... 4 (adaptive)
Weight generation scheme         WeightScheme... Becke
Basis function cutoff            BFCut       ... 1.0000e-10
Integration weight cutoff        WCut        ... 1.0000e-14
Angular grids for H and He will be reduced by one unit
Partially contracted basis set               ... off
Rotationally invariant grid construction     ... off

Total number of grid points                  ...    27869
Total number of batches                      ...      456
Average number of points per batch           ...       61
Average number of grid points per atom       ...      606

CP-SCF GRIDX
------------

General Integration Accuracy     IntAcc      ... 3.067
Radial Grid Type                 RadialGrid  ... OptM3 with GC (2021)
Angular Grid (max. ang.)         AngularGrid ... 1 (Lebedev-50)
Angular grid pruning method      GridPruning ... 4 (adaptive)
Weight generation scheme         WeightScheme... Becke
Basis function cutoff            BFCut       ... 1.0000e-10
Integration weight cutoff        WCut        ... 1.0000e-14
Angular grids for H and He will be reduced by one unit
Partially contracted basis set               ... on
Rotationally invariant grid construction     ... off

Total number of grid points                  ...    13253
Total number of batches                      ...      235
Average number of points per batch           ...       56
Average number of grid points per atom       ...      288

Memory available               ... 876.3 MB
Memory needed per perturbation ...  15.3 MB
Perturbations treated per batch... 3
Number of batches              ... 1
     CP-SCF ITERATION   0:   3.7201e-02 (   1.6 sec   0/  3 done)
     CP-SCF ITERATION   1:   5.6197e-04 (   1.6 sec   3/  3 done)
                    *** THE CP-SCF HAS CONVERGED ***

Forming final perturbed densities           ... done
Transforming perturbed density to AO basis  ... done

 Raw HFC matrix (all values in MHz): 
 -----------------------------------
                -0.0129               0.0081              -0.0002
                 0.0081               0.0275              -0.0008
                -0.0002              -0.0008              -0.0145

 A(FC)           0.0000               0.0000               0.0000
 A(SD)          -0.0145              -0.0145               0.0290
 A(ORB+DIA)      0.0000               0.0000               0.0000    A(PC) =   0.0000
 A(ORB)         -0.0000              -0.0000               0.0000    A(PC) =  -0.0000
 A(DIA)          0.0000               0.0000               0.0000    A(PC) =   0.0000
             ----------           ----------           ----------
 A(Tot)         -0.0145              -0.0145               0.0290    A(iso)=    0.0000
 Orientation: 
  X           0.9817911           -0.0130324           -0.1895162
  Y          -0.1891944            0.0226125           -0.9816792
  Z           0.0170791            0.9996594            0.0197351

Notes:  (1) The A matrix conforms to the "SAI" spin Hamiltonian convention.
        (2) Tensor is right-handed.

 -----------------------------------------------------------
 Nucleus  45H : A:ISTP=    1 I=  0.5 P=533.5514 MHz/au**3
                Q:ISTP=    2 I=  1.0 Q=  0.0029 barn     
 -----------------------------------------------------------
 Solving for nuclear perturbation:
Forming RHS of the CP-SCF equations         ... 
Calc. nucleus orbit integrals (SHARK)       ... done

------------------------------------------------------------------------------
                           ORCA CP-SCF CALCULATION
------------------------------------------------------------------------------

Input orbitals are from        ... EPRII_i.gbw
Input Perturbation             ... EPRII_i.pin.tmp
Wavefunction output            ... EPRII_i.pout.tmp
Perturbation mode              ... Imaginary perturbation
Solver                         ... POPLE
Max. number of iterations      ... 64
Convergence tolerance          ... 1.000e-03
Integral handling              ... Direct
DFT GridXC                     ... 1
COSX GridX                     ... 1
COSX IntAccX                   ... 3.067
COSX Algorithm                 ... Auto
Number of perturbations        ... 3
Number of operators            ... 2
Orbital ranges used for CP-SCF:
 Operator 0:  Orbitals   0... 70  to  71...511
 Operator 1:  Orbitals   0... 69  to  70...511
Variables per perturbation     ... 62251
DFT calculation                         ... on
XC functional terms                     ... off
Hybrid DFT                              ... on
   Exchange mixing (SCF)                ...  0.200
   Exchange mixing (CP-SCF)             ...  0.200
   GGA exch. scaling(SCF)               ...  0.720
   GGA exch. scaling (CP-SCF)           ...  0.720
   GGA corr. scaling (SCF)              ...  0.810
   GGA corr. scaling (CP-SCF)           ...  0.810

CP-SCF GRID
-----------

General Integration Accuracy     IntAcc      ... 3.467
Radial Grid Type                 RadialGrid  ... OptM3 with GC (2021)
Angular Grid (max. ang.)         AngularGrid ... 1 (Lebedev-50)
Angular grid pruning method      GridPruning ... 4 (adaptive)
Weight generation scheme         WeightScheme... Becke
Basis function cutoff            BFCut       ... 1.0000e-10
Integration weight cutoff        WCut        ... 1.0000e-14
Angular grids for H and He will be reduced by one unit
Partially contracted basis set               ... off
Rotationally invariant grid construction     ... off

Total number of grid points                  ...    27869
Total number of batches                      ...      456
Average number of points per batch           ...       61
Average number of grid points per atom       ...      606

CP-SCF GRIDX
------------

General Integration Accuracy     IntAcc      ... 3.067
Radial Grid Type                 RadialGrid  ... OptM3 with GC (2021)
Angular Grid (max. ang.)         AngularGrid ... 1 (Lebedev-50)
Angular grid pruning method      GridPruning ... 4 (adaptive)
Weight generation scheme         WeightScheme... Becke
Basis function cutoff            BFCut       ... 1.0000e-10
Integration weight cutoff        WCut        ... 1.0000e-14
Angular grids for H and He will be reduced by one unit
Partially contracted basis set               ... on
Rotationally invariant grid construction     ... off

Total number of grid points                  ...    13253
Total number of batches                      ...      235
Average number of points per batch           ...       56
Average number of grid points per atom       ...      288

Memory available               ... 875.8 MB
Memory needed per perturbation ...  15.3 MB
Perturbations treated per batch... 3
Number of batches              ... 1
     CP-SCF ITERATION   0:   4.4138e-02 (   1.8 sec   0/  3 done)
     CP-SCF ITERATION   1:   1.7006e-03 (   1.6 sec   1/  3 done)
     CP-SCF ITERATION   2:   7.8538e-05 (   1.5 sec   3/  3 done)
                    *** THE CP-SCF HAS CONVERGED ***

Forming final perturbed densities           ... done
Transforming perturbed density to AO basis  ... done

 Raw HFC matrix (all values in MHz): 
 -----------------------------------
                -0.0324               0.0688              -0.0010
                 0.0688               0.0954              -0.0024
                -0.0010              -0.0024              -0.0640

 A(FC)          -0.0004              -0.0004              -0.0004
 A(SD)          -0.0621              -0.0637               0.1258
 A(ORB+DIA)      0.0000               0.0000               0.0000    A(PC) =   0.0000
 A(ORB)         -0.0000              -0.0000               0.0000    A(PC) =  -0.0000
 A(DIA)          0.0000               0.0000               0.0000    A(PC) =   0.0000
             ----------           ----------           ----------
 A(Tot)         -0.0625              -0.0640               0.1254    A(iso)=   -0.0003
 Orientation: 
  X           0.9164743           -0.0163244           -0.3997603
  Y          -0.3993854            0.0220921           -0.9165169
  Z           0.0237931            0.9996227            0.0137271

Notes:  (1) The A matrix conforms to the "SAI" spin Hamiltonian convention.
        (2) Tensor is right-handed.


--------------------------------------------------------------------------------
----------------------------------------------------------------------------
                           ORCA EULER ANGLE PROGRAM
----------------------------------------------------------------------------

Only g-tensor available        -->  using g-tensor as reference tensor

Reference tensor               ...  g

g-tensor ordering              ...  |g_min> --> |gx>
                                    |g_mid> --> |gy>
                                    |g_max> --> |gz>

A- and EFG-tensor ordering     ...  the axes |Ax>, |Qx>, |Ay>, etc. are assigned
                                    such that the Euler rotation is minimal. You
                                    can find the respective eigenvalues as Ax,
                                    EFGx, Ay, etc. in the tables below.
                                    The relation of |Ax>, |Ay>,  etc. to Amin, Amid, etc.
                                    (as printed in the ORCA EPR/NMR CALCULATION Output)
                                    is obtained in the detailed printout.

Euler rotation around          ...  z - y - z
   First rotation              -->  by alpha around z
   Second rotation             -->  by beta around y'
   Third rotation              -->  by gamma around z''
   Positive / Negative angle   -->  clockwise / counterclockwise rotation

Plot EFG-tensors                    (-)
Plot HFC-tensors                    (-)
Detailed Printout                   (-)

-------------------------------------------------------------------------
          Euler rotation of hyperfine tensor to g-tensor
-------------------------------------------------------------------------

-------------------------------------------------------------------
 Atom  |   Alpha    Beta    Gamma   |   Ax       Ay       Az 
       |          [degrees]         |           [MHz]         
-------------------------------------------------------------------
  7H     -178.4     31.6    179.0      -0.04    -0.04     0.10
  8H     -174.1     11.2    174.8      -0.13    -0.15     0.28
 10H     -159.9     16.6    163.7      -0.04    -0.04     0.07
 11H      164.6     16.4   -168.5      -0.04    -0.04     0.07
 13H     -165.0     26.5    170.0      -0.03    -0.03     0.06
 14H      170.4     26.3   -173.4      -0.03    -0.03     0.06
 16H      167.7     18.7   -172.1      -0.02    -0.02     0.04
 17H     -162.7     18.9    167.5      -0.02    -0.02     0.04
 19H      174.5     27.0   -174.9      -0.02    -0.02     0.03
 20H     -170.5     27.1    171.5      -0.02    -0.02     0.03
 22H     -154.9     40.2   -167.8      -0.18    -0.23     0.38
 23H      158.1     40.7    166.3      -0.18    -0.23     0.38
 25H      -96.4     19.1    136.6      -0.36    -0.49     0.55
 26H      101.4     17.7   -140.5      -0.36    -0.49     0.55
 28H      -17.3     46.8     44.1       1.55    -0.55    -0.32
 29H       15.4     45.5    -42.4       1.55    -0.55    -0.32
 31H       58.5     16.7    -99.0      -1.38    -2.28     1.69
 32H      -57.6     18.6     98.3      -1.38    -2.28     1.70
 34H       23.9     28.4    -60.7       3.37    -9.65    -6.19
 35H      -25.7     30.0     62.3       3.36    -9.65    -6.19
 37H      -95.4     26.4     66.4      28.62    28.19    42.26
 38H       93.7     24.8    -64.8      28.47    28.03    42.11
 40H       77.6     29.8    -82.3     -64.81   -24.58  -102.68
 41H      -78.1     31.6     82.8     -64.81   -24.58  -102.68
 43H       -1.7     37.4      2.0       0.13    -0.07    -0.06
 44H     -177.8     22.9    178.0      -0.01    -0.01     0.03
 45H     -174.4     10.3    174.7      -0.06    -0.06     0.13
-------------------------------------------------------------------


Maximum memory used throughout the entire EPRNMR-calculation: 217.2 MB

Timings for individual modules:

Sum of individual times         ...     3817.865 sec (=  63.631 min)
GTO integral calculation        ...        4.973 sec (=   0.083 min)   0.1 %
Spin-Orbit-Coupling Matrices    ...       11.067 sec (=   0.184 min)   0.3 %
SCF iterations                  ...       64.655 sec (=   1.078 min)   1.7 %
EPR/NMR calculation             ...     3737.169 sec (=  62.286 min)  97.9 %
                             ****ORCA TERMINATED NORMALLY****
TOTAL RUN TIME: 0 days 1 hours 3 minutes 42 seconds 164 msec
