
                                 *****************
                                 * O   R   C   A *
                                 *****************

                                            #,                                       
                                            ###                                      
                                            ####                                     
                                            #####                                    
                                            ######                                   
                                           ########,                                 
                                     ,,################,,,,,                         
                               ,,#################################,,                 
                          ,,##########################################,,             
                       ,#########################################, ''#####,          
                    ,#############################################,,   '####,        
                  ,##################################################,,,,####,       
                ,###########''''           ''''###############################       
              ,#####''   ,,,,##########,,,,          '''####'''          '####       
            ,##' ,,,,###########################,,,                        '##       
           ' ,,###''''                  '''############,,,                           
         ,,##''                                '''############,,,,        ,,,,,,###''
      ,#''                                            '''#######################'''  
     '                                                          ''''####''''         
             ,#######,   #######,   ,#######,      ##                                
            ,#'     '#,  ##    ##  ,#'     '#,    #''#        ######   ,####,        
            ##       ##  ##   ,#'  ##            #'  '#       #        #'  '#        
            ##       ##  #######   ##           ,######,      #####,   #    #        
            '#,     ,#'  ##    ##  '#,     ,#' ,#      #,         ##   #,  ,#        
             '#######'   ##     ##  '#######'  #'      '#     #####' # '####'        



                  #######################################################
                  #                        -***-                        #
                  #          Department of theory and spectroscopy      #
                  #    Directorship and core code : Frank Neese         #
                  #        Max Planck Institute fuer Kohlenforschung    #
                  #                Kaiser Wilhelm Platz 1               #
                  #                 D-45470 Muelheim/Ruhr               #
                  #                      Germany                        #
                  #                                                     #
                  #                  All rights reserved                #
                  #                        -***-                        #
                  #######################################################


                         Program Version 5.0.4 -  RELEASE  -


 With contributions from (in alphabetic order):
   Daniel Aravena         : Magnetic Suceptibility
   Michael Atanasov       : Ab Initio Ligand Field Theory (pilot matlab implementation)
   Alexander A. Auer      : GIAO ZORA, VPT2 properties, NMR spectrum
   Ute Becker             : Parallelization
   Giovanni Bistoni       : ED, misc. LED, open-shell LED, HFLD
   Martin Brehm           : Molecular dynamics
   Dmytro Bykov           : SCF Hessian
   Vijay G. Chilkuri      : MRCI spin determinant printing, contributions to CSF-ICE
   Dipayan Datta          : RHF DLPNO-CCSD density
   Achintya Kumar Dutta   : EOM-CC, STEOM-CC
   Dmitry Ganyushin       : Spin-Orbit,Spin-Spin,Magnetic field MRCI
   Miquel Garcia          : C-PCM and meta-GGA Hessian, CC/C-PCM, Gaussian charge scheme
   Yang Guo               : DLPNO-NEVPT2, F12-NEVPT2, CIM, IAO-localization
   Andreas Hansen         : Spin unrestricted coupled pair/coupled cluster methods
   Benjamin Helmich-Paris : MC-RPA, TRAH-SCF, COSX integrals
   Lee Huntington         : MR-EOM, pCC
   Robert Izsak           : Overlap fitted RIJCOSX, COSX-SCS-MP3, EOM
   Marcus Kettner         : VPT2
   Christian Kollmar      : KDIIS, OOCD, Brueckner-CCSD(T), CCSD density, CASPT2, CASPT2-K
   Simone Kossmann        : Meta GGA functionals, TD-DFT gradient, OOMP2, MP2 Hessian
   Martin Krupicka        : Initial AUTO-CI
   Lucas Lang             : DCDCAS
   Marvin Lechner         : AUTO-CI (C++ implementation), FIC-MRCC
   Dagmar Lenk            : GEPOL surface, SMD
   Dimitrios Liakos       : Extrapolation schemes; Compound Job, initial MDCI parallelization
   Dimitrios Manganas     : Further ROCIS development; embedding schemes
   Dimitrios Pantazis     : SARC Basis sets
   Anastasios Papadopoulos: AUTO-CI, single reference methods and gradients
   Taras Petrenko         : DFT Hessian,TD-DFT gradient, ASA, ECA, R-Raman, ABS, FL, XAS/XES, NRVS
   Peter Pinski           : DLPNO-MP2, DLPNO-MP2 Gradient
   Christoph Reimann      : Effective Core Potentials
   Marius Retegan         : Local ZFS, SOC
   Christoph Riplinger    : Optimizer, TS searches, QM/MM, DLPNO-CCSD(T), (RO)-DLPNO pert. Triples
   Tobias Risthaus        : Range-separated hybrids, TD-DFT gradient, RPA, STAB
   Michael Roemelt        : Original ROCIS implementation
   Masaaki Saitow         : Open-shell DLPNO-CCSD energy and density
   Barbara Sandhoefer     : DKH picture change effects
   Avijit Sen             : IP-ROCIS
   Kantharuban Sivalingam : CASSCF convergence, NEVPT2, FIC-MRCI
   Bernardo de Souza      : ESD, SOC TD-DFT
   Georgi Stoychev        : AutoAux, RI-MP2 NMR, DLPNO-MP2 response
   Willem Van den Heuvel  : Paramagnetic NMR
   Boris Wezisla          : Elementary symmetry handling
   Frank Wennmohs         : Technical directorship


 We gratefully acknowledge several colleagues who have allowed us to
 interface, adapt or use parts of their codes:
   Stefan Grimme, W. Hujo, H. Kruse, P. Pracht,  : VdW corrections, initial TS optimization,
                  C. Bannwarth, S. Ehlert          DFT functionals, gCP, sTDA/sTD-DF
   Ed Valeev, F. Pavosevic, A. Kumar             : LibInt (2-el integral package), F12 methods
   Garnet Chan, S. Sharma, J. Yang, R. Olivares  : DMRG
   Ulf Ekstrom                                   : XCFun DFT Library
   Mihaly Kallay                                 : mrcc  (arbitrary order and MRCC methods)
   Jiri Pittner, Ondrej Demel                    : Mk-CCSD
   Frank Weinhold                                : gennbo (NPA and NBO analysis)
   Christopher J. Cramer and Donald G. Truhlar   : smd solvation model
   Lars Goerigk                                  : TD-DFT with DH, B97 family of functionals
   V. Asgeirsson, H. Jonsson                     : NEB implementation
   FAccTs GmbH                                   : IRC, NEB, NEB-TS, DLPNO-Multilevel, CI-OPT
                                                   MM, QMMM, 2- and 3-layer-ONIOM, Crystal-QMMM,
                                                   LR-CPCM, SF, NACMEs, symmetry and pop. for TD-DFT,
                                                   nearIR, NL-DFT gradient (VV10), updates on ESD,
                                                   ML-optimized integration grids
   S Lehtola, MJT Oliveira, MAL Marques          : LibXC Library
   Liviu Ungur et al                             : ANISO software


 Your calculation uses the libint2 library for the computation of 2-el integrals
 For citations please refer to: http://libint.valeyev.net

 Your ORCA version has been built with support for libXC version: 5.1.0
 For citations please refer to: https://tddft.org/programs/libxc/

 This ORCA versions uses:
   CBLAS   interface :  Fast vector & matrix operations
   LAPACKE interface :  Fast linear algebra routines
   SCALAPACK package :  Parallel linear algebra routines
   Shared memory     :  Shared parallel matrices
   BLAS/LAPACK       :  OpenBLAS 0.3.15  USE64BITINT DYNAMIC_ARCH NO_AFFINITY SkylakeX SINGLE_THREADED
        Core in use  :  SkylakeX
   Copyright (c) 2011-2014, The OpenBLAS Project




***************************************
The coordinates will be read from file: opt_EPRII.xyz
***************************************


================================================================================

----- Orbital basis set information -----
Your calculation utilizes the basis: EPR-II
   V. Barone, in Recent Advances in Density Functional Methods, Part 1 (ed. D. P. Chong), World Scientific, Singapore, 1995, p. 287.

----- AuxJ basis set information -----
Your calculation utilizes the AutoAux generation procedure.
  G. L. Stoychev, A. A. Auer, F. Neese, J. Chem. Theory Comput. 13, 554 (2017)

----- AuxC basis set information -----
Your calculation utilizes the AutoAux generation procedure.
  G. L. Stoychev, A. A. Auer, F. Neese, J. Chem. Theory Comput. 13, 554 (2017)

----- AuxJK basis set information -----
Your calculation utilizes the AutoAux generation procedure.
  G. L. Stoychev, A. A. Auer, F. Neese, J. Chem. Theory Comput. 13, 554 (2017)

================================================================================
                                        WARNINGS
                       Please study these warnings very carefully!
================================================================================

WARNING: Old DensityContainer found on disk!
         Will remove this file - 
         If you want to keep old densities, please start your calculation with a different basename. 


WARNING: your system is open-shell and RHF/RKS was chosen
  ===> : WILL SWITCH to UHF/UKS


INFO   : the flag for use of the SHARK integral package has been found!

================================================================================
                                       INPUT FILE
================================================================================
NAME = EPRII.inp
|  1> ! B3LYP EPR-II AUTOAUX
|  2> %pal nprocs 16 end
|  3> *XYZFile 0 2 opt_EPRII.xyz
|  4> %EPRNMR
|  5>         GTENSOR   TRUE
|  6>         NUCLEI    = ALL H {SHIFT, AISO, ADIP, AORB}
|  7>         ORI       CenterOfElCharge
|  8> END
|  9> 
| 10>                          ****END OF INPUT****
================================================================================

                       ****************************
                       * Single Point Calculation *
                       ****************************

---------------------------------
CARTESIAN COORDINATES (ANGSTROEM)
---------------------------------
  C      4.264294   -0.089356   -0.046740
  C      0.039858   -0.014240   -0.150042
  C      0.699300   -1.258295   -0.094411
  C      2.100316   -1.245146   -0.062230
  C      2.828460   -0.033154   -0.083076
  C      2.158391    1.217772   -0.137715
  C      0.753184    1.191443   -0.170923
  H      2.659673   -2.173254   -0.020289
  H      0.200137    2.124008   -0.213515
  C     -0.123624   -2.541720   -0.068077
  H     -0.789648   -2.541822   -0.942106
  H     -0.785513   -2.508338    0.808682
  C      0.663034   -3.861928   -0.043977
  H      1.320185   -3.918002   -0.922043
  H      1.316461   -3.888780    0.838180
  C     -0.254014   -5.097940   -0.023936
  H     -0.914094   -5.044986    0.852231
  H     -0.909149   -5.077334   -0.905137
  C      0.526248   -6.423843    0.003025
  H      1.166612   -6.485555    0.890124
  H      1.170617   -6.519369   -0.878153
  C      2.962635    2.509642   -0.157359
  H      3.613732    2.523374    0.726975
  H      3.647896    2.476755   -1.014992
  C      2.156084    3.816732   -0.207141
  H      1.517762    3.828317   -1.100663
  H      1.483853    3.872867    0.659453
  C      3.059389    5.063153   -0.221531
  H      3.704749    5.054040    0.667821
  H      3.731212    5.014967   -1.089777
  C      2.269907    6.383535   -0.262611
  H      1.599303    6.431391    0.606858
  H      1.623728    6.392014   -1.151635
  C      3.169729    7.632084   -0.278137
  H      3.836918    7.596307   -1.148878
  H      3.814741    7.633801    0.609880
  C      2.357702    8.958960   -0.316752
  H      1.714438    8.940884   -1.206718
  H      1.693041    8.979014    0.557274
  C      3.216719   10.187601   -0.333045
  H      3.585931   10.621822    0.591388
  H      3.609281   10.580765   -1.266199
  C      5.483466   -0.138630   -0.017030
  H      6.548053   -0.182846    0.010274
  H     -0.150361   -7.284567    0.018002
  H     -1.048241    0.011713   -0.177434

----------------------------
CARTESIAN COORDINATES (A.U.)
----------------------------
  NO LB      ZA    FRAG     MASS         X           Y           Z
   0 C     6.0000    0    12.011    8.058347   -0.168859   -0.088326
   1 C     6.0000    0    12.011    0.075321   -0.026910   -0.283538
   2 C     6.0000    0    12.011    1.321486   -2.377834   -0.178412
   3 C     6.0000    0    12.011    3.969021   -2.352986   -0.117597
   4 C     6.0000    0    12.011    5.345015   -0.062651   -0.156991
   5 C     6.0000    0    12.011    4.078768    2.301255   -0.260244
   6 C     6.0000    0    12.011    1.423311    2.251501   -0.322997
   7 H     1.0000    0     1.008    5.026054   -4.106854   -0.038341
   8 H     1.0000    0     1.008    0.378204    4.013793   -0.403485
   9 C     6.0000    0    12.011   -0.233615   -4.803154   -0.128647
  10 H     1.0000    0     1.008   -1.492218   -4.803347   -1.780322
  11 H     1.0000    0     1.008   -1.484404   -4.740072    1.528188
  12 C     6.0000    0    12.011    1.252952   -7.297986   -0.083104
  13 H     1.0000    0     1.008    2.494789   -7.403951   -1.742409
  14 H     1.0000    0     1.008    2.487750   -7.348730    1.583931
  15 C     6.0000    0    12.011   -0.480017   -9.633711   -0.045233
  16 H     1.0000    0     1.008   -1.727388   -9.533642    1.610484
  17 H     1.0000    0     1.008   -1.718043   -9.594770   -1.710461
  18 C     6.0000    0    12.011    0.994464  -12.139304    0.005716
  19 H     1.0000    0     1.008    2.204577  -12.255924    1.682091
  20 H     1.0000    0     1.008    2.212146  -12.319822   -1.659468
  21 C     6.0000    0    12.011    5.598569    4.742536   -0.297365
  22 H     1.0000    0     1.008    6.828963    4.768486    1.373783
  23 H     1.0000    0     1.008    6.893525    4.680389   -1.918057
  24 C     6.0000    0    12.011    4.074407    7.212577   -0.391440
  25 H     1.0000    0     1.008    2.868155    7.234471   -2.079952
  26 H     1.0000    0     1.008    2.804075    7.318658    1.246186
  27 C     6.0000    0    12.011    5.781407    9.567973   -0.418633
  28 H     1.0000    0     1.008    7.000960    9.550751    1.261998
  29 H     1.0000    0     1.008    7.050970    9.476914   -2.059379
  30 C     6.0000    0    12.011    4.289503   12.063133   -0.496263
  31 H     1.0000    0     1.008    3.022245   12.153567    1.146796
  32 H     1.0000    0     1.008    3.068402   12.079156   -2.176275
  33 C     6.0000    0    12.011    5.989920   14.422548   -0.525604
  34 H     1.0000    0     1.008    7.250725   14.354939   -2.171065
  35 H     1.0000    0     1.008    7.208816   14.425793    1.152507
  36 C     6.0000    0    12.011    4.455411   16.929981   -0.598575
  37 H     1.0000    0     1.008    3.239818   16.895823   -2.280367
  38 H     1.0000    0     1.008    3.199384   16.967877    1.053095
  39 C     6.0000    0    12.011    6.078718   19.251776   -0.629363
  40 H     1.0000    0     1.008    6.776427   20.072335    1.117562
  41 H     1.0000    0     1.008    6.820553   19.994747   -2.392769
  42 C     6.0000    0    12.011   10.362250   -0.261973   -0.032182
  43 H     1.0000    0     1.008   12.374027   -0.345528    0.019416
  44 H     1.0000    0     1.008   -0.284142  -13.765836    0.034020
  45 H     1.0000    0     1.008   -1.980889    0.022134   -0.335303

--------------------------------
INTERNAL COORDINATES (ANGSTROEM)
--------------------------------
 C      0   0   0     0.000000000000     0.00000000     0.00000000
 C      1   0   0     4.226365765456     0.00000000     0.00000000
 C      2   1   0     1.409124595939    61.02536835     0.00000000
 C      3   2   1     1.401446735932   117.41674061   359.96052724
 C      4   3   2     1.414056518152   121.49861107     0.06890016
 C      5   4   3     1.420138096433   120.83595336     0.00000000
 C      2   1   3     1.401049876232    60.44593266   179.96557039
 H      4   3   2     1.084445813321   120.56395906   180.06929901
 H      7   2   1     1.085058280558   118.73087474   179.99737568
 C      3   2   1     1.524819945098   119.42018301   179.79112055
 H     10   3   2     1.098869548713   108.26693491    55.46403961
 H     10   3   2     1.099052955579   108.25404635   301.40282399
 C     10   3   2     1.536997173919   116.55282616   178.47036441
 H     13  10   3     1.098177176915   109.73029717   301.87943732
 H     13  10   3     1.098129603476   109.76412077    58.66088370
 C     13  10   3     1.539189946012   112.64549755   180.22377943
 H     16  13  10     1.098262294054   109.25400024   302.13769940
 H     16  13  10     1.098244588202   109.26255940    58.05081082
 C     16  13  10     1.538686055569   112.95938969   180.11208190
 H     19  16  13     1.095819539211   111.04155281    59.78672442
 H     19  16  13     1.095815014824   111.05196844   300.09809135
 C      6   5   4     1.521881610463   119.92551783   179.91660277
 H     22   6   5     1.098253743490   108.27105091   303.65561041
 H     22   6   5     1.098270985686   108.32383850    57.04324032
 C     22   6   5     1.536713102395   116.42838026   180.41295030
 H     25  22   6     1.098166500282   109.90183046   301.44191829
 H     25  22   6     1.098194870056   109.82756769    58.41338647
 C     25  22   6     1.539394407226   112.39675533   179.91098612
 H     28  25  22     1.098871500381   109.28933665   302.38326948
 H     28  25  22     1.098871861085   109.30709182    58.29603098
 C     28  25  22     1.538953230859   113.19816977   180.35255910
 H     31  28  25     1.099079932001   109.22306595    58.00394796
 H     31  28  25     1.099082631311   109.25761671   302.09985078
 C     31  28  25     1.539088459144   113.35063332   180.04206563
 H     34  31  28     1.097547635440   109.69180506    58.45771205
 H     34  31  28     1.097551380224   109.67555495   301.77171923
 C     34  31  28     1.556110585134   112.76088558   180.11702382
 H     37  34  31     1.098250583648   108.16291921   302.30189622
 H     37  34  31     1.098225157567   108.15813029    57.74500644
 C     37  34  31     1.499244785764   113.58200285   180.02846258
 H     40  37  34     1.086020882012   120.87728888   274.58743291
 H     40  37  34     1.086029182046   120.87202481    85.34112312
 C      1   2   3     1.220529764616   178.70465634     2.04915531
 H     43   1   5     1.065854147935   179.90293768   274.74309254
 H     19  16  13     1.094928945594   111.36275823   179.93596075
 H      2   1   3     1.088753475885   179.65005097   184.94195295

---------------------------
INTERNAL COORDINATES (A.U.)
---------------------------
 C      0   0   0     0.000000000000     0.00000000     0.00000000
 C      1   0   0     7.986673838493     0.00000000     0.00000000
 C      2   1   0     2.662859574898    61.02536835     0.00000000
 C      3   2   1     2.648350522190   117.41674061   359.96052724
 C      4   3   2     2.672179557193   121.49861107     0.06890016
 C      5   4   3     2.683672074607   120.83595336     0.00000000
 C      2   1   3     2.647600566043    60.44593266   179.96557039
 H      4   3   2     2.049305594254   120.56395906   180.06929901
 H      7   2   1     2.050462989598   118.73087474   179.99737568
 C      3   2   1     2.881492099775   119.42018301   179.79112055
 H     10   3   2     2.076562503972   108.26693491    55.46403961
 H     10   3   2     2.076909092722   108.25404635   301.40282399
 C     10   3   2     2.904503727319   116.55282616   178.47036441
 H     13  10   3     2.075254110893   109.73029717   301.87943732
 H     13  10   3     2.075164210122   109.76412077    58.66088370
 C     13  10   3     2.908647466048   112.64549755   180.22377943
 H     16  13  10     2.075414958974   109.25400024   302.13769940
 H     16  13  10     2.075381499762   109.26255940    58.05081082
 C     16  13  10     2.907695251109   112.95938969   180.11208190
 H     19  16  13     2.070798821308   111.04155281    59.78672442
 H     19  16  13     2.070790271456   111.05196844   300.09809135
 C      6   5   4     2.875939452026   119.92551783   179.91660277
 H     22   6   5     2.075398800750   108.27105091   303.65561041
 H     22   6   5     2.075431383778   108.32383850    57.04324032
 C     22   6   5     2.903966909935   116.42838026   180.41295030
 H     25  22   6     2.075233934979   109.90183046   301.44191829
 H     25  22   6     2.075287546082   109.82756769    58.41338647
 C     25  22   6     2.909033841748   112.39675533   179.91098612
 H     28  25  22     2.076566192091   109.28933665   302.38326948
 H     28  25  22     2.076566873723   109.30709182    58.29603098
 C     28  25  22     2.908200139238   113.19816977   180.35255910
 H     31  28  25     2.076960070771   109.22306595    58.00394796
 H     31  28  25     2.076965171728   109.25761671   302.09985078
 C     31  28  25     2.908455683662   113.35063332   180.04206563
 H     34  31  28     2.074064449914   109.69180506    58.45771205
 H     34  31  28     2.074071526530   109.67555495   301.77171923
 C     34  31  28     2.940622839999   112.76088558   180.11702382
 H     37  34  31     2.075392829513   108.16291921   302.30189622
 H     37  34  31     2.075344781184   108.15813029    57.74500644
 C     37  34  31     2.833162052803   113.58200285   180.02846258
 H     40  37  34     2.052282042723   120.87728888   274.58743291
 H     40  37  34     2.052297727513   120.87202481    85.34112312
 C      1   2   3     2.306466993423   178.70465634     2.04915531
 H     43   1   5     2.014172438301   179.90293768   274.74309254
 H     19  16  13     2.069115843276   111.36275823   179.93596075
 H      2   1   3     2.057445896777   179.65005097   184.94195295

---------------------
BASIS SET INFORMATION
---------------------
There are 2 groups of distinct atoms

 Group   1 Type C   : 10s5p1d contracted to 6s2p1d pattern {511111/41/1}
 Group   2 Type H   : 6s1p contracted to 4s1p pattern {3111/1}

Atom   0C    basis set group =>   1
Atom   1C    basis set group =>   1
Atom   2C    basis set group =>   1
Atom   3C    basis set group =>   1
Atom   4C    basis set group =>   1
Atom   5C    basis set group =>   1
Atom   6C    basis set group =>   1
Atom   7H    basis set group =>   2
Atom   8H    basis set group =>   2
Atom   9C    basis set group =>   1
Atom  10H    basis set group =>   2
Atom  11H    basis set group =>   2
Atom  12C    basis set group =>   1
Atom  13H    basis set group =>   2
Atom  14H    basis set group =>   2
Atom  15C    basis set group =>   1
Atom  16H    basis set group =>   2
Atom  17H    basis set group =>   2
Atom  18C    basis set group =>   1
Atom  19H    basis set group =>   2
Atom  20H    basis set group =>   2
Atom  21C    basis set group =>   1
Atom  22H    basis set group =>   2
Atom  23H    basis set group =>   2
Atom  24C    basis set group =>   1
Atom  25H    basis set group =>   2
Atom  26H    basis set group =>   2
Atom  27C    basis set group =>   1
Atom  28H    basis set group =>   2
Atom  29H    basis set group =>   2
Atom  30C    basis set group =>   1
Atom  31H    basis set group =>   2
Atom  32H    basis set group =>   2
Atom  33C    basis set group =>   1
Atom  34H    basis set group =>   2
Atom  35H    basis set group =>   2
Atom  36C    basis set group =>   1
Atom  37H    basis set group =>   2
Atom  38H    basis set group =>   2
Atom  39C    basis set group =>   1
Atom  40H    basis set group =>   2
Atom  41H    basis set group =>   2
Atom  42C    basis set group =>   1
Atom  43H    basis set group =>   2
Atom  44H    basis set group =>   2
Atom  45H    basis set group =>   2
---------------------------------
AUXILIARY/J BASIS SET INFORMATION
---------------------------------
There are 2 groups of distinct atoms

 Group   1 Type C   : 17s13p12d2f contracted to 17s13p12d2f pattern {11111111111111111/1111111111111/111111111111/11}
 Group   2 Type H   : 15s6p1d contracted to 15s6p1d pattern {111111111111111/111111/1}

Atom   0C    basis set group =>   1
Atom   1C    basis set group =>   1
Atom   2C    basis set group =>   1
Atom   3C    basis set group =>   1
Atom   4C    basis set group =>   1
Atom   5C    basis set group =>   1
Atom   6C    basis set group =>   1
Atom   7H    basis set group =>   2
Atom   8H    basis set group =>   2
Atom   9C    basis set group =>   1
Atom  10H    basis set group =>   2
Atom  11H    basis set group =>   2
Atom  12C    basis set group =>   1
Atom  13H    basis set group =>   2
Atom  14H    basis set group =>   2
Atom  15C    basis set group =>   1
Atom  16H    basis set group =>   2
Atom  17H    basis set group =>   2
Atom  18C    basis set group =>   1
Atom  19H    basis set group =>   2
Atom  20H    basis set group =>   2
Atom  21C    basis set group =>   1
Atom  22H    basis set group =>   2
Atom  23H    basis set group =>   2
Atom  24C    basis set group =>   1
Atom  25H    basis set group =>   2
Atom  26H    basis set group =>   2
Atom  27C    basis set group =>   1
Atom  28H    basis set group =>   2
Atom  29H    basis set group =>   2
Atom  30C    basis set group =>   1
Atom  31H    basis set group =>   2
Atom  32H    basis set group =>   2
Atom  33C    basis set group =>   1
Atom  34H    basis set group =>   2
Atom  35H    basis set group =>   2
Atom  36C    basis set group =>   1
Atom  37H    basis set group =>   2
Atom  38H    basis set group =>   2
Atom  39C    basis set group =>   1
Atom  40H    basis set group =>   2
Atom  41H    basis set group =>   2
Atom  42C    basis set group =>   1
Atom  43H    basis set group =>   2
Atom  44H    basis set group =>   2
Atom  45H    basis set group =>   2
---------------------------------
AUXILIARY/C BASIS SET INFORMATION
---------------------------------
There are 2 groups of distinct atoms

 Group   1 Type C   : 17s13p12d2f contracted to 17s13p12d2f pattern {11111111111111111/1111111111111/111111111111/11}
 Group   2 Type H   : 15s6p1d contracted to 15s6p1d pattern {111111111111111/111111/1}

Atom   0C    basis set group =>   1
Atom   1C    basis set group =>   1
Atom   2C    basis set group =>   1
Atom   3C    basis set group =>   1
Atom   4C    basis set group =>   1
Atom   5C    basis set group =>   1
Atom   6C    basis set group =>   1
Atom   7H    basis set group =>   2
Atom   8H    basis set group =>   2
Atom   9C    basis set group =>   1
Atom  10H    basis set group =>   2
Atom  11H    basis set group =>   2
Atom  12C    basis set group =>   1
Atom  13H    basis set group =>   2
Atom  14H    basis set group =>   2
Atom  15C    basis set group =>   1
Atom  16H    basis set group =>   2
Atom  17H    basis set group =>   2
Atom  18C    basis set group =>   1
Atom  19H    basis set group =>   2
Atom  20H    basis set group =>   2
Atom  21C    basis set group =>   1
Atom  22H    basis set group =>   2
Atom  23H    basis set group =>   2
Atom  24C    basis set group =>   1
Atom  25H    basis set group =>   2
Atom  26H    basis set group =>   2
Atom  27C    basis set group =>   1
Atom  28H    basis set group =>   2
Atom  29H    basis set group =>   2
Atom  30C    basis set group =>   1
Atom  31H    basis set group =>   2
Atom  32H    basis set group =>   2
Atom  33C    basis set group =>   1
Atom  34H    basis set group =>   2
Atom  35H    basis set group =>   2
Atom  36C    basis set group =>   1
Atom  37H    basis set group =>   2
Atom  38H    basis set group =>   2
Atom  39C    basis set group =>   1
Atom  40H    basis set group =>   2
Atom  41H    basis set group =>   2
Atom  42C    basis set group =>   1
Atom  43H    basis set group =>   2
Atom  44H    basis set group =>   2
Atom  45H    basis set group =>   2
----------------------------------
AUXILIARY/JK BASIS SET INFORMATION
----------------------------------
There are 2 groups of distinct atoms

 Group   1 Type C   : 17s13p12d2f contracted to 17s13p12d2f pattern {11111111111111111/1111111111111/111111111111/11}
 Group   2 Type H   : 15s6p1d contracted to 15s6p1d pattern {111111111111111/111111/1}

Atom   0C    basis set group =>   1
Atom   1C    basis set group =>   1
Atom   2C    basis set group =>   1
Atom   3C    basis set group =>   1
Atom   4C    basis set group =>   1
Atom   5C    basis set group =>   1
Atom   6C    basis set group =>   1
Atom   7H    basis set group =>   2
Atom   8H    basis set group =>   2
Atom   9C    basis set group =>   1
Atom  10H    basis set group =>   2
Atom  11H    basis set group =>   2
Atom  12C    basis set group =>   1
Atom  13H    basis set group =>   2
Atom  14H    basis set group =>   2
Atom  15C    basis set group =>   1
Atom  16H    basis set group =>   2
Atom  17H    basis set group =>   2
Atom  18C    basis set group =>   1
Atom  19H    basis set group =>   2
Atom  20H    basis set group =>   2
Atom  21C    basis set group =>   1
Atom  22H    basis set group =>   2
Atom  23H    basis set group =>   2
Atom  24C    basis set group =>   1
Atom  25H    basis set group =>   2
Atom  26H    basis set group =>   2
Atom  27C    basis set group =>   1
Atom  28H    basis set group =>   2
Atom  29H    basis set group =>   2
Atom  30C    basis set group =>   1
Atom  31H    basis set group =>   2
Atom  32H    basis set group =>   2
Atom  33C    basis set group =>   1
Atom  34H    basis set group =>   2
Atom  35H    basis set group =>   2
Atom  36C    basis set group =>   1
Atom  37H    basis set group =>   2
Atom  38H    basis set group =>   2
Atom  39C    basis set group =>   1
Atom  40H    basis set group =>   2
Atom  41H    basis set group =>   2
Atom  42C    basis set group =>   1
Atom  43H    basis set group =>   2
Atom  44H    basis set group =>   2
Atom  45H    basis set group =>   2

Checking for AutoStart:
The File: EPRII.gbw exists
Trying to determine its content:
     ... Fine, the file contains calculation information
     ... Fine, the calculation information was read
     ... Fine, the file contains a basis set
     ... Fine, the basis set was read
     ... Fine, the file contains a geometry
     ... Fine, the geometry was read
     ... Fine, the file contains a set of orbitals
     ... Fine, the orbitals can be read
     => possible old guess file was deleted
     => GBW file was renamed to GES file
     => GES file is set as startup file
     => Guess is set to MORead
     ... now leaving AutoStart



           ************************************************************
           *        Program running with 16 parallel MPI-processes    *
           *              working on a common directory               *
           ************************************************************
------------------------------------------------------------------------------
                           ORCA GTO INTEGRAL CALCULATION
                           -- RI-GTO INTEGRALS CHOSEN --
------------------------------------------------------------------------------
------------------------------------------------------------------------------
                   ___                                                        
                  /   \      - P O W E R E D   B Y -                         
                 /     \                                                     
                 |  |  |   _    _      __       _____    __    __             
                 |  |  |  | |  | |    /  \     |  _  \  |  |  /  |          
                  \  \/   | |  | |   /    \    | | | |  |  | /  /          
                 / \  \   | |__| |  /  /\  \   | |_| |  |  |/  /          
                |  |  |   |  __  | /  /__\  \  |    /   |      \           
                |  |  |   | |  | | |   __   |  |    \   |  |\   \          
                \     /   | |  | | |  |  |  |  | |\  \  |  | \   \       
                 \___/    |_|  |_| |__|  |__|  |_| \__\ |__|  \__/        
                                                                              
                      - O R C A' S   B I G   F R I E N D -                    
                                      &                                       
                       - I N T E G R A L  F E E D E R -                       
                                                                              
 v1 FN, 2020, v2 2021                                                         
------------------------------------------------------------------------------


Reading SHARK input file EPRII.SHARKINP.tmp ... ok
----------------------
SHARK INTEGRAL PACKAGE
----------------------

Number of atoms                             ...     46
Number of basis functions                   ...    512
Number of shells                            ...    306
Maximum angular momentum                    ...      2
Integral batch strategy                     ... SHARK/LIBINT Hybrid
RI-J (if used) integral strategy            ... SPLIT-RIJ (Revised 2003 algorithm where possible)
Printlevel                                  ...      1
Contraction scheme used                     ... SEGMENTED contraction
Coulomb Range Separation                    ... NOT USED
Exchange Range Separation                   ... NOT USED
Finite Nucleus Model                        ... NOT USED
Auxiliary Coulomb fitting basis             ... AVAILABLE
   # of basis functions in Aux-J            ...   3496
   # of shells in Aux-J                     ...   1430
   Maximum angular momentum in Aux-J        ...      3
Auxiliary J/K fitting basis                 ... AVAILABLE
   # of basis functions in Aux-JK           ...   3496
   # of shells in Aux-JK                    ...   1430
   Maximum angular momentum in Aux-JK       ...      3
Auxiliary Correlation fitting basis         ... AVAILABLE
   # of basis functions in Aux-C            ...   3496
   # of shells in Aux-C                     ...   1430
   Maximum angular momentum in Aux-C        ...      3
Auxiliary 'external' fitting basis          ... NOT available
Integral threshold                          ...     1.000000e-10
Primitive cut-off                           ...     1.000000e-11
Primitive pair pre-selection threshold      ...     1.000000e-11

Calculating pre-screening integrals         ... done (  0.0 sec) Dimension = 306
Organizing shell pair data                  ... done (  0.1 sec)
Shell pair information
Total number of shell pairs                 ...     46971
Shell pairs after pre-screening             ...     23479
Total number of primitive shell pairs       ...    122156
Primitive shell pairs kept                  ...     43921
          la=0 lb=0:  11075 shell pairs
          la=1 lb=0:   8099 shell pairs
          la=1 lb=1:   1386 shell pairs
          la=2 lb=0:   2063 shell pairs
          la=2 lb=1:    744 shell pairs
          la=2 lb=2:    112 shell pairs

Calculating one electron integrals          ... done (  0.0 sec)
Calculating RI/J V-Matrix + Cholesky decomp.... done (  0.7 sec)
Calculating RI/JK V-Matrix + Cholesky decomp... done (  0.7 sec)
Calculating RI/C V-Matrix + Cholesky decomp.... done (  0.7 sec)
Calculating Nuclear repulsion               ... done (  0.0 sec) ENN=   1247.890156515890 Eh

SHARK setup successfully completed in   2.7 seconds

Maximum memory used throughout the entire GTOINT-calculation: 46.7 MB


           ************************************************************
           *        Program running with 16 parallel MPI-processes    *
           *              working on a common directory               *
           ************************************************************
-------------------------------------------------------------------------------
                                 ORCA SCF
-------------------------------------------------------------------------------

------------
SCF SETTINGS
------------
Hamiltonian:
 Density Functional     Method          .... DFT(GTOs)
 Exchange Functional    Exchange        .... B88
   X-Alpha parameter    XAlpha          ....  0.666667
   Becke's b parameter  XBeta           ....  0.004200
 Correlation Functional Correlation     .... LYP
 LDA part of GGA corr.  LDAOpt          .... VWN-5
 Gradients option       PostSCFGGA      .... off
 Hybrid DFT is turned on
   Fraction HF Exchange ScalHFX         ....  0.200000
   Scaling of DF-GGA-X  ScalDFX         ....  0.720000
   Scaling of DF-GGA-C  ScalDFC         ....  0.810000
   Scaling of DF-LDA-C  ScalLDAC        ....  1.000000
   Perturbative correction              ....  0.000000
   Density functional embedding theory  .... OFF
   NL short-range parameter             ....  4.800000
 RI-approximation to the Coulomb term is turned on
   Number of AuxJ basis functions       .... 3496
   RIJ-COSX (HFX calculated with COS-X)).... on


General Settings:
 Integral files         IntName         .... EPRII
 Hartree-Fock type      HFTyp           .... UHF
 Total Charge           Charge          ....    0
 Multiplicity           Mult            ....    2
 Number of Electrons    NEL             ....  141
 Basis Dimension        Dim             ....  512
 Nuclear Repulsion      ENuc            ....   1247.8901565159 Eh

Convergence Acceleration:
 DIIS                   CNVDIIS         .... on
   Start iteration      DIISMaxIt       ....    12
   Startup error        DIISStart       ....  0.200000
   # of expansion vecs  DIISMaxEq       ....     5
   Bias factor          DIISBfac        ....   1.050
   Max. coefficient     DIISMaxC        ....  10.000
 Trust-Rad. Augm. Hess. CNVTRAH         .... auto
   Auto Start mean grad. ratio tolernc. ....  1.125000
   Auto Start start iteration           ....     1
   Auto Start num. interpolation iter.  ....    10
   Max. Number of Micro iterations      ....    16
   Max. Number of Macro iterations      .... Maxiter - #DIIS iter
   Number of Davidson start vectors     ....     2
   Converg. threshold I  (grad. norm)   ....   5.000e-05
   Converg. threshold II (energy diff.) ....   1.000e-06
   Grad. Scal. Fac. for Micro threshold ....   0.100
   Minimum threshold for Micro iter.    ....   0.010
   NR start threshold (gradient norm)   ....   0.001
   Initial trust radius                 ....   0.400
   Minimum AH scaling param. (alpha)    ....   1.000
   Maximum AH scaling param. (alpha)    .... 1000.000
   Orbital update algorithm             .... Taylor
   White noise on init. David. guess    .... on
   Maximum white noise                  ....   0.010
   Quad. conv. algorithm                .... NR
 SOSCF                  CNVSOSCF        .... off
 Level Shifting         CNVShift        .... on
   Level shift para.    LevelShift      ....    0.2500
   Turn off err/grad.   ShiftErr        ....    0.0010
 Zerner damping         CNVZerner       .... off
 Static damping         CNVDamp         .... on
   Fraction old density DampFac         ....    0.7000
   Max. Damping (<1)    DampMax         ....    0.9800
   Min. Damping (>=0)   DampMin         ....    0.0000
   Turn off err/grad.   DampErr         ....    0.1000
 Fernandez-Rico         CNVRico         .... off

SCF Procedure:
 Maximum # iterations   MaxIter         ....   125
 SCF integral mode      SCFMode         .... Direct
   Integral package                     .... SHARK and LIBINT hybrid scheme
 Reset frequency        DirectResetFreq ....    20
 Integral Threshold     Thresh          ....  1.000e-10 Eh
 Primitive CutOff       TCut            ....  1.000e-11 Eh

Convergence Tolerance:
 Convergence Check Mode ConvCheckMode   .... Total+1el-Energy
 Convergence forced     ConvForced      .... 0
 Energy Change          TolE            ....  1.000e-06 Eh
 1-El. energy change                    ....  1.000e-03 Eh
 DIIS Error             TolErr          ....  1.000e-06


Diagonalization of the overlap matrix:
Smallest eigenvalue                        ... 1.544e-04
Time for diagonalization                   ...    0.053 sec
Threshold for overlap eigenvalues          ... 1.000e-08
Number of eigenvalues below threshold      ... 0
Time for construction of square roots      ...    0.052 sec
Total time needed                          ...    0.107 sec

---------------------
INITIAL GUESS: MOREAD
---------------------
Guess MOs are being read from file: EPRII.ges
Input geometry compatible with but different from current geometry
Input basis set matches current basis set (good)
MOs were renormalized
MOs were reorthogonalized (Cholesky)
                      ------------------
                      INITIAL GUESS DONE (   0.2 sec)
                      ------------------
-------------------
DFT GRID GENERATION
-------------------

General Integration Accuracy     IntAcc      ... 4.388
Radial Grid Type                 RadialGrid  ... OptM3 with GC (2021)
Angular Grid (max. ang.)         AngularGrid ... 4 (Lebedev-302)
Angular grid pruning method      GridPruning ... 4 (adaptive)
Weight generation scheme         WeightScheme... Becke
Basis function cutoff            BFCut       ... 1.0000e-10
Integration weight cutoff        WCut        ... 1.0000e-14
Angular grids for H and He will be reduced by one unit
Partially contracted basis set               ... off
Rotationally invariant grid construction     ... off

Total number of grid points                  ...   199588
Total number of batches                      ...     3139
Average number of points per batch           ...       63
Average number of grid points per atom       ...     4339
Time for grid setup =    1.089 sec

--------------------
COSX GRID GENERATION
--------------------

GRIDX 1
-------
General Integration Accuracy     IntAcc      ... 3.816
Radial Grid Type                 RadialGrid  ... OptM3 with GC (2021)
Angular Grid (max. ang.)         AngularGrid ... 1 (Lebedev-50)
Angular grid pruning method      GridPruning ... 4 (adaptive)
Weight generation scheme         WeightScheme... Becke
Basis function cutoff            BFCut       ... 1.0000e-10
Integration weight cutoff        WCut        ... 1.0000e-14
Angular grids for H and He will be reduced by one unit
Partially contracted basis set               ... on
Rotationally invariant grid construction     ... off

Total number of grid points                  ...    25472
Total number of batches                      ...      425
Average number of points per batch           ...       59
Average number of grid points per atom       ...      554
UseSFitting                                  ... on

GRIDX 2
-------
General Integration Accuracy     IntAcc      ... 4.020
Radial Grid Type                 RadialGrid  ... OptM3 with GC (2021)
Angular Grid (max. ang.)         AngularGrid ... 2 (Lebedev-110)
Angular grid pruning method      GridPruning ... 4 (adaptive)
Weight generation scheme         WeightScheme... Becke
Basis function cutoff            BFCut       ... 1.0000e-10
Integration weight cutoff        WCut        ... 1.0000e-14
Angular grids for H and He will be reduced by one unit
Partially contracted basis set               ... on
Rotationally invariant grid construction     ... off

Total number of grid points                  ...    53475
Total number of batches                      ...      859
Average number of points per batch           ...       62
Average number of grid points per atom       ...     1162
UseSFitting                                  ... on

GRIDX 3
-------
General Integration Accuracy     IntAcc      ... 4.338
Radial Grid Type                 RadialGrid  ... OptM3 with GC (2021)
Angular Grid (max. ang.)         AngularGrid ... 3 (Lebedev-194)
Angular grid pruning method      GridPruning ... 4 (adaptive)
Weight generation scheme         WeightScheme... Becke
Basis function cutoff            BFCut       ... 1.0000e-10
Integration weight cutoff        WCut        ... 1.0000e-14
Angular grids for H and He will be reduced by one unit
Partially contracted basis set               ... on
Rotationally invariant grid construction     ... off

Total number of grid points                  ...   116762
Total number of batches                      ...     1850
Average number of points per batch           ...       63
Average number of grid points per atom       ...     2538
UseSFitting                                  ... on

Time for X-Grid setup             =    2.021 sec

--------------
SCF ITERATIONS
--------------
ITER       Energy         Delta-E        Max-DP      RMS-DP      [F,P]     Damp
               ***  Starting incremental Fock matrix formation  ***
  0   -739.7697264610   0.000000000000 0.00192903  0.00002679  0.0022639 0.7000
  1   -739.7699070355  -0.000180574483 0.00154556  0.00002295  0.0016322 0.7000
                               ***Turning on DIIS***
  2   -739.7700362172  -0.000129181733 0.00404040  0.00005636  0.0011562 0.0000
  3   -739.7703364835  -0.000300266340 0.00096861  0.00001109  0.0003329 0.0000
               *** Restarting incremental Fock matrix formation ***
                                   *** Resetting DIIS ***
  4   -739.7703294027   0.000007080895 0.00091209  0.00001095  0.0003848 0.0000
  5   -739.7703255861   0.000003816520 0.00047052  0.00000602  0.0004537 0.0000
  6   -739.7703363553  -0.000010769147 0.00023584  0.00000139  0.0001897 0.0000
  7   -739.7703361204   0.000000234863 0.00012500  0.00000079  0.0002051 0.0000
                 **** Energy Check signals convergence ****

               *****************************************************
               *                     SUCCESS                       *
               *           SCF CONVERGED AFTER   8 CYCLES          *
               *****************************************************

Old exchange energy                            =    -21.589408698 Eh
New exchange energy                            =    -21.589328279 Eh
Exchange energy change after final integration =      0.000080419 Eh
Total energy after final integration           =   -739.770256052 Eh
Final COS-X integration done in                =     6.838 sec

----------------
TOTAL SCF ENERGY
----------------

Total Energy       :         -739.77025605 Eh          -20130.17207 eV

Components:
Nuclear Repulsion  :         1247.89015652 Eh           33956.81749 eV
Electronic Energy  :        -1987.66041257 Eh          -54086.98956 eV
One Electron Energy:        -3473.60068305 Eh          -94521.47996 eV
Two Electron Energy:         1485.94027048 Eh           40434.49041 eV
Max COSX asymmetry :            0.00000291 Eh               0.00008 eV

Virial components:
Potential Energy   :        -1473.68554437 Eh          -40101.02236 eV
Kinetic Energy     :          733.91528832 Eh           19970.85029 eV
Virial Ratio       :            2.00797772


DFT components:
N(Alpha)           :       71.000118140452 electrons
N(Beta)            :       70.000129102594 electrons
N(Total)           :      141.000247243045 electrons
E(X)               :      -85.570749775036 Eh       
E(C)               :       -5.417037358803 Eh       
E(XC)              :      -90.987787133839 Eh       
DFET-embed. en.    :        0.000000000000 Eh       

---------------
SCF CONVERGENCE
---------------

  Last Energy change         ...   -3.5031e-07  Tolerance :   1.0000e-06
  Last MAX-Density change    ...    0.0000e+00  Tolerance :   1.0000e-05
  Last RMS-Density change    ...    0.0000e+00  Tolerance :   1.0000e-06
  Last DIIS Error            ...    1.4380e-05  Tolerance :   1.0000e-06

             **** THE GBW FILE WAS UPDATED (EPRII.gbw) ****
             **** DENSITY EPRII.scfp WAS UPDATED ****
             **** ENERGY FILE WAS UPDATED (EPRII.en.tmp) ****
----------------------
UHF SPIN CONTAMINATION
----------------------

Warning: in a DFT calculation there is little theoretical justification to 
         calculate <S**2> as in Hartree-Fock theory. We will do it anyways
         but you should keep in mind that the values have only limited relevance

Expectation value of <S**2>     :     0.753806
Ideal value S*(S+1) for S=0.5   :     0.750000
Deviation                       :     0.003806

             **** THE GBW FILE WAS UPDATED (EPRII.gbw) ****
             **** DENSITY EPRII.scfp WAS UPDATED ****
----------------
ORBITAL ENERGIES
----------------
                 SPIN UP ORBITALS
  NO   OCC          E(Eh)            E(eV) 
   0   1.0000     -10.216700      -278.0105 
   1   1.0000     -10.206184      -277.7244 
   2   1.0000     -10.202681      -277.6291 
   3   1.0000     -10.202077      -277.6126 
   4   1.0000     -10.194076      -277.3949 
   5   1.0000     -10.193231      -277.3719 
   6   1.0000     -10.192413      -277.3497 
   7   1.0000     -10.192014      -277.3388 
   8   1.0000     -10.187904      -277.2270 
   9   1.0000     -10.187075      -277.2044 
  10   1.0000     -10.184140      -277.1245 
  11   1.0000     -10.183622      -277.1104 
  12   1.0000     -10.181501      -277.0527 
  13   1.0000     -10.180994      -277.0389 
  14   1.0000     -10.180338      -277.0211 
  15   1.0000     -10.180024      -277.0125 
  16   1.0000     -10.178203      -276.9630 
  17   1.0000     -10.177981      -276.9569 
  18   1.0000     -10.171107      -276.7699 
  19   1.0000      -0.861225       -23.4351 
  20   1.0000      -0.809993       -22.0410 
  21   1.0000      -0.800684       -21.7877 
  22   1.0000      -0.781614       -21.2688 
  23   1.0000      -0.775521       -21.1030 
  24   1.0000      -0.756210       -20.5775 
  25   1.0000      -0.729880       -19.8610 
  26   1.0000      -0.721823       -19.6418 
  27   1.0000      -0.702405       -19.1134 
  28   1.0000      -0.666509       -18.1366 
  29   1.0000      -0.637034       -17.3346 
  30   1.0000      -0.617860       -16.8128 
  31   1.0000      -0.608677       -16.5629 
  32   1.0000      -0.583650       -15.8819 
  33   1.0000      -0.577285       -15.7087 
  34   1.0000      -0.571727       -15.5575 
  35   1.0000      -0.560084       -15.2407 
  36   1.0000      -0.527583       -14.3563 
  37   1.0000      -0.493529       -13.4296 
  38   1.0000      -0.480235       -13.0678 
  39   1.0000      -0.470808       -12.8113 
  40   1.0000      -0.466928       -12.7057 
  41   1.0000      -0.459630       -12.5072 
  42   1.0000      -0.459541       -12.5047 
  43   1.0000      -0.427231       -11.6255 
  44   1.0000      -0.425325       -11.5737 
  45   1.0000      -0.420146       -11.4327 
  46   1.0000      -0.419595       -11.4178 
  47   1.0000      -0.416811       -11.3420 
  48   1.0000      -0.410141       -11.1605 
  49   1.0000      -0.395928       -10.7737 
  50   1.0000      -0.389977       -10.6118 
  51   1.0000      -0.379083       -10.3154 
  52   1.0000      -0.369134       -10.0446 
  53   1.0000      -0.366726        -9.9791 
  54   1.0000      -0.356619        -9.7041 
  55   1.0000      -0.354352        -9.6424 
  56   1.0000      -0.352814        -9.6006 
  57   1.0000      -0.339557        -9.2398 
  58   1.0000      -0.336273        -9.1504 
  59   1.0000      -0.327517        -8.9122 
  60   1.0000      -0.325965        -8.8700 
  61   1.0000      -0.324379        -8.8268 
  62   1.0000      -0.323044        -8.7905 
  63   1.0000      -0.319999        -8.7076 
  64   1.0000      -0.319684        -8.6991 
  65   1.0000      -0.311329        -8.4717 
  66   1.0000      -0.298584        -8.1249 
  67   1.0000      -0.271451        -7.3866 
  68   1.0000      -0.240863        -6.5542 
  69   1.0000      -0.223125        -6.0715 
  70   1.0000      -0.198296        -5.3959 
  71   0.0000      -0.033204        -0.9035 
  72   0.0000      -0.000433        -0.0118 
  73   0.0000       0.020271         0.5516 
  74   0.0000       0.023887         0.6500 
  75   0.0000       0.025248         0.6870 
  76   0.0000       0.030311         0.8248 
  77   0.0000       0.032739         0.8909 
  78   0.0000       0.039431         1.0730 
  79   0.0000       0.043721         1.1897 
  80   0.0000       0.044613         1.2140 
  81   0.0000       0.051086         1.3901 
  82   0.0000       0.056844         1.5468 
  83   0.0000       0.063561         1.7296 
  84   0.0000       0.076798         2.0898 
  85   0.0000       0.082199         2.2367 
  86   0.0000       0.085095         2.3155 
  87   0.0000       0.089714         2.4412 
  88   0.0000       0.111386         3.0310 
  89   0.0000       0.116866         3.1801 
  90   0.0000       0.120674         3.2837 
  91   0.0000       0.146648         3.9905 
  92   0.0000       0.148929         4.0526 
  93   0.0000       0.155284         4.2255 
  94   0.0000       0.159891         4.3508 
  95   0.0000       0.165721         4.5095 
  96   0.0000       0.171122         4.6565 
  97   0.0000       0.172875         4.7042 
  98   0.0000       0.179522         4.8850 
  99   0.0000       0.188483         5.1289 
 100   0.0000       0.189270         5.1503 
 101   0.0000       0.192827         5.2471 
 102   0.0000       0.197073         5.3626 
 103   0.0000       0.197523         5.3749 
 104   0.0000       0.199957         5.4411 
 105   0.0000       0.206333         5.6146 
 106   0.0000       0.210309         5.7228 
 107   0.0000       0.216770         5.8986 
 108   0.0000       0.217745         5.9252 
 109   0.0000       0.219796         5.9810 
 110   0.0000       0.224044         6.0966 
 111   0.0000       0.232548         6.3280 
 112   0.0000       0.234343         6.3768 
 113   0.0000       0.239220         6.5095 
 114   0.0000       0.249160         6.7800 
 115   0.0000       0.250840         6.8257 
 116   0.0000       0.252365         6.8672 
 117   0.0000       0.254466         6.9244 
 118   0.0000       0.255291         6.9468 
 119   0.0000       0.257968         7.0197 
 120   0.0000       0.268722         7.3123 
 121   0.0000       0.274537         7.4705 
 122   0.0000       0.278232         7.5711 
 123   0.0000       0.278807         7.5867 
 124   0.0000       0.281135         7.6501 
 125   0.0000       0.284632         7.7452 
 126   0.0000       0.288965         7.8631 
 127   0.0000       0.293476         7.9859 
 128   0.0000       0.296006         8.0547 
 129   0.0000       0.299540         8.1509 
 130   0.0000       0.306977         8.3533 
 131   0.0000       0.308927         8.4063 
 132   0.0000       0.310094         8.4381 
 133   0.0000       0.310858         8.4589 
 134   0.0000       0.318179         8.6581 
 135   0.0000       0.320263         8.7148 
 136   0.0000       0.321301         8.7430 
 137   0.0000       0.323724         8.8090 
 138   0.0000       0.328424         8.9369 
 139   0.0000       0.331273         9.0144 
 140   0.0000       0.340969         9.2782 
 141   0.0000       0.345469         9.4007 
 142   0.0000       0.351067         9.5530 
 143   0.0000       0.355816         9.6822 
 144   0.0000       0.366029         9.9601 
 145   0.0000       0.369941        10.0666 
 146   0.0000       0.371753        10.1159 
 147   0.0000       0.374737        10.1971 
 148   0.0000       0.380598        10.3566 
 149   0.0000       0.383572        10.4375 
 150   0.0000       0.390533        10.6269 
 151   0.0000       0.400424        10.8961 
 152   0.0000       0.402138        10.9427 
 153   0.0000       0.409066        11.1313 
 154   0.0000       0.416281        11.3276 
 155   0.0000       0.421225        11.4621 
 156   0.0000       0.425060        11.5665 
 157   0.0000       0.426180        11.5970 
 158   0.0000       0.430357        11.7106 
 159   0.0000       0.441703        12.0194 
 160   0.0000       0.449913        12.2427 
 161   0.0000       0.455723        12.4009 
 162   0.0000       0.456697        12.4274 
 163   0.0000       0.465251        12.6601 
 164   0.0000       0.475716        12.9449 
 165   0.0000       0.476152        12.9568 
 166   0.0000       0.480003        13.0615 
 167   0.0000       0.484577        13.1860 
 168   0.0000       0.489201        13.3118 
 169   0.0000       0.504384        13.7250 
 170   0.0000       0.508703        13.8425 
 171   0.0000       0.511607        13.9215 
 172   0.0000       0.511870        13.9287 
 173   0.0000       0.515638        14.0312 
 174   0.0000       0.529736        14.4148 
 175   0.0000       0.534522        14.5451 
 176   0.0000       0.544881        14.8270 
 177   0.0000       0.546005        14.8575 
 178   0.0000       0.552591        15.0368 
 179   0.0000       0.560019        15.2389 
 180   0.0000       0.572533        15.5794 
 181   0.0000       0.582881        15.8610 
 182   0.0000       0.587400        15.9840 
 183   0.0000       0.588722        16.0199 
 184   0.0000       0.597605        16.2617 
 185   0.0000       0.605897        16.4873 
 186   0.0000       0.621460        16.9108 
 187   0.0000       0.644319        17.5328 
 188   0.0000       0.654834        17.8189 
 189   0.0000       0.673563        18.3286 
 190   0.0000       0.683796        18.6070 
 191   0.0000       0.692964        18.8565 
 192   0.0000       0.714550        19.4439 
 193   0.0000       0.747774        20.3480 
 194   0.0000       0.759952        20.6794 
 195   0.0000       0.776604        21.1325 
 196   0.0000       0.777255        21.1502 
 197   0.0000       0.782877        21.3032 
 198   0.0000       0.814369        22.1601 
 199   0.0000       0.817007        22.2319 
 200   0.0000       0.839251        22.8372 
 201   0.0000       0.846000        23.0208 
 202   0.0000       0.849421        23.1139 
 203   0.0000       0.850429        23.1414 
 204   0.0000       0.859304        23.3828 
 205   0.0000       0.866043        23.5662 
 206   0.0000       0.871359        23.7109 
 207   0.0000       0.881341        23.9825 
 208   0.0000       0.886239        24.1158 
 209   0.0000       0.891597        24.2616 
 210   0.0000       0.901013        24.5178 
 211   0.0000       0.902216        24.5505 
 212   0.0000       0.911869        24.8132 
 213   0.0000       0.919683        25.0258 
 214   0.0000       0.921305        25.0700 
 215   0.0000       0.926324        25.2065 
 216   0.0000       0.928009        25.2524 
 217   0.0000       0.929386        25.2899 
 218   0.0000       0.936009        25.4701 
 219   0.0000       0.943671        25.6786 
 220   0.0000       0.945908        25.7395 
 221   0.0000       0.951494        25.8915 
 222   0.0000       0.954575        25.9753 
 223   0.0000       0.965407        26.2701 
 224   0.0000       0.970237        26.4015 
 225   0.0000       0.977942        26.6111 
 226   0.0000       0.988806        26.9068 
 227   0.0000       0.991439        26.9784 
 228   0.0000       0.996000        27.1025 
 229   0.0000       0.996548        27.1175 
 230   0.0000       0.999137        27.1879 
 231   0.0000       1.000478        27.2244 
 232   0.0000       1.015495        27.6330 
 233   0.0000       1.019188        27.7335 
 234   0.0000       1.030609        28.0443 
 235   0.0000       1.035414        28.1751 
 236   0.0000       1.035588        28.1798 
 237   0.0000       1.038762        28.2662 
 238   0.0000       1.050652        28.5897 
 239   0.0000       1.055769        28.7289 
 240   0.0000       1.062099        28.9012 
 241   0.0000       1.079536        29.3757 
 242   0.0000       1.087594        29.5949 
 243   0.0000       1.088315        29.6146 
 244   0.0000       1.108418        30.1616 
 245   0.0000       1.110242        30.2112 
 246   0.0000       1.115159        30.3450 
 247   0.0000       1.126054        30.6415 
 248   0.0000       1.135771        30.9059 
 249   0.0000       1.158012        31.5111 
 250   0.0000       1.160813        31.5873 
 251   0.0000       1.177196        32.0331 
 252   0.0000       1.179939        32.1078 
 253   0.0000       1.183417        32.2024 
 254   0.0000       1.192493        32.4494 
 255   0.0000       1.194005        32.4905 
 256   0.0000       1.201449        32.6931 
 257   0.0000       1.205038        32.7907 
 258   0.0000       1.208872        32.8951 
 259   0.0000       1.211390        32.9636 
 260   0.0000       1.220135        33.2015 
 261   0.0000       1.239969        33.7413 
 262   0.0000       1.248104        33.9626 
 263   0.0000       1.268461        34.5166 
 264   0.0000       1.278483        34.7893 
 265   0.0000       1.284536        34.9540 
 266   0.0000       1.291604        35.1463 
 267   0.0000       1.298408        35.3315 
 268   0.0000       1.301303        35.4102 
 269   0.0000       1.321871        35.9699 
 270   0.0000       1.339166        36.4406 
 271   0.0000       1.347615        36.6705 
 272   0.0000       1.364143        37.1202 
 273   0.0000       1.370439        37.2915 
 274   0.0000       1.381870        37.6026 
 275   0.0000       1.382247        37.6129 
 276   0.0000       1.391725        37.8708 
 277   0.0000       1.392606        37.8947 
 278   0.0000       1.407238        38.2929 
 279   0.0000       1.410039        38.3691 
 280   0.0000       1.428002        38.8579 
 281   0.0000       1.434031        39.0220 
 282   0.0000       1.446575        39.3633 
 283   0.0000       1.451619        39.5006 
 284   0.0000       1.463360        39.8201 
 285   0.0000       1.481666        40.3182 
 286   0.0000       1.489260        40.5248 
 287   0.0000       1.500356        40.8268 
 288   0.0000       1.506669        40.9985 
 289   0.0000       1.509842        41.0849 
 290   0.0000       1.522164        41.4202 
 291   0.0000       1.526247        41.5313 
 292   0.0000       1.539961        41.9045 
 293   0.0000       1.547536        42.1106 
 294   0.0000       1.554381        42.2969 
 295   0.0000       1.556365        42.3508 
 296   0.0000       1.572086        42.7786 
 297   0.0000       1.581240        43.0277 
 298   0.0000       1.585269        43.1374 
 299   0.0000       1.587031        43.1853 
 300   0.0000       1.589537        43.2535 
 301   0.0000       1.595507        43.4159 
 302   0.0000       1.604541        43.6618 
 303   0.0000       1.605468        43.6870 
 304   0.0000       1.606902        43.7260 
 305   0.0000       1.609766        43.8040 
 306   0.0000       1.616517        43.9877 
 307   0.0000       1.619045        44.0565 
 308   0.0000       1.627506        44.2867 
 309   0.0000       1.641917        44.6788 
 310   0.0000       1.653321        44.9892 
 311   0.0000       1.659933        45.1691 
 312   0.0000       1.672818        45.5197 
 313   0.0000       1.679703        45.7070 
 314   0.0000       1.681216        45.7482 
 315   0.0000       1.692211        46.0474 
 316   0.0000       1.698930        46.2302 
 317   0.0000       1.706192        46.4278 
 318   0.0000       1.709860        46.5276 
 319   0.0000       1.719408        46.7875 
 320   0.0000       1.720159        46.8079 
 321   0.0000       1.729381        47.0589 
 322   0.0000       1.730528        47.0901 
 323   0.0000       1.746661        47.5291 
 324   0.0000       1.752892        47.6986 
 325   0.0000       1.758610        47.8542 
 326   0.0000       1.759541        47.8795 
 327   0.0000       1.768687        48.1284 
 328   0.0000       1.769906        48.1616 
 329   0.0000       1.779125        48.4125 
 330   0.0000       1.780786        48.4577 
 331   0.0000       1.787413        48.6380 
 332   0.0000       1.795293        48.8524 
 333   0.0000       1.802751        49.0553 
 334   0.0000       1.813067        49.3361 
 335   0.0000       1.820053        49.5261 
 336   0.0000       1.832088        49.8536 
 337   0.0000       1.832351        49.8608 
 338   0.0000       1.834588        49.9217 
 339   0.0000       1.855094        50.4797 
 340   0.0000       1.874053        50.9956 
 341   0.0000       1.901668        51.7470 
 342   0.0000       1.904044        51.8117 
 343   0.0000       1.922057        52.3018 
 344   0.0000       1.925930        52.4072 
 345   0.0000       1.935292        52.6620 
 346   0.0000       1.944623        52.9159 
 347   0.0000       1.956375        53.2357 
 348   0.0000       1.960739        53.3544 
 349   0.0000       1.967043        53.5259 
 350   0.0000       1.988255        54.1032 
 351   0.0000       2.008678        54.6589 
 352   0.0000       2.016606        54.8746 
 353   0.0000       2.043083        55.5951 
 354   0.0000       2.056085        55.9489 
 355   0.0000       2.069894        56.3247 
 356   0.0000       2.072963        56.4082 
 357   0.0000       2.081902        56.6514 
 358   0.0000       2.099068        57.1186 
 359   0.0000       2.112870        57.4941 
 360   0.0000       2.129523        57.9473 
 361   0.0000       2.157432        58.7067 
 362   0.0000       2.157911        58.7198 
 363   0.0000       2.194145        59.7057 
 364   0.0000       2.195116        59.7322 
 365   0.0000       2.203351        59.9562 
 366   0.0000       2.219735        60.4021 
 367   0.0000       2.230672        60.6997 
 368   0.0000       2.236144        60.8486 
 369   0.0000       2.244462        61.0749 
 370   0.0000       2.263879        61.6033 
 371   0.0000       2.269884        61.7667 
 372   0.0000       2.270911        61.7946 
 373   0.0000       2.284288        62.1586 
 374   0.0000       2.297975        62.5311 
 375   0.0000       2.312086        62.9151 
 376   0.0000       2.315356        63.0040 
 377   0.0000       2.326577        63.3094 
 378   0.0000       2.327530        63.3353 
 379   0.0000       2.334021        63.5119 
 380   0.0000       2.339624        63.6644 
 381   0.0000       2.356881        64.1340 
 382   0.0000       2.365248        64.3617 
 383   0.0000       2.376577        64.6699 
 384   0.0000       2.384708        64.8912 
 385   0.0000       2.413895        65.6854 
 386   0.0000       2.423064        65.9349 
 387   0.0000       2.432908        66.2028 
 388   0.0000       2.448197        66.6188 
 389   0.0000       2.450137        66.6716 
 390   0.0000       2.455122        66.8073 
 391   0.0000       2.459421        66.9243 
 392   0.0000       2.462604        67.0109 
 393   0.0000       2.470710        67.2314 
 394   0.0000       2.483205        67.5715 
 395   0.0000       2.489488        67.7424 
 396   0.0000       2.503548        68.1250 
 397   0.0000       2.508076        68.2482 
 398   0.0000       2.511236        68.3342 
 399   0.0000       2.526951        68.7618 
 400   0.0000       2.531242        68.8786 
 401   0.0000       2.540628        69.1340 
 402   0.0000       2.562893        69.7399 
 403   0.0000       2.569329        69.9150 
 404   0.0000       2.576433        70.1083 
 405   0.0000       2.590355        70.4871 
 406   0.0000       2.605661        70.9036 
 407   0.0000       2.618050        71.2408 
 408   0.0000       2.620243        71.3004 
 409   0.0000       2.625750        71.4503 
 410   0.0000       2.641362        71.8751 
 411   0.0000       2.658832        72.3505 
 412   0.0000       2.692705        73.2722 
 413   0.0000       2.699809        73.4655 
 414   0.0000       2.724803        74.1457 
 415   0.0000       2.779133        75.6241 
 416   0.0000       2.860181        77.8295 
 417   0.0000       2.908448        79.1429 
 418   0.0000       2.965642        80.6992 
 419   0.0000       3.282512        89.3217 
 420   0.0000       4.989230       135.7638 
 421   0.0000       4.999601       136.0461 
 422   0.0000       5.011267       136.3635 
 423   0.0000       5.013818       136.4329 
 424   0.0000       5.016586       136.5082 
 425   0.0000       5.023790       136.7043 
 426   0.0000       5.028240       136.8254 
 427   0.0000       5.035079       137.0115 
 428   0.0000       5.038523       137.1052 
 429   0.0000       5.049717       137.4098 
 430   0.0000       5.059178       137.6672 
 431   0.0000       5.061257       137.7238 
 432   0.0000       5.082489       138.3015 
 433   0.0000       5.141225       139.8999 
 434   0.0000       5.163783       140.5137 
 435   0.0000       5.209743       141.7643 
 436   0.0000       5.230035       142.3165 
 437   0.0000       5.240350       142.5972 
 438   0.0000       5.253379       142.9517 
 439   0.0000       5.256336       143.0322 
 440   0.0000       5.280271       143.6835 
 441   0.0000       5.303091       144.3044 
 442   0.0000       5.307900       144.4353 
 443   0.0000       5.312161       144.5513 
 444   0.0000       5.327966       144.9813 
 445   0.0000       5.343996       145.4175 
 446   0.0000       5.362498       145.9210 
 447   0.0000       5.386505       146.5743 
 448   0.0000       5.401541       146.9834 
 449   0.0000       5.419063       147.4602 
 450   0.0000       5.436908       147.9458 
 451   0.0000       5.464335       148.6921 
 452   0.0000       5.514663       150.0616 
 453   0.0000       5.515504       150.0845 
 454   0.0000       5.580243       151.8461 
 455   0.0000       5.602126       152.4416 
 456   0.0000       5.623257       153.0166 
 457   0.0000       5.666375       154.1899 
 458   0.0000       5.722765       155.7244 
 459   0.0000       5.740186       156.1984 
 460   0.0000       5.786653       157.4628 
 461   0.0000       5.818738       158.3359 
 462   0.0000       5.860781       159.4800 
 463   0.0000       5.901581       160.5902 
 464   0.0000       6.058370       164.8566 
 465   0.0000       6.325128       172.1155 
 466   0.0000      29.615376       805.8753 
 467   0.0000      29.719642       808.7126 
 468   0.0000      29.807061       811.0914 
 469   0.0000      29.839862       811.9839 
 470   0.0000      29.880441       813.0881 
 471   0.0000      29.931897       814.4883 
 472   0.0000      29.964494       815.3753 
 473   0.0000      29.997248       816.2666 
 474   0.0000      30.018912       816.8561 
 475   0.0000      30.074756       818.3757 
 476   0.0000      30.105448       819.2109 
 477   0.0000      30.123807       819.7105 
 478   0.0000      30.147207       820.3472 
 479   0.0000      30.198412       821.7406 
 480   0.0000      30.245320       823.0170 
 481   0.0000      30.271985       823.7426 
 482   0.0000      30.317515       824.9815 
 483   0.0000      30.368424       826.3668 
 484   0.0000      30.549310       831.2890 
 485   0.0000      36.616411       996.3832 
 486   0.0000      36.625446       996.6291 
 487   0.0000      36.630265       996.7602 
 488   0.0000      36.637036       996.9444 
 489   0.0000      36.639325       997.0067 
 490   0.0000      36.646088       997.1908 
 491   0.0000      36.653655       997.3967 
 492   0.0000      36.663352       997.6605 
 493   0.0000      36.674139       997.9541 
 494   0.0000      36.684263       998.2295 
 495   0.0000      36.688985       998.3580 
 496   0.0000      36.708001       998.8755 
 497   0.0000      36.766599      1000.4700 
 498   0.0000      36.790910      1001.1316 
 499   0.0000      36.828382      1002.1512 
 500   0.0000      36.842129      1002.5253 
 501   0.0000      36.864959      1003.1465 
 502   0.0000      36.872387      1003.3487 
 503   0.0000      36.877638      1003.4915 
 504   0.0000      36.883391      1003.6481 
 505   0.0000      36.891020      1003.8557 
 506   0.0000      36.925751      1004.8008 
 507   0.0000      36.937205      1005.1124 
 508   0.0000      36.966409      1005.9071 
 509   0.0000      36.977350      1006.2048 
 510   0.0000      36.998123      1006.7701 
 511   0.0000      37.021944      1007.4183 

                 SPIN DOWN ORBITALS
  NO   OCC          E(Eh)            E(eV) 
   0   1.0000     -10.216699      -278.0105 
   1   1.0000     -10.206181      -277.7243 
   2   1.0000     -10.202681      -277.6291 
   3   1.0000     -10.202077      -277.6126 
   4   1.0000     -10.194075      -277.3949 
   5   1.0000     -10.193231      -277.3719 
   6   1.0000     -10.192413      -277.3497 
   7   1.0000     -10.192014      -277.3388 
   8   1.0000     -10.187904      -277.2270 
   9   1.0000     -10.184993      -277.1477 
  10   1.0000     -10.183615      -277.1103 
  11   1.0000     -10.181501      -277.0527 
  12   1.0000     -10.180994      -277.0389 
  13   1.0000     -10.179988      -277.0116 
  14   1.0000     -10.178790      -276.9790 
  15   1.0000     -10.178135      -276.9611 
  16   1.0000     -10.177824      -276.9527 
  17   1.0000     -10.173305      -276.8297 
  18   1.0000     -10.171107      -276.7699 
  19   1.0000      -0.861222       -23.4350 
  20   1.0000      -0.809577       -22.0297 
  21   1.0000      -0.799050       -21.7433 
  22   1.0000      -0.779331       -21.2067 
  23   1.0000      -0.774531       -21.0761 
  24   1.0000      -0.753360       -20.5000 
  25   1.0000      -0.726112       -19.7585 
  26   1.0000      -0.721813       -19.6415 
  27   1.0000      -0.698492       -19.0069 
  28   1.0000      -0.660804       -17.9814 
  29   1.0000      -0.633808       -17.2468 
  30   1.0000      -0.616968       -16.7885 
  31   1.0000      -0.603562       -16.4238 
  32   1.0000      -0.580977       -15.8092 
  33   1.0000      -0.575667       -15.6647 
  34   1.0000      -0.565096       -15.3770 
  35   1.0000      -0.558532       -15.1984 
  36   1.0000      -0.527574       -14.3560 
  37   1.0000      -0.493503       -13.4289 
  38   1.0000      -0.479348       -13.0437 
  39   1.0000      -0.470805       -12.8112 
  40   1.0000      -0.466901       -12.7050 
  41   1.0000      -0.459492       -12.5034 
  42   1.0000      -0.457323       -12.4444 
  43   1.0000      -0.425083       -11.5671 
  44   1.0000      -0.424571       -11.5532 
  45   1.0000      -0.419432       -11.4133 
  46   1.0000      -0.419334       -11.4106 
  47   1.0000      -0.415448       -11.3049 
  48   1.0000      -0.407675       -11.0934 
  49   1.0000      -0.392082       -10.6691 
  50   1.0000      -0.387684       -10.5494 
  51   1.0000      -0.376691       -10.2503 
  52   1.0000      -0.367076        -9.9887 
  53   1.0000      -0.366009        -9.9596 
  54   1.0000      -0.354787        -9.6542 
  55   1.0000      -0.353537        -9.6202 
  56   1.0000      -0.351405        -9.5622 
  57   1.0000      -0.338662        -9.2155 
  58   1.0000      -0.334705        -9.1078 
  59   1.0000      -0.327041        -8.8992 
  60   1.0000      -0.325618        -8.8605 
  61   1.0000      -0.323936        -8.8148 
  62   1.0000      -0.322599        -8.7784 
  63   1.0000      -0.319546        -8.6953 
  64   1.0000      -0.318907        -8.6779 
  65   1.0000      -0.307781        -8.3752 
  66   1.0000      -0.298584        -8.1249 
  67   1.0000      -0.271441        -7.3863 
  68   1.0000      -0.240862        -6.5542 
  69   1.0000      -0.223124        -6.0715 
  70   0.0000      -0.050695        -1.3795 
  71   0.0000      -0.033203        -0.9035 
  72   0.0000      -0.000432        -0.0117 
  73   0.0000       0.020279         0.5518 
  74   0.0000       0.023918         0.6508 
  75   0.0000       0.025441         0.6923 
  76   0.0000       0.030428         0.8280 
  77   0.0000       0.034110         0.9282 
  78   0.0000       0.040183         1.0934 
  79   0.0000       0.044413         1.2085 
  80   0.0000       0.045189         1.2297 
  81   0.0000       0.051494         1.4012 
  82   0.0000       0.058595         1.5944 
  83   0.0000       0.063927         1.7395 
  84   0.0000       0.076798         2.0898 
  85   0.0000       0.082411         2.2425 
  86   0.0000       0.086644         2.3577 
  87   0.0000       0.089827         2.4443 
  88   0.0000       0.111432         3.0322 
  89   0.0000       0.117121         3.1870 
  90   0.0000       0.121757         3.3132 
  91   0.0000       0.146855         3.9961 
  92   0.0000       0.148943         4.0529 
  93   0.0000       0.155546         4.2326 
  94   0.0000       0.161580         4.3968 
  95   0.0000       0.169483         4.6119 
  96   0.0000       0.171691         4.6719 
  97   0.0000       0.173899         4.7320 
  98   0.0000       0.181323         4.9341 
  99   0.0000       0.188873         5.1395 
 100   0.0000       0.190002         5.1702 
 101   0.0000       0.193966         5.2781 
 102   0.0000       0.198047         5.3891 
 103   0.0000       0.198149         5.3919 
 104   0.0000       0.199980         5.4417 
 105   0.0000       0.206801         5.6273 
 106   0.0000       0.210660         5.7323 
 107   0.0000       0.217125         5.9083 
 108   0.0000       0.218452         5.9444 
 109   0.0000       0.220250         5.9933 
 110   0.0000       0.224077         6.0974 
 111   0.0000       0.232958         6.3391 
 112   0.0000       0.235159         6.3990 
 113   0.0000       0.241629         6.5750 
 114   0.0000       0.251220         6.8360 
 115   0.0000       0.251661         6.8480 
 116   0.0000       0.252995         6.8844 
 117   0.0000       0.255151         6.9430 
 118   0.0000       0.255687         6.9576 
 119   0.0000       0.265589         7.2270 
 120   0.0000       0.269814         7.3420 
 121   0.0000       0.276057         7.5119 
 122   0.0000       0.278790         7.5863 
 123   0.0000       0.280515         7.6332 
 124   0.0000       0.286089         7.7849 
 125   0.0000       0.287041         7.8108 
 126   0.0000       0.289360         7.8739 
 127   0.0000       0.294529         8.0145 
 128   0.0000       0.296161         8.0589 
 129   0.0000       0.300364         8.1733 
 130   0.0000       0.307226         8.3601 
 131   0.0000       0.309172         8.4130 
 132   0.0000       0.310795         8.4572 
 133   0.0000       0.312089         8.4924 
 134   0.0000       0.318235         8.6596 
 135   0.0000       0.320507         8.7214 
 136   0.0000       0.321799         8.7566 
 137   0.0000       0.326571         8.8864 
 138   0.0000       0.329495         8.9660 
 139   0.0000       0.331354         9.0166 
 140   0.0000       0.342208         9.3120 
 141   0.0000       0.346993         9.4422 
 142   0.0000       0.351705         9.5704 
 143   0.0000       0.356412         9.6985 
 144   0.0000       0.366127         9.9628 
 145   0.0000       0.370163        10.0727 
 146   0.0000       0.372302        10.1309 
 147   0.0000       0.374958        10.2031 
 148   0.0000       0.383779        10.4432 
 149   0.0000       0.390390        10.6230 
 150   0.0000       0.391469        10.6524 
 151   0.0000       0.402010        10.9392 
 152   0.0000       0.404598        11.0097 
 153   0.0000       0.414628        11.2826 
 154   0.0000       0.416469        11.3327 
 155   0.0000       0.421815        11.4782 
 156   0.0000       0.426122        11.5954 
 157   0.0000       0.428576        11.6622 
 158   0.0000       0.436022        11.8648 
 159   0.0000       0.441930        12.0255 
 160   0.0000       0.450618        12.2620 
 161   0.0000       0.456097        12.4110 
 162   0.0000       0.461729        12.5643 
 163   0.0000       0.471931        12.8419 
 164   0.0000       0.476774        12.9737 
 165   0.0000       0.477239        12.9863 
 166   0.0000       0.482284        13.1236 
 167   0.0000       0.486732        13.2446 
 168   0.0000       0.490133        13.3372 
 169   0.0000       0.507399        13.8070 
 170   0.0000       0.510578        13.8935 
 171   0.0000       0.512259        13.9393 
 172   0.0000       0.515991        14.0408 
 173   0.0000       0.518481        14.1086 
 174   0.0000       0.530782        14.4433 
 175   0.0000       0.536352        14.5949 
 176   0.0000       0.545252        14.8371 
 177   0.0000       0.546430        14.8691 
 178   0.0000       0.552939        15.0462 
[...]
  Z           0.8636955            0.0768741            0.4981170

Notes:  (1) The A matrix conforms to the "SAI" spin Hamiltonian convention.
        (2) Tensor is right-handed.

 -----------------------------------------------------------
 Nucleus  43H : A:ISTP=    1 I=  0.5 P=533.5514 MHz/au**3
                Q:ISTP=    2 I=  1.0 Q=  0.0029 barn     
 -----------------------------------------------------------
 Solving for nuclear perturbation:
Forming RHS of the CP-SCF equations         ... 
Calc. nucleus orbit integrals (SHARK)       ... done

------------------------------------------------------------------------------
                           ORCA CP-SCF CALCULATION
------------------------------------------------------------------------------

Input orbitals are from        ... EPRII.gbw
Input Perturbation             ... EPRII.pin.tmp
Wavefunction output            ... EPRII.pout.tmp
Perturbation mode              ... Imaginary perturbation
Solver                         ... POPLE
Max. number of iterations      ... 64
Convergence tolerance          ... 1.000e-03
Integral handling              ... Direct
DFT GridXC                     ... 1
COSX GridX                     ... 1
COSX IntAccX                   ... 3.067
COSX Algorithm                 ... Auto
Number of perturbations        ... 3
Number of operators            ... 2
Orbital ranges used for CP-SCF:
 Operator 0:  Orbitals   0... 70  to  71...511
 Operator 1:  Orbitals   0... 69  to  70...511
Variables per perturbation     ... 62251
DFT calculation                         ... on
XC functional terms                     ... off
Hybrid DFT                              ... on
   Exchange mixing (SCF)                ...  0.200
   Exchange mixing (CP-SCF)             ...  0.200
   GGA exch. scaling(SCF)               ...  0.720
   GGA exch. scaling (CP-SCF)           ...  0.720
   GGA corr. scaling (SCF)              ...  0.810
   GGA corr. scaling (CP-SCF)           ...  0.810

CP-SCF GRID
-----------

General Integration Accuracy     IntAcc      ... 3.467
Radial Grid Type                 RadialGrid  ... OptM3 with GC (2021)
Angular Grid (max. ang.)         AngularGrid ... 1 (Lebedev-50)
Angular grid pruning method      GridPruning ... 4 (adaptive)
Weight generation scheme         WeightScheme... Becke
Basis function cutoff            BFCut       ... 1.0000e-10
Integration weight cutoff        WCut        ... 1.0000e-14
Angular grids for H and He will be reduced by one unit
Partially contracted basis set               ... off
Rotationally invariant grid construction     ... off

Total number of grid points                  ...    27869
Total number of batches                      ...      456
Average number of points per batch           ...       61
Average number of grid points per atom       ...      606

CP-SCF GRIDX
------------

General Integration Accuracy     IntAcc      ... 3.067
Radial Grid Type                 RadialGrid  ... OptM3 with GC (2021)
Angular Grid (max. ang.)         AngularGrid ... 1 (Lebedev-50)
Angular grid pruning method      GridPruning ... 4 (adaptive)
Weight generation scheme         WeightScheme... Becke
Basis function cutoff            BFCut       ... 1.0000e-10
Integration weight cutoff        WCut        ... 1.0000e-14
Angular grids for H and He will be reduced by one unit
Partially contracted basis set               ... on
Rotationally invariant grid construction     ... off

Total number of grid points                  ...    13253
Total number of batches                      ...      235
Average number of points per batch           ...       56
Average number of grid points per atom       ...      288

Memory available               ... 877.1 MB
Memory needed per perturbation ...  15.3 MB
Perturbations treated per batch... 3
Number of batches              ... 1
     CP-SCF ITERATION   0:   1.0355e-01 (   1.6 sec   0/  3 done)
     CP-SCF ITERATION   1:   1.7124e-03 (   1.6 sec   2/  3 done)
     CP-SCF ITERATION   2:   8.5143e-05 (   1.2 sec   3/  3 done)
                    *** THE CP-SCF HAS CONVERGED ***

Forming final perturbed densities           ... done
Transforming perturbed density to AO basis  ... done

 Raw HFC matrix (all values in MHz): 
 -----------------------------------
                -0.0436              -0.0588               0.0020
                -0.0589               0.1094              -0.0059
                 0.0020              -0.0059              -0.0649

 A(FC)           0.0003               0.0003               0.0003
 A(SD)          -0.0639              -0.0654               0.1293
 A(ORB+DIA)      0.0000               0.0000               0.0000    A(PC) =   0.0000
 A(ORB)         -0.0000              -0.0000               0.0000    A(PC) =  -0.0000
 A(DIA)          0.0000               0.0000               0.0000    A(PC) =   0.0000
             ----------           ----------           ----------
 A(Tot)         -0.0636              -0.0651               0.1296    A(iso)=    0.0003
 Orientation: 
  X           0.9465561           -0.0229882            0.3217189
  Y           0.3222600            0.0259127           -0.9462965
  Z           0.0134171            0.9993999            0.0319360

Notes:  (1) The A matrix conforms to the "SAI" spin Hamiltonian convention.
        (2) Tensor is right-handed.

 -----------------------------------------------------------
 Nucleus  44H : A:ISTP=    1 I=  0.5 P=533.5514 MHz/au**3
                Q:ISTP=    2 I=  1.0 Q=  0.0029 barn     
 -----------------------------------------------------------
 Solving for nuclear perturbation:
Forming RHS of the CP-SCF equations         ... 
Calc. nucleus orbit integrals (SHARK)       ... done

------------------------------------------------------------------------------
                           ORCA CP-SCF CALCULATION
------------------------------------------------------------------------------

Input orbitals are from        ... EPRII.gbw
Input Perturbation             ... EPRII.pin.tmp
Wavefunction output            ... EPRII.pout.tmp
Perturbation mode              ... Imaginary perturbation
Solver                         ... POPLE
Max. number of iterations      ... 64
Convergence tolerance          ... 1.000e-03
Integral handling              ... Direct
DFT GridXC                     ... 1
COSX GridX                     ... 1
COSX IntAccX                   ... 3.067
COSX Algorithm                 ... Auto
Number of perturbations        ... 3
Number of operators            ... 2
Orbital ranges used for CP-SCF:
 Operator 0:  Orbitals   0... 70  to  71...511
 Operator 1:  Orbitals   0... 69  to  70...511
Variables per perturbation     ... 62251
DFT calculation                         ... on
XC functional terms                     ... off
Hybrid DFT                              ... on
   Exchange mixing (SCF)                ...  0.200
   Exchange mixing (CP-SCF)             ...  0.200
   GGA exch. scaling(SCF)               ...  0.720
   GGA exch. scaling (CP-SCF)           ...  0.720
   GGA corr. scaling (SCF)              ...  0.810
   GGA corr. scaling (CP-SCF)           ...  0.810

CP-SCF GRID
-----------

General Integration Accuracy     IntAcc      ... 3.467
Radial Grid Type                 RadialGrid  ... OptM3 with GC (2021)
Angular Grid (max. ang.)         AngularGrid ... 1 (Lebedev-50)
Angular grid pruning method      GridPruning ... 4 (adaptive)
Weight generation scheme         WeightScheme... Becke
Basis function cutoff            BFCut       ... 1.0000e-10
Integration weight cutoff        WCut        ... 1.0000e-14
Angular grids for H and He will be reduced by one unit
Partially contracted basis set               ... off
Rotationally invariant grid construction     ... off

Total number of grid points                  ...    27869
Total number of batches                      ...      456
Average number of points per batch           ...       61
Average number of grid points per atom       ...      606

CP-SCF GRIDX
------------

General Integration Accuracy     IntAcc      ... 3.067
Radial Grid Type                 RadialGrid  ... OptM3 with GC (2021)
Angular Grid (max. ang.)         AngularGrid ... 1 (Lebedev-50)
Angular grid pruning method      GridPruning ... 4 (adaptive)
Weight generation scheme         WeightScheme... Becke
Basis function cutoff            BFCut       ... 1.0000e-10
Integration weight cutoff        WCut        ... 1.0000e-14
Angular grids for H and He will be reduced by one unit
Partially contracted basis set               ... on
Rotationally invariant grid construction     ... off

Total number of grid points                  ...    13253
Total number of batches                      ...      235
Average number of points per batch           ...       56
Average number of grid points per atom       ...      288

Memory available               ... 876.6 MB
Memory needed per perturbation ...  15.3 MB
Perturbations treated per batch... 3
Number of batches              ... 1
     CP-SCF ITERATION   0:   3.7201e-02 (   1.6 sec   0/  3 done)
     CP-SCF ITERATION   1:   5.6197e-04 (   1.6 sec   3/  3 done)
                    *** THE CP-SCF HAS CONVERGED ***

Forming final perturbed densities           ... done
Transforming perturbed density to AO basis  ... done

 Raw HFC matrix (all values in MHz): 
 -----------------------------------
                -0.0129               0.0081              -0.0002
                 0.0081               0.0275              -0.0008
                -0.0002              -0.0008              -0.0145

 A(FC)           0.0000               0.0000               0.0000
 A(SD)          -0.0145              -0.0145               0.0290
 A(ORB+DIA)      0.0000               0.0000               0.0000    A(PC) =   0.0000
 A(ORB)         -0.0000              -0.0000               0.0000    A(PC) =  -0.0000
 A(DIA)          0.0000               0.0000               0.0000    A(PC) =   0.0000
             ----------           ----------           ----------
 A(Tot)         -0.0145              -0.0145               0.0290    A(iso)=    0.0000
 Orientation: 
  X           0.9817911           -0.0130308           -0.1895161
  Y          -0.1891944            0.0226122           -0.9816793
  Z           0.0170775            0.9996594            0.0197351

Notes:  (1) The A matrix conforms to the "SAI" spin Hamiltonian convention.
        (2) Tensor is right-handed.

 -----------------------------------------------------------
 Nucleus  45H : A:ISTP=    1 I=  0.5 P=533.5514 MHz/au**3
                Q:ISTP=    2 I=  1.0 Q=  0.0029 barn     
 -----------------------------------------------------------
 Solving for nuclear perturbation:
Forming RHS of the CP-SCF equations         ... 
Calc. nucleus orbit integrals (SHARK)       ... done

------------------------------------------------------------------------------
                           ORCA CP-SCF CALCULATION
------------------------------------------------------------------------------

Input orbitals are from        ... EPRII.gbw
Input Perturbation             ... EPRII.pin.tmp
Wavefunction output            ... EPRII.pout.tmp
Perturbation mode              ... Imaginary perturbation
Solver                         ... POPLE
Max. number of iterations      ... 64
Convergence tolerance          ... 1.000e-03
Integral handling              ... Direct
DFT GridXC                     ... 1
COSX GridX                     ... 1
COSX IntAccX                   ... 3.067
COSX Algorithm                 ... Auto
Number of perturbations        ... 3
Number of operators            ... 2
Orbital ranges used for CP-SCF:
 Operator 0:  Orbitals   0... 70  to  71...511
 Operator 1:  Orbitals   0... 69  to  70...511
Variables per perturbation     ... 62251
DFT calculation                         ... on
XC functional terms                     ... off
Hybrid DFT                              ... on
   Exchange mixing (SCF)                ...  0.200
   Exchange mixing (CP-SCF)             ...  0.200
   GGA exch. scaling(SCF)               ...  0.720
   GGA exch. scaling (CP-SCF)           ...  0.720
   GGA corr. scaling (SCF)              ...  0.810
   GGA corr. scaling (CP-SCF)           ...  0.810

CP-SCF GRID
-----------

General Integration Accuracy     IntAcc      ... 3.467
Radial Grid Type                 RadialGrid  ... OptM3 with GC (2021)
Angular Grid (max. ang.)         AngularGrid ... 1 (Lebedev-50)
Angular grid pruning method      GridPruning ... 4 (adaptive)
Weight generation scheme         WeightScheme... Becke
Basis function cutoff            BFCut       ... 1.0000e-10
Integration weight cutoff        WCut        ... 1.0000e-14
Angular grids for H and He will be reduced by one unit
Partially contracted basis set               ... off
Rotationally invariant grid construction     ... off

Total number of grid points                  ...    27869
Total number of batches                      ...      456
Average number of points per batch           ...       61
Average number of grid points per atom       ...      606

CP-SCF GRIDX
------------

General Integration Accuracy     IntAcc      ... 3.067
Radial Grid Type                 RadialGrid  ... OptM3 with GC (2021)
Angular Grid (max. ang.)         AngularGrid ... 1 (Lebedev-50)
Angular grid pruning method      GridPruning ... 4 (adaptive)
Weight generation scheme         WeightScheme... Becke
Basis function cutoff            BFCut       ... 1.0000e-10
Integration weight cutoff        WCut        ... 1.0000e-14
Angular grids for H and He will be reduced by one unit
Partially contracted basis set               ... on
Rotationally invariant grid construction     ... off

Total number of grid points                  ...    13253
Total number of batches                      ...      235
Average number of points per batch           ...       56
Average number of grid points per atom       ...      288

Memory available               ... 876.0 MB
Memory needed per perturbation ...  15.3 MB
Perturbations treated per batch... 3
Number of batches              ... 1
     CP-SCF ITERATION   0:   4.4138e-02 (   1.7 sec   0/  3 done)
     CP-SCF ITERATION   1:   1.7006e-03 (   1.6 sec   1/  3 done)
     CP-SCF ITERATION   2:   7.8537e-05 (   1.6 sec   3/  3 done)
                    *** THE CP-SCF HAS CONVERGED ***

Forming final perturbed densities           ... done
Transforming perturbed density to AO basis  ... done

 Raw HFC matrix (all values in MHz): 
 -----------------------------------
                -0.0324               0.0688              -0.0010
                 0.0688               0.0954              -0.0024
                -0.0010              -0.0024              -0.0640

 A(FC)          -0.0004              -0.0004              -0.0004
 A(SD)          -0.0621              -0.0637               0.1258
 A(ORB+DIA)      0.0000               0.0000               0.0000    A(PC) =   0.0000
 A(ORB)         -0.0000              -0.0000               0.0000    A(PC) =  -0.0000
 A(DIA)          0.0000               0.0000               0.0000    A(PC) =   0.0000
             ----------           ----------           ----------
 A(Tot)         -0.0625              -0.0640               0.1254    A(iso)=   -0.0003
 Orientation: 
  X           0.9164739           -0.0163242           -0.3997613
  Y          -0.3993863            0.0220920           -0.9165165
  Z           0.0237929            0.9996227            0.0137271

Notes:  (1) The A matrix conforms to the "SAI" spin Hamiltonian convention.
        (2) Tensor is right-handed.


--------------------------------------------------------------------------------
----------------------------------------------------------------------------
                           ORCA EULER ANGLE PROGRAM
----------------------------------------------------------------------------

Only g-tensor available        -->  using g-tensor as reference tensor

Reference tensor               ...  g

g-tensor ordering              ...  |g_min> --> |gx>
                                    |g_mid> --> |gy>
                                    |g_max> --> |gz>

A- and EFG-tensor ordering     ...  the axes |Ax>, |Qx>, |Ay>, etc. are assigned
                                    such that the Euler rotation is minimal. You
                                    can find the respective eigenvalues as Ax,
                                    EFGx, Ay, etc. in the tables below.
                                    The relation of |Ax>, |Ay>,  etc. to Amin, Amid, etc.
                                    (as printed in the ORCA EPR/NMR CALCULATION Output)
                                    is obtained in the detailed printout.

Euler rotation around          ...  z - y - z
   First rotation              -->  by alpha around z
   Second rotation             -->  by beta around y'
   Third rotation              -->  by gamma around z''
   Positive / Negative angle   -->  clockwise / counterclockwise rotation

Plot EFG-tensors                    (-)
Plot HFC-tensors                    (-)
Detailed Printout                   (-)

-------------------------------------------------------------------------
          Euler rotation of hyperfine tensor to g-tensor
-------------------------------------------------------------------------

-------------------------------------------------------------------
 Atom  |   Alpha    Beta    Gamma   |   Ax       Ay       Az 
       |          [degrees]         |           [MHz]         
-------------------------------------------------------------------
  7H      -60.5      0.4     22.9       0.10    -0.04    -0.04
  8H      -21.3      0.6     53.3      -0.13     0.28    -0.15
 10H      -41.7      5.7     78.3      -0.04     0.07    -0.04
 11H      138.5      6.1   -101.8      -0.04     0.07    -0.04
 13H     -123.7      6.7     80.4       0.06    -0.03    -0.03
 14H       48.1      5.5    -91.2       0.06    -0.03    -0.03
 16H      147.2      6.1   -108.0      -0.02     0.04    -0.02
 17H      -32.1      6.1     71.2      -0.02     0.04    -0.02
 19H       24.1      3.3    -66.5       0.03    -0.02    -0.02
 20H     -154.0      3.5    111.6       0.03    -0.02    -0.02
 22H      -75.1     34.8     48.1       0.38    -0.18    -0.23
 23H      105.0     33.8   -131.9       0.38    -0.18    -0.23
 25H      -18.1     43.0     48.3      -0.36     0.55    -0.49
 26H      162.0     42.2   -131.8      -0.36     0.55    -0.49
 28H      -63.3     33.8     42.5       1.55    -0.32    -0.55
 29H      117.0     33.5   -137.8       1.55    -0.32    -0.55
 31H      154.5     43.9   -137.5      -1.38     1.69    -2.28
 32H      -25.7     44.1     42.6      -1.38     1.70    -2.28
 34H      139.3     41.0   -141.1       3.37    -6.19    -9.65
 35H      -41.0     41.0     39.1       3.36    -6.19    -9.65
 37H     -140.5     38.3    156.7      28.62    42.26    28.19
 38H       39.4     38.2    -23.3      28.47    42.11    28.03
 40H       96.0     30.6    -80.5     -64.81  -102.68   -24.58
 41H      -84.0     30.7     99.5     -64.81  -102.68   -24.58
 43H      -56.3      0.7     39.7       0.13    -0.06    -0.07
 44H       43.7      0.0      0.0      -0.01     0.03    -0.01
 45H      -35.0      0.2     66.0      -0.06     0.13    -0.06
-------------------------------------------------------------------


Maximum memory used throughout the entire EPRNMR-calculation: 205.1 MB

Timings for individual modules:

Sum of individual times         ...     3819.934 sec (=  63.666 min)
GTO integral calculation        ...        5.032 sec (=   0.084 min)   0.1 %
Spin-Orbit-Coupling Matrices    ...       10.827 sec (=   0.180 min)   0.3 %
SCF iterations                  ...       65.248 sec (=   1.087 min)   1.7 %
EPR/NMR calculation             ...     3738.827 sec (=  62.314 min)  97.9 %
                             ****ORCA TERMINATED NORMALLY****
TOTAL RUN TIME: 0 days 1 hours 3 minutes 44 seconds 348 msec
