
                                 *****************
                                 * O   R   C   A *
                                 *****************

                                            #,                                       
                                            ###                                      
                                            ####                                     
                                            #####                                    
                                            ######                                   
                                           ########,                                 
                                     ,,################,,,,,                         
                               ,,#################################,,                 
                          ,,##########################################,,             
                       ,#########################################, ''#####,          
                    ,#############################################,,   '####,        
                  ,##################################################,,,,####,       
                ,###########''''           ''''###############################       
              ,#####''   ,,,,##########,,,,          '''####'''          '####       
            ,##' ,,,,###########################,,,                        '##       
           ' ,,###''''                  '''############,,,                           
         ,,##''                                '''############,,,,        ,,,,,,###''
      ,#''                                            '''#######################'''  
     '                                                          ''''####''''         
             ,#######,   #######,   ,#######,      ##                                
            ,#'     '#,  ##    ##  ,#'     '#,    #''#        ######   ,####,        
            ##       ##  ##   ,#'  ##            #'  '#       #        #'  '#        
            ##       ##  #######   ##           ,######,      #####,   #    #        
            '#,     ,#'  ##    ##  '#,     ,#' ,#      #,         ##   #,  ,#        
             '#######'   ##     ##  '#######'  #'      '#     #####' # '####'        



                  #######################################################
                  #                        -***-                        #
                  #          Department of theory and spectroscopy      #
                  #    Directorship and core code : Frank Neese         #
                  #        Max Planck Institute fuer Kohlenforschung    #
                  #                Kaiser Wilhelm Platz 1               #
                  #                 D-45470 Muelheim/Ruhr               #
                  #                      Germany                        #
                  #                                                     #
                  #                  All rights reserved                #
                  #                        -***-                        #
                  #######################################################


                         Program Version 5.0.4 -  RELEASE  -


 With contributions from (in alphabetic order):
   Daniel Aravena         : Magnetic Suceptibility
   Michael Atanasov       : Ab Initio Ligand Field Theory (pilot matlab implementation)
   Alexander A. Auer      : GIAO ZORA, VPT2 properties, NMR spectrum
   Ute Becker             : Parallelization
   Giovanni Bistoni       : ED, misc. LED, open-shell LED, HFLD
   Martin Brehm           : Molecular dynamics
   Dmytro Bykov           : SCF Hessian
   Vijay G. Chilkuri      : MRCI spin determinant printing, contributions to CSF-ICE
   Dipayan Datta          : RHF DLPNO-CCSD density
   Achintya Kumar Dutta   : EOM-CC, STEOM-CC
   Dmitry Ganyushin       : Spin-Orbit,Spin-Spin,Magnetic field MRCI
   Miquel Garcia          : C-PCM and meta-GGA Hessian, CC/C-PCM, Gaussian charge scheme
   Yang Guo               : DLPNO-NEVPT2, F12-NEVPT2, CIM, IAO-localization
   Andreas Hansen         : Spin unrestricted coupled pair/coupled cluster methods
   Benjamin Helmich-Paris : MC-RPA, TRAH-SCF, COSX integrals
   Lee Huntington         : MR-EOM, pCC
   Robert Izsak           : Overlap fitted RIJCOSX, COSX-SCS-MP3, EOM
   Marcus Kettner         : VPT2
   Christian Kollmar      : KDIIS, OOCD, Brueckner-CCSD(T), CCSD density, CASPT2, CASPT2-K
   Simone Kossmann        : Meta GGA functionals, TD-DFT gradient, OOMP2, MP2 Hessian
   Martin Krupicka        : Initial AUTO-CI
   Lucas Lang             : DCDCAS
   Marvin Lechner         : AUTO-CI (C++ implementation), FIC-MRCC
   Dagmar Lenk            : GEPOL surface, SMD
   Dimitrios Liakos       : Extrapolation schemes; Compound Job, initial MDCI parallelization
   Dimitrios Manganas     : Further ROCIS development; embedding schemes
   Dimitrios Pantazis     : SARC Basis sets
   Anastasios Papadopoulos: AUTO-CI, single reference methods and gradients
   Taras Petrenko         : DFT Hessian,TD-DFT gradient, ASA, ECA, R-Raman, ABS, FL, XAS/XES, NRVS
   Peter Pinski           : DLPNO-MP2, DLPNO-MP2 Gradient
   Christoph Reimann      : Effective Core Potentials
   Marius Retegan         : Local ZFS, SOC
   Christoph Riplinger    : Optimizer, TS searches, QM/MM, DLPNO-CCSD(T), (RO)-DLPNO pert. Triples
   Tobias Risthaus        : Range-separated hybrids, TD-DFT gradient, RPA, STAB
   Michael Roemelt        : Original ROCIS implementation
   Masaaki Saitow         : Open-shell DLPNO-CCSD energy and density
   Barbara Sandhoefer     : DKH picture change effects
   Avijit Sen             : IP-ROCIS
   Kantharuban Sivalingam : CASSCF convergence, NEVPT2, FIC-MRCI
   Bernardo de Souza      : ESD, SOC TD-DFT
   Georgi Stoychev        : AutoAux, RI-MP2 NMR, DLPNO-MP2 response
   Willem Van den Heuvel  : Paramagnetic NMR
   Boris Wezisla          : Elementary symmetry handling
   Frank Wennmohs         : Technical directorship


 We gratefully acknowledge several colleagues who have allowed us to
 interface, adapt or use parts of their codes:
   Stefan Grimme, W. Hujo, H. Kruse, P. Pracht,  : VdW corrections, initial TS optimization,
                  C. Bannwarth, S. Ehlert          DFT functionals, gCP, sTDA/sTD-DF
   Ed Valeev, F. Pavosevic, A. Kumar             : LibInt (2-el integral package), F12 methods
   Garnet Chan, S. Sharma, J. Yang, R. Olivares  : DMRG
   Ulf Ekstrom                                   : XCFun DFT Library
   Mihaly Kallay                                 : mrcc  (arbitrary order and MRCC methods)
   Jiri Pittner, Ondrej Demel                    : Mk-CCSD
   Frank Weinhold                                : gennbo (NPA and NBO analysis)
   Christopher J. Cramer and Donald G. Truhlar   : smd solvation model
   Lars Goerigk                                  : TD-DFT with DH, B97 family of functionals
   V. Asgeirsson, H. Jonsson                     : NEB implementation
   FAccTs GmbH                                   : IRC, NEB, NEB-TS, DLPNO-Multilevel, CI-OPT
                                                   MM, QMMM, 2- and 3-layer-ONIOM, Crystal-QMMM,
                                                   LR-CPCM, SF, NACMEs, symmetry and pop. for TD-DFT,
                                                   nearIR, NL-DFT gradient (VV10), updates on ESD,
                                                   ML-optimized integration grids
   S Lehtola, MJT Oliveira, MAL Marques          : LibXC Library
   Liviu Ungur et al                             : ANISO software


 Your calculation uses the libint2 library for the computation of 2-el integrals
 For citations please refer to: http://libint.valeyev.net

 Your ORCA version has been built with support for libXC version: 5.1.0
 For citations please refer to: https://tddft.org/programs/libxc/

 This ORCA versions uses:
   CBLAS   interface :  Fast vector & matrix operations
   LAPACKE interface :  Fast linear algebra routines
   SCALAPACK package :  Parallel linear algebra routines
   Shared memory     :  Shared parallel matrices
   BLAS/LAPACK       :  OpenBLAS 0.3.15  USE64BITINT DYNAMIC_ARCH NO_AFFINITY SkylakeX SINGLE_THREADED
        Core in use  :  SkylakeX
   Copyright (c) 2011-2014, The OpenBLAS Project




***************************************
The coordinates will be read from file: opt.xyz
***************************************


================================================================================

----- Orbital basis set information -----
Your calculation utilizes the basis: EPR-II
   V. Barone, in Recent Advances in Density Functional Methods, Part 1 (ed. D. P. Chong), World Scientific, Singapore, 1995, p. 287.

----- AuxJ basis set information -----
Your calculation utilizes the AutoAux generation procedure.
  G. L. Stoychev, A. A. Auer, F. Neese, J. Chem. Theory Comput. 13, 554 (2017)

----- AuxC basis set information -----
Your calculation utilizes the AutoAux generation procedure.
  G. L. Stoychev, A. A. Auer, F. Neese, J. Chem. Theory Comput. 13, 554 (2017)

----- AuxJK basis set information -----
Your calculation utilizes the AutoAux generation procedure.
  G. L. Stoychev, A. A. Auer, F. Neese, J. Chem. Theory Comput. 13, 554 (2017)

================================================================================
                                        WARNINGS
                       Please study these warnings very carefully!
================================================================================

WARNING: Old DensityContainer found on disk!
         Will remove this file - 
         If you want to keep old densities, please start your calculation with a different basename. 


WARNING: your system is open-shell and RHF/RKS was chosen
  ===> : WILL SWITCH to UHF/UKS


INFO   : the flag for use of the SHARK integral package has been found!

================================================================================
                                       INPUT FILE
================================================================================
NAME = EPRII.inp
|  1> ! B3LYP EPR-II AUTOAUX
|  2> %pal nprocs 16 end
|  3> *XYZFile 0 2 opt.xyz
|  4> %EPRNMR
|  5>         GTENSOR   TRUE
|  6>         NUCLEI    = ALL H {SHIFT, AISO, ADIP, AORB}
|  7>         ORI       CenterOfElCharge
|  8> END
|  9> 
| 10>                          ****END OF INPUT****
================================================================================

                       ****************************
                       * Single Point Calculation *
                       ****************************

---------------------------------
CARTESIAN COORDINATES (ANGSTROEM)
---------------------------------
  C      4.260893   -0.079127   -0.043591
  C      0.045387   -0.014079   -0.133807
  C      0.704757   -1.253015   -0.085632
  C      2.101931   -1.235147   -0.057350
  C      2.827985   -0.025998   -0.075534
  C      2.154195    1.220084   -0.123807
  C      0.753332    1.188758   -0.152097
  H      2.668495   -2.165884   -0.020281
  H      0.193946    2.124579   -0.189644
  C     -0.111949   -2.534903   -0.064556
  H     -0.786166   -2.529706   -0.941570
  H     -0.783040   -2.503561    0.814548
  C      0.667170   -3.852699   -0.045898
  H      1.334018   -3.903925   -0.926359
  H      1.326150   -3.884500    0.841308
  C     -0.246311   -5.084124   -0.035413
  H     -0.916771   -5.033046    0.842757
  H     -0.906915   -5.055142   -0.922002
  C      0.524988   -6.406261   -0.014444
  H      1.168051   -6.480501    0.879526
  H      1.177898   -6.502965   -0.899066
  C      2.952208    2.510100   -0.142411
  H      3.610046    2.523794    0.746200
  H      3.648976    2.474747   -1.000122
  C      2.153064    3.815083   -0.196314
  H      1.507351    3.823318   -1.093673
  H      1.473136    3.874674    0.673437
  C      3.051950    5.057494   -0.215340
  H      3.705089    5.050199    0.677686
  H      3.731774    5.003740   -1.086612
  C      2.270402    6.375297   -0.262074
  H      1.591515    6.428490    0.610416
  H      1.615926    6.380765   -1.154594
  C      3.165360    7.619459   -0.283638
  H      3.840573    7.577327   -1.158008
  H      3.819142    7.623303    0.607847
  C      2.361317    8.944123   -0.328166
  H      1.709747    8.920359   -1.221882
  H      1.689242    8.967418    0.550198
  C      3.214355   10.168422   -0.351043
  H      3.591753   10.606491    0.577387
  H      3.614830   10.555345   -1.292458
  C      5.475492   -0.133120   -0.017706
  H      6.546487   -0.180814    0.006549
  H     -0.157012   -7.272012   -0.007233
  H     -1.048373    0.011018   -0.157638

----------------------------
CARTESIAN COORDINATES (A.U.)
----------------------------
  NO LB      ZA    FRAG     MASS         X           Y           Z
   0 C     6.0000    0    12.011    8.051921   -0.149527   -0.082375
   1 C     6.0000    0    12.011    0.085769   -0.026606   -0.252858
   2 C     6.0000    0    12.011    1.331798   -2.367856   -0.161822
   3 C     6.0000    0    12.011    3.972075   -2.334090   -0.108376
   4 C     6.0000    0    12.011    5.344118   -0.049130   -0.142739
   5 C     6.0000    0    12.011    4.070839    2.305624   -0.233961
   6 C     6.0000    0    12.011    1.423591    2.246428   -0.287422
   7 H     1.0000    0     1.008    5.042724   -4.092928   -0.038325
   8 H     1.0000    0     1.008    0.366505    4.014872   -0.358375
   9 C     6.0000    0    12.011   -0.211552   -4.790273   -0.121992
  10 H     1.0000    0     1.008   -1.485639   -4.780452   -1.779310
  11 H     1.0000    0     1.008   -1.479730   -4.731045    1.539273
  12 C     6.0000    0    12.011    1.260769   -7.280546   -0.086736
  13 H     1.0000    0     1.008    2.520928   -7.377350   -1.750565
  14 H     1.0000    0     1.008    2.506061   -7.340641    1.589841
  15 C     6.0000    0    12.011   -0.465461   -9.607602   -0.066921
  16 H     1.0000    0     1.008   -1.732446   -9.511078    1.592581
  17 H     1.0000    0     1.008   -1.713821   -9.552835   -1.742332
  18 C     6.0000    0    12.011    0.992083  -12.106079   -0.027295
  19 H     1.0000    0     1.008    2.207296  -12.246371    1.662064
  20 H     1.0000    0     1.008    2.225904  -12.288822   -1.698988
  21 C     6.0000    0    12.011    5.578866    4.743402   -0.269117
  22 H     1.0000    0     1.008    6.821997    4.769279    1.410114
  23 H     1.0000    0     1.008    6.895565    4.676594   -1.889956
  24 C     6.0000    0    12.011    4.068702    7.209462   -0.370980
  25 H     1.0000    0     1.008    2.848481    7.225024   -2.066743
  26 H     1.0000    0     1.008    2.783823    7.322072    1.272612
  27 C     6.0000    0    12.011    5.767350    9.557279   -0.406934
  28 H     1.0000    0     1.008    7.001603    9.543493    1.280641
  29 H     1.0000    0     1.008    7.052031    9.455698   -2.053399
  30 C     6.0000    0    12.011    4.290438   12.047566   -0.495248
  31 H     1.0000    0     1.008    3.007528   12.148085    1.153519
  32 H     1.0000    0     1.008    3.053658   12.057898   -2.181866
  33 C     6.0000    0    12.011    5.981664   14.398691   -0.535997
  34 H     1.0000    0     1.008    7.257631   14.319073   -2.188318
  35 H     1.0000    0     1.008    7.217132   14.405955    1.148665
  36 C     6.0000    0    12.011    4.462243   16.901943   -0.620145
  37 H     1.0000    0     1.008    3.230954   16.857035   -2.309022
  38 H     1.0000    0     1.008    3.192205   16.945964    1.039723
  39 C     6.0000    0    12.011    6.074251   19.215532   -0.663375
  40 H     1.0000    0     1.008    6.787430   20.043363    1.091103
  41 H     1.0000    0     1.008    6.831038   19.946710   -2.442393
  42 C     6.0000    0    12.011   10.347180   -0.251561   -0.033459
  43 H     1.0000    0     1.008   12.371067   -0.341690    0.012376
  44 H     1.0000    0     1.008   -0.296710  -13.742112   -0.013668
  45 H     1.0000    0     1.008   -1.981137    0.020820   -0.297893

--------------------------------
INTERNAL COORDINATES (ANGSTROEM)
--------------------------------
 C      0   0   0     0.000000000000     0.00000000     0.00000000
 C      1   0   0     4.216973050903     0.00000000     0.00000000
 C      2   1   0     1.404297663835    61.07157903     0.00000000
 C      3   2   1     1.397574938989   117.31081954   359.97574981
 C      4   3   2     1.410505485863   121.68836685     0.02957880
 C      5   4   3     1.417407170048   120.62203779     0.00000000
 C      2   1   3     1.395829163165    60.43327217   179.99025674
 H      4   3   2     1.090247485185   120.61650907   180.03591054
 H      7   2   1     1.090908691622   118.65991718   179.99821819
 C      3   2   1     1.520094892272   119.48523502   179.88447569
 H     10   3   2     1.106232804804   108.20987074    55.25002497
 H     10   3   2     1.106421646020   108.24053344   301.87619314
 C     10   3   2     1.530999771383   116.91141135   178.57054599
 H     13  10   3     1.105676426908   109.70002962   302.29864521
 H     13  10   3     1.105622267263   109.74601720    58.56061334
 C     13  10   3     1.533286186949   112.84168152   180.40549086
 H     16  13  10     1.106032877553   109.23749204   302.41768295
 H     16  13  10     1.106018995976   109.22712235    57.76765630
 C     16  13  10     1.530812900751   113.17649123   180.09341718
 H     19  16  13     1.103732092454   111.26880495    59.84756998
 H     19  16  13     1.103720125842   111.26903915   300.15197974
 C      6   5   4     1.517008437075   119.86353544   179.98649276
 H     22   6   5     1.105697286815   108.27913343   303.58225359
 H     22   6   5     1.105623015192   108.29062918    56.24301330
 C     22   6   5     1.531181618759   116.78396571   179.94186029
 H     25  22   6     1.105561635964   109.86168126   301.92989220
 H     25  22   6     1.105586778046   109.82910333    58.38772567
 C     25  22   6     1.533604625879   112.64225838   180.15998477
 H     28  25  22     1.106408163561   109.30815499   302.61138614
 H     28  25  22     1.106419619242   109.30198175    57.99734098
 C     28  25  22     1.532842714433   113.45350966   180.29336405
 H     31  28  25     1.106777006556   109.27074348    57.77947014
 H     31  28  25     1.106779430495   109.28913699   302.40788865
 C     31  28  25     1.532760128398   113.61337066   180.09916100
 H     34  31  28     1.105536344064   109.68231869    58.17317324
 H     34  31  28     1.105527048041   109.68044540   302.06525954
 C     34  31  28     1.550226867025   113.02738246   180.10848276
 H     37  34  31     1.106271241842   108.07910415   302.60001569
 H     37  34  31     1.106233160989   108.07679053    57.49168387
 C     37  34  31     1.492348336213   113.89018819   180.05530061
 H     40  37  34     1.093762176410   120.85021729   275.02677486
 H     40  37  34     1.093779008390   120.84323892    84.84498082
 C      1   2   3     1.216074245338   178.33904773     1.76439299
 H     43   1   5     1.072330402508   179.92346806   265.72951072
 H     19  16  13     1.102134827954   111.51533622   179.99665919
 H      2   1   3     1.094306812644   179.56910554   181.36193359

---------------------------
INTERNAL COORDINATES (A.U.)
---------------------------
 C      0   0   0     0.000000000000     0.00000000     0.00000000
 C      1   0   0     7.968924180334     0.00000000     0.00000000
 C      2   1   0     2.653737995154    61.07157903     0.00000000
 C      3   2   1     2.641033886321   117.31081954   359.97574981
 C      4   3   2     2.665469078675   121.68836685     0.02957880
 C      5   4   3     2.678511371647   120.62203779     0.00000000
 C      2   1   3     2.637734848122    60.43327217   179.99025674
 H      4   3   2     2.060269165196   120.61650907   180.03591054
 H      7   2   1     2.061518664279   118.65991718   179.99821819
 C      3   2   1     2.872563043966   119.48523502   179.88447569
 H     10   3   2     2.090477041439   108.20987074    55.25002497
 H     10   3   2     2.090833899621   108.24053344   301.87619314
 C     10   3   2     2.893170279010   116.91141135   178.57054599
 H     13  10   3     2.089425639588   109.70002962   302.29864521
 H     13  10   3     2.089323292692   109.74601720    58.56061334
 C     13  10   3     2.897490978258   112.84168152   180.40549086
 H     16  13  10     2.090099233689   109.23749204   302.41768295
 H     16  13  10     2.090073001309   109.22712235    57.76765630
 C     16  13  10     2.892817144693   113.17649123   180.09341718
 H     19  16  13     2.085751379957   111.26880495    59.84756998
 H     19  16  13     2.085728766339   111.26903915   300.15197974
 C      6   5   4     2.866730488921   119.86353544   179.98649276
 H     22   6   5     2.089465059100   108.27913343   303.58225359
 H     22   6   5     2.089324706072   108.29062918    56.24301330
 C     22   6   5     2.893513920748   116.78396571   179.94186029
 H     25  22   6     2.089208716142   109.86168126   301.92989220
 H     25  22   6     2.089256227791   109.82910333    58.38772567
 C     25  22   6     2.898092740626   112.64225838   180.15998477
 H     28  25  22     2.090808421465   109.30815499   302.61138614
 H     28  25  22     2.090830069566   109.30198175    57.99734098
 C     28  25  22     2.896652936654   113.45350966   180.29336405
 H     31  28  25     2.091505433712   109.27074348    57.77947014
 H     31  28  25     2.091510014293   109.28913699   302.40788865
 C     31  28  25     2.896496871666   113.61337066   180.09916100
 H     34  31  28     2.089160921378   109.68231869    58.17317324
 H     34  31  28     2.089143354440   109.68044540   302.06525954
 C     34  31  28     2.929504224124   113.02738246   180.10848276
 H     37  34  31     2.090549676915   108.07910415   302.60001569
 H     37  34  31     2.090477714531   108.07679053    57.49168387
 C     37  34  31     2.820129651856   113.89018819   180.05530061
 H     40  37  34     2.066910969057   120.85021729   275.02677486
 H     40  37  34     2.066942776888   120.84323892    84.84498082
 C      1   2   3     2.298047282204   178.33904773     1.76439299
 H     43   1   5     2.026410785818   179.92346806   265.72951072
 H     19  16  13     2.082732987490   111.51533622   179.99665919
 H      2   1   3     2.067940182381   179.56910554   181.36193359

---------------------
BASIS SET INFORMATION
---------------------
There are 2 groups of distinct atoms

 Group   1 Type C   : 10s5p1d contracted to 6s2p1d pattern {511111/41/1}
 Group   2 Type H   : 6s1p contracted to 4s1p pattern {3111/1}

Atom   0C    basis set group =>   1
Atom   1C    basis set group =>   1
Atom   2C    basis set group =>   1
Atom   3C    basis set group =>   1
Atom   4C    basis set group =>   1
Atom   5C    basis set group =>   1
Atom   6C    basis set group =>   1
Atom   7H    basis set group =>   2
Atom   8H    basis set group =>   2
Atom   9C    basis set group =>   1
Atom  10H    basis set group =>   2
Atom  11H    basis set group =>   2
Atom  12C    basis set group =>   1
Atom  13H    basis set group =>   2
Atom  14H    basis set group =>   2
Atom  15C    basis set group =>   1
Atom  16H    basis set group =>   2
Atom  17H    basis set group =>   2
Atom  18C    basis set group =>   1
Atom  19H    basis set group =>   2
Atom  20H    basis set group =>   2
Atom  21C    basis set group =>   1
Atom  22H    basis set group =>   2
Atom  23H    basis set group =>   2
Atom  24C    basis set group =>   1
Atom  25H    basis set group =>   2
Atom  26H    basis set group =>   2
Atom  27C    basis set group =>   1
Atom  28H    basis set group =>   2
Atom  29H    basis set group =>   2
Atom  30C    basis set group =>   1
Atom  31H    basis set group =>   2
Atom  32H    basis set group =>   2
Atom  33C    basis set group =>   1
Atom  34H    basis set group =>   2
Atom  35H    basis set group =>   2
Atom  36C    basis set group =>   1
Atom  37H    basis set group =>   2
Atom  38H    basis set group =>   2
Atom  39C    basis set group =>   1
Atom  40H    basis set group =>   2
Atom  41H    basis set group =>   2
Atom  42C    basis set group =>   1
Atom  43H    basis set group =>   2
Atom  44H    basis set group =>   2
Atom  45H    basis set group =>   2
---------------------------------
AUXILIARY/J BASIS SET INFORMATION
---------------------------------
There are 2 groups of distinct atoms

 Group   1 Type C   : 17s13p12d2f contracted to 17s13p12d2f pattern {11111111111111111/1111111111111/111111111111/11}
 Group   2 Type H   : 15s6p1d contracted to 15s6p1d pattern {111111111111111/111111/1}

Atom   0C    basis set group =>   1
Atom   1C    basis set group =>   1
Atom   2C    basis set group =>   1
Atom   3C    basis set group =>   1
Atom   4C    basis set group =>   1
Atom   5C    basis set group =>   1
Atom   6C    basis set group =>   1
Atom   7H    basis set group =>   2
Atom   8H    basis set group =>   2
Atom   9C    basis set group =>   1
Atom  10H    basis set group =>   2
Atom  11H    basis set group =>   2
Atom  12C    basis set group =>   1
Atom  13H    basis set group =>   2
Atom  14H    basis set group =>   2
Atom  15C    basis set group =>   1
Atom  16H    basis set group =>   2
Atom  17H    basis set group =>   2
Atom  18C    basis set group =>   1
Atom  19H    basis set group =>   2
Atom  20H    basis set group =>   2
Atom  21C    basis set group =>   1
Atom  22H    basis set group =>   2
Atom  23H    basis set group =>   2
Atom  24C    basis set group =>   1
Atom  25H    basis set group =>   2
Atom  26H    basis set group =>   2
Atom  27C    basis set group =>   1
Atom  28H    basis set group =>   2
Atom  29H    basis set group =>   2
Atom  30C    basis set group =>   1
Atom  31H    basis set group =>   2
Atom  32H    basis set group =>   2
Atom  33C    basis set group =>   1
Atom  34H    basis set group =>   2
Atom  35H    basis set group =>   2
Atom  36C    basis set group =>   1
Atom  37H    basis set group =>   2
Atom  38H    basis set group =>   2
Atom  39C    basis set group =>   1
Atom  40H    basis set group =>   2
Atom  41H    basis set group =>   2
Atom  42C    basis set group =>   1
Atom  43H    basis set group =>   2
Atom  44H    basis set group =>   2
Atom  45H    basis set group =>   2
---------------------------------
AUXILIARY/C BASIS SET INFORMATION
---------------------------------
There are 2 groups of distinct atoms

 Group   1 Type C   : 17s13p12d2f contracted to 17s13p12d2f pattern {11111111111111111/1111111111111/111111111111/11}
 Group   2 Type H   : 15s6p1d contracted to 15s6p1d pattern {111111111111111/111111/1}

Atom   0C    basis set group =>   1
Atom   1C    basis set group =>   1
Atom   2C    basis set group =>   1
Atom   3C    basis set group =>   1
Atom   4C    basis set group =>   1
Atom   5C    basis set group =>   1
Atom   6C    basis set group =>   1
Atom   7H    basis set group =>   2
Atom   8H    basis set group =>   2
Atom   9C    basis set group =>   1
Atom  10H    basis set group =>   2
Atom  11H    basis set group =>   2
Atom  12C    basis set group =>   1
Atom  13H    basis set group =>   2
Atom  14H    basis set group =>   2
Atom  15C    basis set group =>   1
Atom  16H    basis set group =>   2
Atom  17H    basis set group =>   2
Atom  18C    basis set group =>   1
Atom  19H    basis set group =>   2
Atom  20H    basis set group =>   2
Atom  21C    basis set group =>   1
Atom  22H    basis set group =>   2
Atom  23H    basis set group =>   2
Atom  24C    basis set group =>   1
Atom  25H    basis set group =>   2
Atom  26H    basis set group =>   2
Atom  27C    basis set group =>   1
Atom  28H    basis set group =>   2
Atom  29H    basis set group =>   2
Atom  30C    basis set group =>   1
Atom  31H    basis set group =>   2
Atom  32H    basis set group =>   2
Atom  33C    basis set group =>   1
Atom  34H    basis set group =>   2
Atom  35H    basis set group =>   2
Atom  36C    basis set group =>   1
Atom  37H    basis set group =>   2
Atom  38H    basis set group =>   2
Atom  39C    basis set group =>   1
Atom  40H    basis set group =>   2
Atom  41H    basis set group =>   2
Atom  42C    basis set group =>   1
Atom  43H    basis set group =>   2
Atom  44H    basis set group =>   2
Atom  45H    basis set group =>   2
----------------------------------
AUXILIARY/JK BASIS SET INFORMATION
----------------------------------
There are 2 groups of distinct atoms

 Group   1 Type C   : 17s13p12d2f contracted to 17s13p12d2f pattern {11111111111111111/1111111111111/111111111111/11}
 Group   2 Type H   : 15s6p1d contracted to 15s6p1d pattern {111111111111111/111111/1}

Atom   0C    basis set group =>   1
Atom   1C    basis set group =>   1
Atom   2C    basis set group =>   1
Atom   3C    basis set group =>   1
Atom   4C    basis set group =>   1
Atom   5C    basis set group =>   1
Atom   6C    basis set group =>   1
Atom   7H    basis set group =>   2
Atom   8H    basis set group =>   2
Atom   9C    basis set group =>   1
Atom  10H    basis set group =>   2
Atom  11H    basis set group =>   2
Atom  12C    basis set group =>   1
Atom  13H    basis set group =>   2
Atom  14H    basis set group =>   2
Atom  15C    basis set group =>   1
Atom  16H    basis set group =>   2
Atom  17H    basis set group =>   2
Atom  18C    basis set group =>   1
Atom  19H    basis set group =>   2
Atom  20H    basis set group =>   2
Atom  21C    basis set group =>   1
Atom  22H    basis set group =>   2
Atom  23H    basis set group =>   2
Atom  24C    basis set group =>   1
Atom  25H    basis set group =>   2
Atom  26H    basis set group =>   2
Atom  27C    basis set group =>   1
Atom  28H    basis set group =>   2
Atom  29H    basis set group =>   2
Atom  30C    basis set group =>   1
Atom  31H    basis set group =>   2
Atom  32H    basis set group =>   2
Atom  33C    basis set group =>   1
Atom  34H    basis set group =>   2
Atom  35H    basis set group =>   2
Atom  36C    basis set group =>   1
Atom  37H    basis set group =>   2
Atom  38H    basis set group =>   2
Atom  39C    basis set group =>   1
Atom  40H    basis set group =>   2
Atom  41H    basis set group =>   2
Atom  42C    basis set group =>   1
Atom  43H    basis set group =>   2
Atom  44H    basis set group =>   2
Atom  45H    basis set group =>   2

Checking for AutoStart:
The File: EPRII.gbw exists
Trying to determine its content:
     ... Fine, the file contains calculation information
     ... Fine, the calculation information was read
     ... Fine, the file contains a basis set
     ... Fine, the basis set was read
     ... Fine, the file contains a geometry
     ... Fine, the geometry was read
     ... Fine, the file contains a set of orbitals
     ... Fine, the orbitals can be read
     => possible old guess file was deleted
     => GBW file was renamed to GES file
     => GES file is set as startup file
     => Guess is set to MORead
     ... now leaving AutoStart



           ************************************************************
           *        Program running with 16 parallel MPI-processes    *
           *              working on a common directory               *
           ************************************************************
------------------------------------------------------------------------------
                           ORCA GTO INTEGRAL CALCULATION
                           -- RI-GTO INTEGRALS CHOSEN --
------------------------------------------------------------------------------
------------------------------------------------------------------------------
                   ___                                                        
                  /   \      - P O W E R E D   B Y -                         
                 /     \                                                     
                 |  |  |   _    _      __       _____    __    __             
                 |  |  |  | |  | |    /  \     |  _  \  |  |  /  |          
                  \  \/   | |  | |   /    \    | | | |  |  | /  /          
                 / \  \   | |__| |  /  /\  \   | |_| |  |  |/  /          
                |  |  |   |  __  | /  /__\  \  |    /   |      \           
                |  |  |   | |  | | |   __   |  |    \   |  |\   \          
                \     /   | |  | | |  |  |  |  | |\  \  |  | \   \       
                 \___/    |_|  |_| |__|  |__|  |_| \__\ |__|  \__/        
                                                                              
                      - O R C A' S   B I G   F R I E N D -                    
                                      &                                       
                       - I N T E G R A L  F E E D E R -                       
                                                                              
 v1 FN, 2020, v2 2021                                                         
------------------------------------------------------------------------------


Reading SHARK input file EPRII.SHARKINP.tmp ... ok
----------------------
SHARK INTEGRAL PACKAGE
----------------------

Number of atoms                             ...     46
Number of basis functions                   ...    512
Number of shells                            ...    306
Maximum angular momentum                    ...      2
Integral batch strategy                     ... SHARK/LIBINT Hybrid
RI-J (if used) integral strategy            ... SPLIT-RIJ (Revised 2003 algorithm where possible)
Printlevel                                  ...      1
Contraction scheme used                     ... SEGMENTED contraction
Coulomb Range Separation                    ... NOT USED
Exchange Range Separation                   ... NOT USED
Finite Nucleus Model                        ... NOT USED
Auxiliary Coulomb fitting basis             ... AVAILABLE
   # of basis functions in Aux-J            ...   3496
   # of shells in Aux-J                     ...   1430
   Maximum angular momentum in Aux-J        ...      3
Auxiliary J/K fitting basis                 ... AVAILABLE
   # of basis functions in Aux-JK           ...   3496
   # of shells in Aux-JK                    ...   1430
   Maximum angular momentum in Aux-JK       ...      3
Auxiliary Correlation fitting basis         ... AVAILABLE
   # of basis functions in Aux-C            ...   3496
   # of shells in Aux-C                     ...   1430
   Maximum angular momentum in Aux-C        ...      3
Auxiliary 'external' fitting basis          ... NOT available
Integral threshold                          ...     1.000000e-10
Primitive cut-off                           ...     1.000000e-11
Primitive pair pre-selection threshold      ...     1.000000e-11

Calculating pre-screening integrals         ... done (  0.0 sec) Dimension = 306
Organizing shell pair data                  ... done (  0.2 sec)
Shell pair information
Total number of shell pairs                 ...     46971
Shell pairs after pre-screening             ...     23500
Total number of primitive shell pairs       ...    122156
Primitive shell pairs kept                  ...     43976
          la=0 lb=0:  11083 shell pairs
          la=1 lb=0:   8109 shell pairs
          la=1 lb=1:   1385 shell pairs
          la=2 lb=0:   2067 shell pairs
          la=2 lb=1:    744 shell pairs
          la=2 lb=2:    112 shell pairs

Calculating one electron integrals          ... done (  0.0 sec)
Calculating RI/J V-Matrix + Cholesky decomp.... done (  1.0 sec)
Calculating RI/JK V-Matrix + Cholesky decomp... done (  0.8 sec)
Calculating RI/C V-Matrix + Cholesky decomp.... done (  0.8 sec)
Calculating Nuclear repulsion               ... done (  0.0 sec) ENN=   1249.871733714571 Eh

SHARK setup successfully completed in   3.4 seconds

Maximum memory used throughout the entire GTOINT-calculation: 46.8 MB


           ************************************************************
           *        Program running with 16 parallel MPI-processes    *
           *              working on a common directory               *
           ************************************************************
-------------------------------------------------------------------------------
                                 ORCA SCF
-------------------------------------------------------------------------------

------------
SCF SETTINGS
------------
Hamiltonian:
 Density Functional     Method          .... DFT(GTOs)
 Exchange Functional    Exchange        .... B88
   X-Alpha parameter    XAlpha          ....  0.666667
   Becke's b parameter  XBeta           ....  0.004200
 Correlation Functional Correlation     .... LYP
 LDA part of GGA corr.  LDAOpt          .... VWN-5
 Gradients option       PostSCFGGA      .... off
 Hybrid DFT is turned on
   Fraction HF Exchange ScalHFX         ....  0.200000
   Scaling of DF-GGA-X  ScalDFX         ....  0.720000
   Scaling of DF-GGA-C  ScalDFC         ....  0.810000
   Scaling of DF-LDA-C  ScalLDAC        ....  1.000000
   Perturbative correction              ....  0.000000
   Density functional embedding theory  .... OFF
   NL short-range parameter             ....  4.800000
 RI-approximation to the Coulomb term is turned on
   Number of AuxJ basis functions       .... 3496
   RIJ-COSX (HFX calculated with COS-X)).... on


General Settings:
 Integral files         IntName         .... EPRII
 Hartree-Fock type      HFTyp           .... UHF
 Total Charge           Charge          ....    0
 Multiplicity           Mult            ....    2
 Number of Electrons    NEL             ....  141
 Basis Dimension        Dim             ....  512
 Nuclear Repulsion      ENuc            ....   1249.8717337146 Eh

Convergence Acceleration:
 DIIS                   CNVDIIS         .... on
   Start iteration      DIISMaxIt       ....    12
   Startup error        DIISStart       ....  0.200000
   # of expansion vecs  DIISMaxEq       ....     5
   Bias factor          DIISBfac        ....   1.050
   Max. coefficient     DIISMaxC        ....  10.000
 Trust-Rad. Augm. Hess. CNVTRAH         .... auto
   Auto Start mean grad. ratio tolernc. ....  1.125000
   Auto Start start iteration           ....     1
   Auto Start num. interpolation iter.  ....    10
   Max. Number of Micro iterations      ....    16
   Max. Number of Macro iterations      .... Maxiter - #DIIS iter
   Number of Davidson start vectors     ....     2
   Converg. threshold I  (grad. norm)   ....   5.000e-05
   Converg. threshold II (energy diff.) ....   1.000e-06
   Grad. Scal. Fac. for Micro threshold ....   0.100
   Minimum threshold for Micro iter.    ....   0.010
   NR start threshold (gradient norm)   ....   0.001
   Initial trust radius                 ....   0.400
   Minimum AH scaling param. (alpha)    ....   1.000
   Maximum AH scaling param. (alpha)    .... 1000.000
   Orbital update algorithm             .... Taylor
   White noise on init. David. guess    .... on
   Maximum white noise                  ....   0.010
   Quad. conv. algorithm                .... NR
 SOSCF                  CNVSOSCF        .... off
 Level Shifting         CNVShift        .... on
   Level shift para.    LevelShift      ....    0.2500
   Turn off err/grad.   ShiftErr        ....    0.0010
 Zerner damping         CNVZerner       .... off
 Static damping         CNVDamp         .... on
   Fraction old density DampFac         ....    0.7000
   Max. Damping (<1)    DampMax         ....    0.9800
   Min. Damping (>=0)   DampMin         ....    0.0000
   Turn off err/grad.   DampErr         ....    0.1000
 Fernandez-Rico         CNVRico         .... off

SCF Procedure:
 Maximum # iterations   MaxIter         ....   125
 SCF integral mode      SCFMode         .... Direct
   Integral package                     .... SHARK and LIBINT hybrid scheme
 Reset frequency        DirectResetFreq ....    20
 Integral Threshold     Thresh          ....  1.000e-10 Eh
 Primitive CutOff       TCut            ....  1.000e-11 Eh

Convergence Tolerance:
 Convergence Check Mode ConvCheckMode   .... Total+1el-Energy
 Convergence forced     ConvForced      .... 0
 Energy Change          TolE            ....  1.000e-06 Eh
 1-El. energy change                    ....  1.000e-03 Eh
 DIIS Error             TolErr          ....  1.000e-06


Diagonalization of the overlap matrix:
Smallest eigenvalue                        ... 1.506e-04
Time for diagonalization                   ...    0.059 sec
Threshold for overlap eigenvalues          ... 1.000e-08
Number of eigenvalues below threshold      ... 0
Time for construction of square roots      ...    0.051 sec
Total time needed                          ...    0.112 sec

---------------------
INITIAL GUESS: MOREAD
---------------------
Guess MOs are being read from file: EPRII.ges
Input Geometry matches current geometry (good)
Input basis set matches current basis set (good)
MOs were renormalized
MOs were reorthogonalized (Cholesky)
                      ------------------
                      INITIAL GUESS DONE (   0.2 sec)
                      ------------------
-------------------
DFT GRID GENERATION
-------------------

General Integration Accuracy     IntAcc      ... 4.388
Radial Grid Type                 RadialGrid  ... OptM3 with GC (2021)
Angular Grid (max. ang.)         AngularGrid ... 4 (Lebedev-302)
Angular grid pruning method      GridPruning ... 4 (adaptive)
Weight generation scheme         WeightScheme... Becke
Basis function cutoff            BFCut       ... 1.0000e-10
Integration weight cutoff        WCut        ... 1.0000e-14
Angular grids for H and He will be reduced by one unit
Partially contracted basis set               ... off
Rotationally invariant grid construction     ... off

Total number of grid points                  ...   199575
Total number of batches                      ...     3141
Average number of points per batch           ...       63
Average number of grid points per atom       ...     4339
Time for grid setup =    1.073 sec

--------------------
COSX GRID GENERATION
--------------------

GRIDX 1
-------
General Integration Accuracy     IntAcc      ... 3.816
Radial Grid Type                 RadialGrid  ... OptM3 with GC (2021)
Angular Grid (max. ang.)         AngularGrid ... 1 (Lebedev-50)
Angular grid pruning method      GridPruning ... 4 (adaptive)
Weight generation scheme         WeightScheme... Becke
Basis function cutoff            BFCut       ... 1.0000e-10
Integration weight cutoff        WCut        ... 1.0000e-14
Angular grids for H and He will be reduced by one unit
Partially contracted basis set               ... on
Rotationally invariant grid construction     ... off

Total number of grid points                  ...    25466
Total number of batches                      ...      424
Average number of points per batch           ...       60
Average number of grid points per atom       ...      554
UseSFitting                                  ... on

GRIDX 2
-------
General Integration Accuracy     IntAcc      ... 4.020
Radial Grid Type                 RadialGrid  ... OptM3 with GC (2021)
Angular Grid (max. ang.)         AngularGrid ... 2 (Lebedev-110)
Angular grid pruning method      GridPruning ... 4 (adaptive)
Weight generation scheme         WeightScheme... Becke
Basis function cutoff            BFCut       ... 1.0000e-10
Integration weight cutoff        WCut        ... 1.0000e-14
Angular grids for H and He will be reduced by one unit
Partially contracted basis set               ... on
Rotationally invariant grid construction     ... off

Total number of grid points                  ...    53462
Total number of batches                      ...      857
Average number of points per batch           ...       62
Average number of grid points per atom       ...     1162
UseSFitting                                  ... on

GRIDX 3
-------
General Integration Accuracy     IntAcc      ... 4.338
Radial Grid Type                 RadialGrid  ... OptM3 with GC (2021)
Angular Grid (max. ang.)         AngularGrid ... 3 (Lebedev-194)
Angular grid pruning method      GridPruning ... 4 (adaptive)
Weight generation scheme         WeightScheme... Becke
Basis function cutoff            BFCut       ... 1.0000e-10
Integration weight cutoff        WCut        ... 1.0000e-14
Angular grids for H and He will be reduced by one unit
Partially contracted basis set               ... on
Rotationally invariant grid construction     ... off

Total number of grid points                  ...   116756
Total number of batches                      ...     1850
Average number of points per batch           ...       63
Average number of grid points per atom       ...     2538
UseSFitting                                  ... on

Time for X-Grid setup             =    2.194 sec

--------------
SCF ITERATIONS
--------------
ITER       Energy         Delta-E        Max-DP      RMS-DP      [F,P]     Damp
               ***  Starting incremental Fock matrix formation  ***
  0   -739.7691725350   0.000000000000 0.00005168  0.00000036  0.0000459 0.7000
                 **** Energy Check signals convergence ****

               *****************************************************
               *                     SUCCESS                       *
               *           SCF CONVERGED AFTER   1 CYCLES          *
               *****************************************************

Old exchange energy                            =    -21.583971676 Eh
New exchange energy                            =    -21.583889560 Eh
Exchange energy change after final integration =      0.000082117 Eh
Total energy after final integration           =   -739.769090233 Eh
Final COS-X integration done in                =     7.027 sec

----------------
TOTAL SCF ENERGY
----------------

Total Energy       :         -739.76909023 Eh          -20130.14034 eV

Components:
Nuclear Repulsion  :         1249.87173371 Eh           34010.73895 eV
Electronic Energy  :        -1989.64082395 Eh          -54140.87929 eV
One Electron Energy:        -3477.56812211 Eh          -94629.43947 eV
Two Electron Energy:         1487.92729816 Eh           40488.56018 eV
Max COSX asymmetry :            0.00000295 Eh               0.00008 eV

Virial components:
Potential Energy   :        -1473.60060688 Eh          -40098.71109 eV
Kinetic Energy     :          733.83151665 Eh           19968.57075 eV
Virial Ratio       :            2.00809119


DFT components:
N(Alpha)           :       71.000119842807 electrons
N(Beta)            :       70.000130723293 electrons
N(Total)           :      141.000250566099 electrons
E(X)               :      -85.550166270134 Eh       
E(C)               :       -5.416719785911 Eh       
E(XC)              :      -90.966886056045 Eh       
DFET-embed. en.    :        0.000000000000 Eh       

---------------
SCF CONVERGENCE
---------------

  Last Energy change         ...    1.8535e-07  Tolerance :   1.0000e-06
  Last MAX-Density change    ...    1.6896e-05  Tolerance :   1.0000e-05
  Last RMS-Density change    ...    1.1297e-07  Tolerance :   1.0000e-06
  Last DIIS Error            ...    2.0482e-05  Tolerance :   1.0000e-06

             **** THE GBW FILE WAS UPDATED (EPRII.gbw) ****
             **** DENSITY EPRII.scfp WAS UPDATED ****
             **** ENERGY FILE WAS UPDATED (EPRII.en.tmp) ****
----------------------
UHF SPIN CONTAMINATION
----------------------

Warning: in a DFT calculation there is little theoretical justification to 
         calculate <S**2> as in Hartree-Fock theory. We will do it anyways
         but you should keep in mind that the values have only limited relevance

Expectation value of <S**2>     :     0.753826
Ideal value S*(S+1) for S=0.5   :     0.750000
Deviation                       :     0.003826

             **** THE GBW FILE WAS UPDATED (EPRII.gbw) ****
             **** DENSITY EPRII.scfp WAS UPDATED ****
----------------
ORBITAL ENERGIES
----------------
                 SPIN UP ORBITALS
  NO   OCC          E(Eh)            E(eV) 
   0   1.0000     -10.215745      -277.9846 
   1   1.0000     -10.205414      -277.7034 
   2   1.0000     -10.201617      -277.6001 
   3   1.0000     -10.201147      -277.5873 
   4   1.0000     -10.193585      -277.3816 
   5   1.0000     -10.192790      -277.3599 
   6   1.0000     -10.192194      -277.3437 
   7   1.0000     -10.191592      -277.3273 
   8   1.0000     -10.188811      -277.2516 
   9   1.0000     -10.188565      -277.2450 
  10   1.0000     -10.185482      -277.1611 
  11   1.0000     -10.184611      -277.1374 
  12   1.0000     -10.182831      -277.0889 
  13   1.0000     -10.182168      -277.0709 
  14   1.0000     -10.181782      -277.0604 
  15   1.0000     -10.181288      -277.0469 
  16   1.0000     -10.179549      -276.9996 
  17   1.0000     -10.179323      -276.9934 
  18   1.0000     -10.173329      -276.8304 
  19   1.0000      -0.863224       -23.4895 
  20   1.0000      -0.811261       -22.0755 
  21   1.0000      -0.801944       -21.8220 
  22   1.0000      -0.782758       -21.2999 
  23   1.0000      -0.776716       -21.1355 
  24   1.0000      -0.757228       -20.6052 
  25   1.0000      -0.730515       -19.8783 
  26   1.0000      -0.722605       -19.6631 
  27   1.0000      -0.702840       -19.1253 
  28   1.0000      -0.666507       -18.1366 
  29   1.0000      -0.636475       -17.3194 
  30   1.0000      -0.617912       -16.8142 
  31   1.0000      -0.607555       -16.5324 
  32   1.0000      -0.582516       -15.8511 
  33   1.0000      -0.575567       -15.6620 
  34   1.0000      -0.569893       -15.5076 
  35   1.0000      -0.558799       -15.2057 
  36   1.0000      -0.526628       -14.3303 
  37   1.0000      -0.493732       -13.4351 
  38   1.0000      -0.479490       -13.0476 
  39   1.0000      -0.469938       -12.7877 
  40   1.0000      -0.467369       -12.7178 
  41   1.0000      -0.459674       -12.5084 
  42   1.0000      -0.458623       -12.4798 
  43   1.0000      -0.426017       -11.5925 
  44   1.0000      -0.425572       -11.5804 
  45   1.0000      -0.421350       -11.4655 
  46   1.0000      -0.418269       -11.3817 
  47   1.0000      -0.417501       -11.3608 
  48   1.0000      -0.410252       -11.1635 
  49   1.0000      -0.397506       -10.8167 
  50   1.0000      -0.388721       -10.5776 
  51   1.0000      -0.379667       -10.3313 
  52   1.0000      -0.369628       -10.0581 
  53   1.0000      -0.365771        -9.9531 
  54   1.0000      -0.357133        -9.7181 
  55   1.0000      -0.352885        -9.6025 
  56   1.0000      -0.352358        -9.5881 
  57   1.0000      -0.337672        -9.1885 
  58   1.0000      -0.336389        -9.1536 
  59   1.0000      -0.327962        -8.9243 
  60   1.0000      -0.323628        -8.8064 
  61   1.0000      -0.323526        -8.8036 
  62   1.0000      -0.321988        -8.7617 
  63   1.0000      -0.320877        -8.7315 
  64   1.0000      -0.317679        -8.6445 
  65   1.0000      -0.312980        -8.5166 
  66   1.0000      -0.299350        -8.1457 
  67   1.0000      -0.272173        -7.4062 
  68   1.0000      -0.241138        -6.5617 
  69   1.0000      -0.223372        -6.0783 
  70   1.0000      -0.198611        -5.4045 
  71   0.0000      -0.032645        -0.8883 
  72   0.0000       0.000404         0.0110 
  73   0.0000       0.020141         0.5481 
  74   0.0000       0.023534         0.6404 
  75   0.0000       0.024926         0.6783 
  76   0.0000       0.029950         0.8150 
  77   0.0000       0.032394         0.8815 
  78   0.0000       0.039214         1.0671 
  79   0.0000       0.043741         1.1903 
  80   0.0000       0.045064         1.2263 
  81   0.0000       0.050701         1.3796 
  82   0.0000       0.056525         1.5381 
  83   0.0000       0.063093         1.7169 
  84   0.0000       0.077834         2.1180 
  85   0.0000       0.081697         2.2231 
  86   0.0000       0.084735         2.3057 
  87   0.0000       0.089423         2.4333 
  88   0.0000       0.110911         3.0180 
  89   0.0000       0.116522         3.1707 
  90   0.0000       0.120309         3.2738 
  91   0.0000       0.146517         3.9869 
  92   0.0000       0.148103         4.0301 
  93   0.0000       0.155417         4.2291 
  94   0.0000       0.160136         4.3575 
  95   0.0000       0.165461         4.5024 
  96   0.0000       0.166007         4.5173 
  97   0.0000       0.173270         4.7149 
  98   0.0000       0.179861         4.8943 
  99   0.0000       0.184023         5.0075 
 100   0.0000       0.189371         5.1530 
 101   0.0000       0.193041         5.2529 
 102   0.0000       0.194023         5.2796 
 103   0.0000       0.197898         5.3851 
 104   0.0000       0.198414         5.3991 
 105   0.0000       0.206699         5.6246 
 106   0.0000       0.206985         5.6323 
 107   0.0000       0.216274         5.8851 
 108   0.0000       0.217524         5.9191 
 109   0.0000       0.217897         5.9293 
 110   0.0000       0.220475         5.9994 
 111   0.0000       0.229985         6.2582 
 112   0.0000       0.235310         6.4031 
 113   0.0000       0.239061         6.5052 
 114   0.0000       0.248642         6.7659 
 115   0.0000       0.251120         6.8333 
 116   0.0000       0.252438         6.8692 
 117   0.0000       0.253664         6.9025 
 118   0.0000       0.255126         6.9423 
 119   0.0000       0.257867         7.0169 
 120   0.0000       0.268929         7.3179 
 121   0.0000       0.273811         7.4508 
 122   0.0000       0.277975         7.5641 
 123   0.0000       0.279222         7.5980 
 124   0.0000       0.280146         7.6232 
 125   0.0000       0.284007         7.7282 
 126   0.0000       0.289342         7.8734 
 127   0.0000       0.293076         7.9750 
 128   0.0000       0.296199         8.0600 
 129   0.0000       0.299383         8.1466 
 130   0.0000       0.306878         8.3506 
 131   0.0000       0.310147         8.4395 
 132   0.0000       0.310429         8.4472 
 133   0.0000       0.312519         8.5041 
 134   0.0000       0.319495         8.6939 
 135   0.0000       0.320608         8.7242 
 136   0.0000       0.322068         8.7639 
 137   0.0000       0.324988         8.8434 
 138   0.0000       0.329272         8.9599 
 139   0.0000       0.331987         9.0338 
 140   0.0000       0.340878         9.2758 
 141   0.0000       0.345395         9.3987 
 142   0.0000       0.351098         9.5539 
 143   0.0000       0.356192         9.6925 
 144   0.0000       0.366105         9.9622 
 145   0.0000       0.370195        10.0735 
 146   0.0000       0.371526        10.1097 
 147   0.0000       0.375537        10.2189 
 148   0.0000       0.380743        10.3605 
 149   0.0000       0.384262        10.4563 
 150   0.0000       0.390756        10.6330 
 151   0.0000       0.399374        10.8675 
 152   0.0000       0.402383        10.9494 
 153   0.0000       0.408451        11.1145 
 154   0.0000       0.417316        11.3557 
 155   0.0000       0.421393        11.4667 
 156   0.0000       0.425334        11.5739 
 157   0.0000       0.427193        11.6245 
 158   0.0000       0.429730        11.6936 
 159   0.0000       0.441271        12.0076 
 160   0.0000       0.449973        12.2444 
 161   0.0000       0.456162        12.4128 
 162   0.0000       0.457512        12.4495 
 163   0.0000       0.466032        12.6814 
 164   0.0000       0.476555        12.9677 
 165   0.0000       0.477346        12.9893 
 166   0.0000       0.480912        13.0863 
 167   0.0000       0.485515        13.2115 
 168   0.0000       0.490429        13.3453 
 169   0.0000       0.505587        13.7577 
 170   0.0000       0.508871        13.8471 
 171   0.0000       0.512055        13.9337 
 172   0.0000       0.513549        13.9744 
 173   0.0000       0.517878        14.0922 
 174   0.0000       0.530015        14.4225 
 175   0.0000       0.535844        14.5811 
 176   0.0000       0.546363        14.8673 
 177   0.0000       0.547758        14.9052 
 178   0.0000       0.553685        15.0665 
 179   0.0000       0.560768        15.2593 
 180   0.0000       0.574613        15.6360 
 181   0.0000       0.584745        15.9117 
 182   0.0000       0.589140        16.0313 
 183   0.0000       0.589484        16.0407 
 184   0.0000       0.598658        16.2903 
 185   0.0000       0.606898        16.5145 
 186   0.0000       0.622162        16.9299 
 187   0.0000       0.644768        17.5450 
 188   0.0000       0.655596        17.8397 
 189   0.0000       0.675278        18.3752 
 190   0.0000       0.687898        18.7187 
 191   0.0000       0.694976        18.9113 
 192   0.0000       0.714751        19.4494 
 193   0.0000       0.742783        20.2121 
 194   0.0000       0.759052        20.6549 
 195   0.0000       0.772485        21.0204 
 196   0.0000       0.777050        21.1446 
 197   0.0000       0.783586        21.3225 
 198   0.0000       0.812414        22.1069 
 199   0.0000       0.815314        22.1858 
 200   0.0000       0.836383        22.7591 
 201   0.0000       0.845425        23.0052 
 202   0.0000       0.846365        23.0308 
 203   0.0000       0.848563        23.0906 
 204   0.0000       0.859506        23.3884 
 205   0.0000       0.863325        23.4923 
 206   0.0000       0.867713        23.6117 
 207   0.0000       0.879716        23.9383 
 208   0.0000       0.882402        24.0114 
 209   0.0000       0.887561        24.1518 
 210   0.0000       0.898200        24.4413 
 211   0.0000       0.901423        24.5290 
 212   0.0000       0.911078        24.7917 
 213   0.0000       0.918483        24.9932 
 214   0.0000       0.920592        25.0506 
 215   0.0000       0.924205        25.1489 
 216   0.0000       0.924504        25.1570 
 217   0.0000       0.928111        25.2552 
 218   0.0000       0.934409        25.4266 
 219   0.0000       0.942163        25.6376 
 220   0.0000       0.944583        25.7034 
 221   0.0000       0.948728        25.8162 
 222   0.0000       0.953604        25.9489 
 223   0.0000       0.963512        26.2185 
 224   0.0000       0.969220        26.3738 
 225   0.0000       0.972821        26.4718 
 226   0.0000       0.987225        26.8638 
 227   0.0000       0.990455        26.9517 
 228   0.0000       0.994745        27.0684 
 229   0.0000       0.997271        27.1371 
 230   0.0000       0.999257        27.1912 
 231   0.0000       1.000253        27.2183 
 232   0.0000       1.015959        27.6456 
 233   0.0000       1.019005        27.7285 
 234   0.0000       1.031030        28.0557 
 235   0.0000       1.033402        28.1203 
 236   0.0000       1.036088        28.1934 
 237   0.0000       1.039221        28.2786 
 238   0.0000       1.050889        28.5961 
 239   0.0000       1.056511        28.7491 
 240   0.0000       1.062951        28.9244 
 241   0.0000       1.079786        29.3825 
 242   0.0000       1.087668        29.5970 
 243   0.0000       1.089513        29.6472 
 244   0.0000       1.106807        30.1178 
 245   0.0000       1.109401        30.1883 
 246   0.0000       1.109763        30.1982 
 247   0.0000       1.126437        30.6519 
 248   0.0000       1.135566        30.9003 
 249   0.0000       1.157761        31.5043 
 250   0.0000       1.159112        31.5410 
 251   0.0000       1.178663        32.0730 
 252   0.0000       1.180090        32.1119 
 253   0.0000       1.184336        32.2274 
 254   0.0000       1.191677        32.4272 
 255   0.0000       1.195362        32.5274 
 256   0.0000       1.202168        32.7127 
 257   0.0000       1.205368        32.7997 
 258   0.0000       1.208902        32.8959 
 259   0.0000       1.211242        32.9596 
 260   0.0000       1.221059        33.2267 
 261   0.0000       1.240341        33.7514 
 262   0.0000       1.248562        33.9751 
 263   0.0000       1.268824        34.5265 
 264   0.0000       1.279411        34.8146 
 265   0.0000       1.285442        34.9787 
 266   0.0000       1.291825        35.1523 
 267   0.0000       1.300168        35.3794 
 268   0.0000       1.302085        35.4315 
 269   0.0000       1.321853        35.9694 
 270   0.0000       1.340321        36.4720 
 271   0.0000       1.346731        36.6464 
 272   0.0000       1.362787        37.0833 
 273   0.0000       1.369549        37.2673 
 274   0.0000       1.378330        37.5063 
 275   0.0000       1.379628        37.5416 
 276   0.0000       1.388437        37.7813 
 277   0.0000       1.392461        37.8908 
 278   0.0000       1.408620        38.3305 
 279   0.0000       1.411271        38.4026 
 280   0.0000       1.425701        38.7953 
 281   0.0000       1.432535        38.9813 
 282   0.0000       1.447217        39.3808 
 283   0.0000       1.449640        39.4467 
 284   0.0000       1.462593        39.7992 
 285   0.0000       1.483186        40.3595 
 286   0.0000       1.492266        40.6066 
 287   0.0000       1.502032        40.8724 
 288   0.0000       1.506111        40.9834 
 289   0.0000       1.510520        41.1034 
 290   0.0000       1.522107        41.4186 
 291   0.0000       1.528112        41.5820 
 292   0.0000       1.542166        41.9645 
 293   0.0000       1.547010        42.0963 
 294   0.0000       1.554509        42.3003 
 295   0.0000       1.558082        42.3976 
 296   0.0000       1.573859        42.8269 
 297   0.0000       1.580121        42.9973 
 298   0.0000       1.584762        43.1236 
 299   0.0000       1.586027        43.1580 
 300   0.0000       1.588850        43.2348 
 301   0.0000       1.597593        43.4727 
 302   0.0000       1.604116        43.6502 
 303   0.0000       1.605232        43.6806 
 304   0.0000       1.607363        43.7386 
 305   0.0000       1.610197        43.8157 
 306   0.0000       1.617021        44.0014 
 307   0.0000       1.619021        44.0558 
 308   0.0000       1.629515        44.3414 
 309   0.0000       1.639458        44.6119 
 310   0.0000       1.652694        44.9721 
 311   0.0000       1.660971        45.1973 
 312   0.0000       1.674765        45.5727 
 313   0.0000       1.676552        45.6213 
 314   0.0000       1.681227        45.7485 
 315   0.0000       1.691097        46.0171 
 316   0.0000       1.697748        46.1981 
 317   0.0000       1.701893        46.3109 
 318   0.0000       1.709813        46.5264 
 319   0.0000       1.716760        46.7154 
 320   0.0000       1.719353        46.7860 
 321   0.0000       1.724372        46.9225 
 322   0.0000       1.731302        47.1111 
 323   0.0000       1.742758        47.4229 
 324   0.0000       1.753180        47.7065 
 325   0.0000       1.754571        47.7443 
 326   0.0000       1.758254        47.8445 
 327   0.0000       1.763881        47.9976 
 328   0.0000       1.772927        48.2438 
 329   0.0000       1.776024        48.3281 
 330   0.0000       1.780561        48.4515 
 331   0.0000       1.787639        48.6441 
 332   0.0000       1.792036        48.7638 
 333   0.0000       1.798623        48.9430 
 334   0.0000       1.808507        49.2120 
 335   0.0000       1.821794        49.5735 
 336   0.0000       1.827838        49.7380 
 337   0.0000       1.830807        49.8188 
 338   0.0000       1.835824        49.9553 
 339   0.0000       1.856216        50.5102 
 340   0.0000       1.869575        50.8737 
 341   0.0000       1.899613        51.6911 
 342   0.0000       1.905401        51.8486 
 343   0.0000       1.920145        52.2498 
 344   0.0000       1.922661        52.3183 
 345   0.0000       1.936052        52.6827 
 346   0.0000       1.944770        52.9199 
 347   0.0000       1.954545        53.1859 
 348   0.0000       1.961468        53.3743 
 349   0.0000       1.968702        53.5711 
 350   0.0000       1.988928        54.1215 
 351   0.0000       2.009718        54.6872 
 352   0.0000       2.010555        54.7100 
 353   0.0000       2.043685        55.6115 
 354   0.0000       2.055710        55.9387 
 355   0.0000       2.070044        56.3288 
 356   0.0000       2.074290        56.4443 
 357   0.0000       2.075723        56.4833 
 358   0.0000       2.100247        57.1506 
 359   0.0000       2.114348        57.5343 
 360   0.0000       2.128937        57.9313 
 361   0.0000       2.149185        58.4823 
 362   0.0000       2.155702        58.6596 
 363   0.0000       2.187539        59.5260 
 364   0.0000       2.194538        59.7164 
 365   0.0000       2.202267        59.9267 
 366   0.0000       2.221985        60.4633 
 367   0.0000       2.228191        60.6322 
 368   0.0000       2.235451        60.8297 
 369   0.0000       2.236535        60.8592 
 370   0.0000       2.258414        61.4546 
 371   0.0000       2.260602        61.5141 
 372   0.0000       2.264607        61.6231 
 373   0.0000       2.280176        62.0467 
 374   0.0000       2.291336        62.3504 
 375   0.0000       2.303766        62.6887 
 376   0.0000       2.309567        62.8465 
 377   0.0000       2.317972        63.0752 
 378   0.0000       2.320939        63.1560 
 379   0.0000       2.328447        63.3603 
 380   0.0000       2.334059        63.5130 
 381   0.0000       2.349810        63.9416 
 382   0.0000       2.357518        64.1513 
 383   0.0000       2.369422        64.4753 
 384   0.0000       2.376406        64.6653 
 385   0.0000       2.401648        65.3522 
 386   0.0000       2.415274        65.7230 
 387   0.0000       2.428244        66.0759 
 388   0.0000       2.438761        66.3620 
 389   0.0000       2.442589        66.4662 
 390   0.0000       2.447111        66.5893 
 391   0.0000       2.450246        66.6746 
 392   0.0000       2.455087        66.8063 
 393   0.0000       2.467089        67.1329 
 394   0.0000       2.472169        67.2711 
 395   0.0000       2.481509        67.5253 
 396   0.0000       2.492256        67.8177 
 397   0.0000       2.498376        67.9843 
 398   0.0000       2.505912        68.1893 
 399   0.0000       2.517288        68.4989 
 400   0.0000       2.526489        68.7493 
 401   0.0000       2.534861        68.9771 
 402   0.0000       2.555830        69.5477 
 403   0.0000       2.564018        69.7705 
 404   0.0000       2.568531        69.8933 
 405   0.0000       2.583850        70.3101 
 406   0.0000       2.601307        70.7852 
 407   0.0000       2.614050        71.1319 
 408   0.0000       2.620242        71.3004 
 409   0.0000       2.623003        71.3755 
 410   0.0000       2.645449        71.9863 
 411   0.0000       2.655711        72.2656 
 412   0.0000       2.695455        73.3471 
 413   0.0000       2.697084        73.3914 
 414   0.0000       2.729102        74.2627 
 415   0.0000       2.783927        75.7545 
 416   0.0000       2.866798        78.0095 
 417   0.0000       2.913928        79.2920 
 418   0.0000       2.968226        80.7695 
 419   0.0000       3.293340        89.6163 
 420   0.0000       4.983437       135.6062 
 421   0.0000       4.994121       135.8970 
 422   0.0000       5.006890       136.2444 
 423   0.0000       5.009266       136.3091 
 424   0.0000       5.011155       136.3604 
 425   0.0000       5.023875       136.7066 
 426   0.0000       5.024518       136.7241 
 427   0.0000       5.030235       136.8796 
 428   0.0000       5.033830       136.9775 
 429   0.0000       5.045300       137.2896 
 430   0.0000       5.054994       137.5534 
 431   0.0000       5.056388       137.5913 
 432   0.0000       5.073376       138.0536 
 433   0.0000       5.141031       139.8946 
 434   0.0000       5.161772       140.4590 
 435   0.0000       5.203970       141.6072 
 436   0.0000       5.227082       142.2361 
 437   0.0000       5.237070       142.5079 
 438   0.0000       5.251231       142.8932 
 439   0.0000       5.251540       142.9017 
 440   0.0000       5.275317       143.5487 
 441   0.0000       5.296292       144.1194 
 442   0.0000       5.301079       144.2497 
 443   0.0000       5.308365       144.4480 
 444   0.0000       5.321275       144.7993 
 445   0.0000       5.337206       145.2328 
 446   0.0000       5.356326       145.7530 
 447   0.0000       5.381568       146.4399 
 448   0.0000       5.396394       146.8434 
 449   0.0000       5.415651       147.3674 
 450   0.0000       5.433981       147.8661 
 451   0.0000       5.462360       148.6384 
 452   0.0000       5.512112       149.9922 
 453   0.0000       5.514568       150.0590 
 454   0.0000       5.577173       151.7626 
 455   0.0000       5.601524       152.4252 
 456   0.0000       5.623267       153.0169 
 457   0.0000       5.668245       154.2408 
 458   0.0000       5.723964       155.7570 
 459   0.0000       5.740253       156.2002 
 460   0.0000       5.793320       157.6443 
 461   0.0000       5.820397       158.3811 
 462   0.0000       5.864708       159.5868 
 463   0.0000       5.905279       160.6908 
 464   0.0000       6.061815       164.9504 
 465   0.0000       6.321554       172.0182 
 466   0.0000      29.619233       805.9803 
 467   0.0000      29.722755       808.7973 
 468   0.0000      29.807048       811.0910 
 469   0.0000      29.839721       811.9801 
 470   0.0000      29.885221       813.2182 
 471   0.0000      29.929135       814.4132 
 472   0.0000      29.966179       815.4212 
 473   0.0000      29.995804       816.2273 
 474   0.0000      30.015910       816.7744 
 475   0.0000      30.077980       818.4634 
 476   0.0000      30.107158       819.2574 
 477   0.0000      30.122858       819.6846 
 478   0.0000      30.147093       820.3441 
 479   0.0000      30.202292       821.8461 
 480   0.0000      30.244882       823.0051 
 481   0.0000      30.272666       823.7611 
 482   0.0000      30.317857       824.9908 
 483   0.0000      30.366255       826.3078 
 484   0.0000      30.548225       831.2595 
 485   0.0000      36.611867       996.2595 
 486   0.0000      36.621819       996.5304 
 487   0.0000      36.627108       996.6743 
 488   0.0000      36.632406       996.8185 
 489   0.0000      36.635809       996.9111 
 490   0.0000      36.642582       997.0953 
 491   0.0000      36.650285       997.3050 
 492   0.0000      36.660017       997.5698 
 493   0.0000      36.670970       997.8678 
 494   0.0000      36.681034       998.1417 
 495   0.0000      36.685312       998.2581 
 496   0.0000      36.700134       998.6614 
 497   0.0000      36.764536      1000.4139 
 498   0.0000      36.786969      1001.0243 
 499   0.0000      36.825584      1002.0751 
 500   0.0000      36.839152      1002.4443 
 501   0.0000      36.861872      1003.0625 
 502   0.0000      36.868778      1003.2504 
 503   0.0000      36.874211      1003.3983 
 504   0.0000      36.880323      1003.5646 
 505   0.0000      36.887437      1003.7582 
 506   0.0000      36.921652      1004.6892 
 507   0.0000      36.932380      1004.9812 
 508   0.0000      36.962140      1005.7910 
 509   0.0000      36.974026      1006.1144 
 510   0.0000      36.994162      1006.6623 
 511   0.0000      37.018184      1007.3160 

                 SPIN DOWN ORBITALS
  NO   OCC          E(Eh)            E(eV) 
   0   1.0000     -10.215745      -277.9845 
   1   1.0000     -10.205411      -277.7034 
   2   1.0000     -10.201617      -277.6001 
   3   1.0000     -10.201147      -277.5873 
   4   1.0000     -10.193585      -277.3815 
   5   1.0000     -10.192790      -277.3599 
   6   1.0000     -10.192194      -277.3437 
   7   1.0000     -10.191592      -277.3273 
   8   1.0000     -10.188811      -277.2516 
   9   1.0000     -10.186339      -277.1844 
  10   1.0000     -10.184605      -277.1372 
  11   1.0000     -10.182831      -277.0889 
  12   1.0000     -10.182168      -277.0709 
  13   1.0000     -10.181252      -277.0460 
  14   1.0000     -10.180219      -277.0178 
  15   1.0000     -10.179480      -276.9977 
  16   1.0000     -10.179169      -276.9893 
  17   1.0000     -10.174781      -276.8699 
  18   1.0000     -10.173329      -276.8304 
  19   1.0000      -0.863221       -23.4894 
  20   1.0000      -0.810837       -22.0640 
  21   1.0000      -0.800282       -21.7768 
  22   1.0000      -0.780536       -21.2395 
  23   1.0000      -0.775655       -21.1066 
  24   1.0000      -0.754356       -20.5271 
  25   1.0000      -0.726743       -19.7757 
  26   1.0000      -0.722586       -19.6626 
  27   1.0000      -0.698947       -19.0193 
  28   1.0000      -0.660842       -17.9824 
  29   1.0000      -0.633295       -17.2328 
  30   1.0000      -0.616871       -16.7859 
  31   1.0000      -0.602681       -16.3998 
  32   1.0000      -0.579621       -15.7723 
  33   1.0000      -0.574072       -15.6213 
  34   1.0000      -0.563537       -15.3346 
  35   1.0000      -0.556869       -15.1532 
  36   1.0000      -0.526617       -14.3300 
  37   1.0000      -0.493703       -13.4343 
  38   1.0000      -0.478590       -13.0231 
  39   1.0000      -0.469934       -12.7875 
  40   1.0000      -0.467334       -12.7168 
  41   1.0000      -0.459595       -12.5062 
  42   1.0000      -0.456335       -12.4175 
  43   1.0000      -0.425164       -11.5693 
  44   1.0000      -0.423421       -11.5219 
  45   1.0000      -0.420792       -11.4503 
  46   1.0000      -0.417957       -11.3732 
  47   1.0000      -0.415721       -11.3124 
  48   1.0000      -0.408162       -11.1066 
  49   1.0000      -0.393566       -10.7095 
  50   1.0000      -0.386529       -10.5180 
  51   1.0000      -0.377262       -10.2658 
  52   1.0000      -0.367463        -9.9992 
  53   1.0000      -0.364968        -9.9313 
  54   1.0000      -0.355438        -9.6720 
  55   1.0000      -0.351680        -9.5697 
  56   1.0000      -0.351417        -9.5625 
  57   1.0000      -0.336736        -9.1631 
  58   1.0000      -0.334820        -9.1109 
  59   1.0000      -0.327318        -8.9068 
  60   1.0000      -0.323307        -8.7976 
  61   1.0000      -0.323175        -8.7940 
  62   1.0000      -0.321519        -8.7490 
  63   1.0000      -0.319964        -8.7066 
  64   1.0000      -0.317210        -8.6317 
  65   1.0000      -0.309751        -8.4287 
  66   1.0000      -0.299349        -8.1457 
  67   1.0000      -0.272163        -7.4059 
  68   1.0000      -0.241138        -6.5617 
  69   1.0000      -0.223371        -6.0782 
  70   0.0000      -0.050972        -1.3870 
  71   0.0000      -0.032644        -0.8883 
  72   0.0000       0.000405         0.0110 
  73   0.0000       0.020149         0.5483 
  74   0.0000       0.023558         0.6410 
  75   0.0000       0.025132         0.6839 
  76   0.0000       0.030040         0.8174 
  77   0.0000       0.033782         0.9193 
  78   0.0000       0.040062         1.0901 
  79   0.0000       0.044750         1.2177 
  80   0.0000       0.045292         1.2324 
  81   0.0000       0.051073         1.3898 
  82   0.0000       0.058322         1.5870 
  83   0.0000       0.063444         1.7264 
  84   0.0000       0.077835         2.1180 
  85   0.0000       0.081860         2.2275 
  86   0.0000       0.086346         2.3496 
  87   0.0000       0.089545         2.4366 
  88   0.0000       0.110947         3.0190 
  89   0.0000       0.116780         3.1777 
  90   0.0000       0.121401         3.3035 
  91   0.0000       0.146727         3.9927 
  92   0.0000       0.148122         4.0306 
  93   0.0000       0.155700         4.2368 
  94   0.0000       0.161812         4.4031 
  95   0.0000       0.166570         4.5326 
  96   0.0000       0.169402         4.6097 
  97   0.0000       0.174281         4.7424 
  98   0.0000       0.181606         4.9418 
  99   0.0000       0.184466         5.0196 
 100   0.0000       0.190096         5.1728 
 101   0.0000       0.194009         5.2792 
 102   0.0000       0.195259         5.3133 
 103   0.0000       0.197929         5.3859 
 104   0.0000       0.198973         5.4143 
 105   0.0000       0.207053         5.6342 
 106   0.0000       0.207462         5.6453 
 107   0.0000       0.216715         5.8971 
 108   0.0000       0.217986         5.9317 
 109   0.0000       0.218447         5.9442 
 110   0.0000       0.220537         6.0011 
 111   0.0000       0.230426         6.2702 
 112   0.0000       0.236070         6.4238 
 113   0.0000       0.241700         6.5770 
 114   0.0000       0.250879         6.8268 
 115   0.0000       0.251440         6.8420 
 116   0.0000       0.253303         6.8927 
 117   0.0000       0.253893         6.9088 
 118   0.0000       0.255864         6.9624 
 119   0.0000       0.265219         7.2170 
 120   0.0000       0.269940         7.3454 
 121   0.0000       0.275273         7.4906 
 122   0.0000       0.279738         7.6121 
 123   0.0000       0.280287         7.6270 
 124   0.0000       0.285646         7.7728 
 125   0.0000       0.285760         7.7759 
 126   0.0000       0.289637         7.8814 
 127   0.0000       0.294138         8.0039 
 128   0.0000       0.296296         8.0626 
 129   0.0000       0.300208         8.1691 
 130   0.0000       0.307276         8.3614 
 131   0.0000       0.310647         8.4531 
 132   0.0000       0.312380         8.5003 
 133   0.0000       0.312576         8.5056 
 134   0.0000       0.319612         8.6971 
 135   0.0000       0.320867         8.7312 
 136   0.0000       0.322489         8.7754 
 137   0.0000       0.328213         8.9311 
 138   0.0000       0.329733         8.9725 
 139   0.0000       0.332054         9.0356 
 140   0.0000       0.342131         9.3099 
 141   0.0000       0.346779         9.4363 
 142   0.0000       0.351781         9.5724 
 143   0.0000       0.356793         9.7088 
 144   0.0000       0.366182         9.9643 
 145   0.0000       0.370562        10.0835 
 146   0.0000       0.371793        10.1170 
 147   0.0000       0.375799        10.2260 
 148   0.0000       0.384483        10.4623 
 149   0.0000       0.389952        10.6111 
 150   0.0000       0.391693        10.6585 
 151   0.0000       0.400884        10.9086 
 152   0.0000       0.404812        11.0155 
 153   0.0000       0.414417        11.2769 
 154   0.0000       0.417539        11.3618 
 155   0.0000       0.422105        11.4861 
 156   0.0000       0.427497        11.6328 
 157   0.0000       0.428063        11.6482 
 158   0.0000       0.435637        11.8543 
 159   0.0000       0.441723        12.0199 
 160   0.0000       0.450572        12.2607 
 161   0.0000       0.456364        12.4183 
 162   0.0000       0.463442        12.6109 
 163   0.0000       0.472439        12.8557 
 164   0.0000       0.477973        13.0063 
 165   0.0000       0.478362        13.0169 
 166   0.0000       0.483111        13.1461 
 167   0.0000       0.487536        13.2665 
 168   0.0000       0.491203        13.3663 
 169   0.0000       0.508502        13.8371 
 170   0.0000       0.511123        13.9084 
 171   0.0000       0.514004        13.9868 
 172   0.0000       0.517448        14.0805 
 173   0.0000       0.519484        14.1359 
 174   0.0000       0.531119        14.4525 
 175   0.0000       0.537638        14.6299 
 176   0.0000       0.546720        14.8770 
 177   0.0000       0.548170        14.9165 
 178   0.0000       0.553999        15.0751 
 179   0.0000       0.562429        15.3045 
 180   0.0000       0.576938        15.6993 
 181   0.0000       0.585115        15.9218 
 182   0.0000       0.589158        16.0318 
 183   0.0000       0.590450        16.0670 
 184   0.0000       0.599150        16.3037 
 185   0.0000       0.608063        16.5462 
 186   0.0000       0.622210        16.9312 
 187   0.0000       0.646360        17.5884 
 188   0.0000       0.656053        17.8521 
 189   0.0000       0.675559        18.3829 
 190   0.0000       0.687963        18.7204 
 191   0.0000       0.695182        18.9169 
 192   0.0000       0.717071        19.5125 
 193   0.0000       0.742971        20.2173 
 194   0.0000       0.759439        20.6654 
 195   0.0000       0.772500        21.0208 
[...]
  Z           0.8647620            0.0855341            0.4948440

Notes:  (1) The A matrix conforms to the "SAI" spin Hamiltonian convention.
        (2) Tensor is right-handed.

 -----------------------------------------------------------
 Nucleus  43H : A:ISTP=    1 I=  0.5 P=533.5514 MHz/au**3
                Q:ISTP=    2 I=  1.0 Q=  0.0029 barn     
 -----------------------------------------------------------
 Solving for nuclear perturbation:
Forming RHS of the CP-SCF equations         ... 
Calc. nucleus orbit integrals (SHARK)       ... done

------------------------------------------------------------------------------
                           ORCA CP-SCF CALCULATION
------------------------------------------------------------------------------

Input orbitals are from        ... EPRII.gbw
Input Perturbation             ... EPRII.pin.tmp
Wavefunction output            ... EPRII.pout.tmp
Perturbation mode              ... Imaginary perturbation
Solver                         ... POPLE
Max. number of iterations      ... 64
Convergence tolerance          ... 1.000e-03
Integral handling              ... Direct
DFT GridXC                     ... 1
COSX GridX                     ... 1
COSX IntAccX                   ... 3.067
COSX Algorithm                 ... Auto
Number of perturbations        ... 3
Number of operators            ... 2
Orbital ranges used for CP-SCF:
 Operator 0:  Orbitals   0... 70  to  71...511
 Operator 1:  Orbitals   0... 69  to  70...511
Variables per perturbation     ... 62251
DFT calculation                         ... on
XC functional terms                     ... off
Hybrid DFT                              ... on
   Exchange mixing (SCF)                ...  0.200
   Exchange mixing (CP-SCF)             ...  0.200
   GGA exch. scaling(SCF)               ...  0.720
   GGA exch. scaling (CP-SCF)           ...  0.720
   GGA corr. scaling (SCF)              ...  0.810
   GGA corr. scaling (CP-SCF)           ...  0.810

CP-SCF GRID
-----------

General Integration Accuracy     IntAcc      ... 3.467
Radial Grid Type                 RadialGrid  ... OptM3 with GC (2021)
Angular Grid (max. ang.)         AngularGrid ... 1 (Lebedev-50)
Angular grid pruning method      GridPruning ... 4 (adaptive)
Weight generation scheme         WeightScheme... Becke
Basis function cutoff            BFCut       ... 1.0000e-10
Integration weight cutoff        WCut        ... 1.0000e-14
Angular grids for H and He will be reduced by one unit
Partially contracted basis set               ... off
Rotationally invariant grid construction     ... off

Total number of grid points                  ...    27866
Total number of batches                      ...      455
Average number of points per batch           ...       61
Average number of grid points per atom       ...      606

CP-SCF GRIDX
------------

General Integration Accuracy     IntAcc      ... 3.067
Radial Grid Type                 RadialGrid  ... OptM3 with GC (2021)
Angular Grid (max. ang.)         AngularGrid ... 1 (Lebedev-50)
Angular grid pruning method      GridPruning ... 4 (adaptive)
Weight generation scheme         WeightScheme... Becke
Basis function cutoff            BFCut       ... 1.0000e-10
Integration weight cutoff        WCut        ... 1.0000e-14
Angular grids for H and He will be reduced by one unit
Partially contracted basis set               ... on
Rotationally invariant grid construction     ... off

Total number of grid points                  ...    13256
Total number of batches                      ...      234
Average number of points per batch           ...       56
Average number of grid points per atom       ...      288

Memory available               ... 877.0 MB
Memory needed per perturbation ...  15.3 MB
Perturbations treated per batch... 3
Number of batches              ... 1
     CP-SCF ITERATION   0:   1.0072e-01 (   1.6 sec   0/  3 done)
     CP-SCF ITERATION   1:   1.6696e-03 (   1.6 sec   2/  3 done)
     CP-SCF ITERATION   2:   8.2890e-05 (   1.2 sec   3/  3 done)
                    *** THE CP-SCF HAS CONVERGED ***

Forming final perturbed densities           ... done
Transforming perturbed density to AO basis  ... done

 Raw HFC matrix (all values in MHz): 
 -----------------------------------
                -0.0437              -0.0592               0.0021
                -0.0593               0.1097              -0.0061
                 0.0021              -0.0061              -0.0652

 A(FC)           0.0002               0.0002               0.0002
 A(SD)          -0.0642              -0.0657               0.1298
 A(ORB+DIA)      0.0000               0.0000               0.0000    A(PC) =   0.0000
 A(ORB)         -0.0000              -0.0000               0.0000    A(PC) =  -0.0000
 A(DIA)          0.0000               0.0000               0.0000    A(PC) =   0.0000
             ----------           ----------           ----------
 A(Tot)         -0.0639              -0.0654               0.1301    A(iso)=    0.0003
 Orientation: 
  X           0.9462946           -0.0183002            0.3227872
  Y           0.3232057            0.0287454           -0.9458920
  Z           0.0080313            0.9994192            0.0331164

Notes:  (1) The A matrix conforms to the "SAI" spin Hamiltonian convention.
        (2) Tensor is right-handed.

 -----------------------------------------------------------
 Nucleus  44H : A:ISTP=    1 I=  0.5 P=533.5514 MHz/au**3
                Q:ISTP=    2 I=  1.0 Q=  0.0029 barn     
 -----------------------------------------------------------
 Solving for nuclear perturbation:
Forming RHS of the CP-SCF equations         ... 
Calc. nucleus orbit integrals (SHARK)       ... done

------------------------------------------------------------------------------
                           ORCA CP-SCF CALCULATION
------------------------------------------------------------------------------

Input orbitals are from        ... EPRII.gbw
Input Perturbation             ... EPRII.pin.tmp
Wavefunction output            ... EPRII.pout.tmp
Perturbation mode              ... Imaginary perturbation
Solver                         ... POPLE
Max. number of iterations      ... 64
Convergence tolerance          ... 1.000e-03
Integral handling              ... Direct
DFT GridXC                     ... 1
COSX GridX                     ... 1
COSX IntAccX                   ... 3.067
COSX Algorithm                 ... Auto
Number of perturbations        ... 3
Number of operators            ... 2
Orbital ranges used for CP-SCF:
 Operator 0:  Orbitals   0... 70  to  71...511
 Operator 1:  Orbitals   0... 69  to  70...511
Variables per perturbation     ... 62251
DFT calculation                         ... on
XC functional terms                     ... off
Hybrid DFT                              ... on
   Exchange mixing (SCF)                ...  0.200
   Exchange mixing (CP-SCF)             ...  0.200
   GGA exch. scaling(SCF)               ...  0.720
   GGA exch. scaling (CP-SCF)           ...  0.720
   GGA corr. scaling (SCF)              ...  0.810
   GGA corr. scaling (CP-SCF)           ...  0.810

CP-SCF GRID
-----------

General Integration Accuracy     IntAcc      ... 3.467
Radial Grid Type                 RadialGrid  ... OptM3 with GC (2021)
Angular Grid (max. ang.)         AngularGrid ... 1 (Lebedev-50)
Angular grid pruning method      GridPruning ... 4 (adaptive)
Weight generation scheme         WeightScheme... Becke
Basis function cutoff            BFCut       ... 1.0000e-10
Integration weight cutoff        WCut        ... 1.0000e-14
Angular grids for H and He will be reduced by one unit
Partially contracted basis set               ... off
Rotationally invariant grid construction     ... off

Total number of grid points                  ...    27866
Total number of batches                      ...      455
Average number of points per batch           ...       61
Average number of grid points per atom       ...      606

CP-SCF GRIDX
------------

General Integration Accuracy     IntAcc      ... 3.067
Radial Grid Type                 RadialGrid  ... OptM3 with GC (2021)
Angular Grid (max. ang.)         AngularGrid ... 1 (Lebedev-50)
Angular grid pruning method      GridPruning ... 4 (adaptive)
Weight generation scheme         WeightScheme... Becke
Basis function cutoff            BFCut       ... 1.0000e-10
Integration weight cutoff        WCut        ... 1.0000e-14
Angular grids for H and He will be reduced by one unit
Partially contracted basis set               ... on
Rotationally invariant grid construction     ... off

Total number of grid points                  ...    13256
Total number of batches                      ...      234
Average number of points per batch           ...       56
Average number of grid points per atom       ...      288

Memory available               ... 876.5 MB
Memory needed per perturbation ...  15.3 MB
Perturbations treated per batch... 3
Number of batches              ... 1
     CP-SCF ITERATION   0:   3.6982e-02 (   1.7 sec   0/  3 done)
     CP-SCF ITERATION   1:   5.6009e-04 (   1.6 sec   3/  3 done)
                    *** THE CP-SCF HAS CONVERGED ***

Forming final perturbed densities           ... done
Transforming perturbed density to AO basis  ... done

 Raw HFC matrix (all values in MHz): 
 -----------------------------------
                -0.0130               0.0081              -0.0002
                 0.0081               0.0276              -0.0008
                -0.0002              -0.0008              -0.0146

 A(FC)           0.0000               0.0000               0.0000
 A(SD)          -0.0146              -0.0146               0.0292
 A(ORB+DIA)      0.0000               0.0000               0.0000    A(PC) =   0.0000
 A(ORB)         -0.0000              -0.0000               0.0000    A(PC) =  -0.0000
 A(DIA)          0.0000               0.0000               0.0000    A(PC) =   0.0000
             ----------           ----------           ----------
 A(Tot)         -0.0145              -0.0146               0.0292    A(iso)=    0.0000
 Orientation: 
  X           0.9817003           -0.0169514           -0.1896762
  Y          -0.1892728            0.0228888           -0.9816577
  Z           0.0209820            0.9995943            0.0192615

Notes:  (1) The A matrix conforms to the "SAI" spin Hamiltonian convention.
        (2) Tensor is right-handed.

 -----------------------------------------------------------
 Nucleus  45H : A:ISTP=    1 I=  0.5 P=533.5514 MHz/au**3
                Q:ISTP=    2 I=  1.0 Q=  0.0029 barn     
 -----------------------------------------------------------
 Solving for nuclear perturbation:
Forming RHS of the CP-SCF equations         ... 
Calc. nucleus orbit integrals (SHARK)       ... done

------------------------------------------------------------------------------
                           ORCA CP-SCF CALCULATION
------------------------------------------------------------------------------

Input orbitals are from        ... EPRII.gbw
Input Perturbation             ... EPRII.pin.tmp
Wavefunction output            ... EPRII.pout.tmp
Perturbation mode              ... Imaginary perturbation
Solver                         ... POPLE
Max. number of iterations      ... 64
Convergence tolerance          ... 1.000e-03
Integral handling              ... Direct
DFT GridXC                     ... 1
COSX GridX                     ... 1
COSX IntAccX                   ... 3.067
COSX Algorithm                 ... Auto
Number of perturbations        ... 3
Number of operators            ... 2
Orbital ranges used for CP-SCF:
 Operator 0:  Orbitals   0... 70  to  71...511
 Operator 1:  Orbitals   0... 69  to  70...511
Variables per perturbation     ... 62251
DFT calculation                         ... on
XC functional terms                     ... off
Hybrid DFT                              ... on
   Exchange mixing (SCF)                ...  0.200
   Exchange mixing (CP-SCF)             ...  0.200
   GGA exch. scaling(SCF)               ...  0.720
   GGA exch. scaling (CP-SCF)           ...  0.720
   GGA corr. scaling (SCF)              ...  0.810
   GGA corr. scaling (CP-SCF)           ...  0.810

CP-SCF GRID
-----------

General Integration Accuracy     IntAcc      ... 3.467
Radial Grid Type                 RadialGrid  ... OptM3 with GC (2021)
Angular Grid (max. ang.)         AngularGrid ... 1 (Lebedev-50)
Angular grid pruning method      GridPruning ... 4 (adaptive)
Weight generation scheme         WeightScheme... Becke
Basis function cutoff            BFCut       ... 1.0000e-10
Integration weight cutoff        WCut        ... 1.0000e-14
Angular grids for H and He will be reduced by one unit
Partially contracted basis set               ... off
Rotationally invariant grid construction     ... off

Total number of grid points                  ...    27866
Total number of batches                      ...      455
Average number of points per batch           ...       61
Average number of grid points per atom       ...      606

CP-SCF GRIDX
------------

General Integration Accuracy     IntAcc      ... 3.067
Radial Grid Type                 RadialGrid  ... OptM3 with GC (2021)
Angular Grid (max. ang.)         AngularGrid ... 1 (Lebedev-50)
Angular grid pruning method      GridPruning ... 4 (adaptive)
Weight generation scheme         WeightScheme... Becke
Basis function cutoff            BFCut       ... 1.0000e-10
Integration weight cutoff        WCut        ... 1.0000e-14
Angular grids for H and He will be reduced by one unit
Partially contracted basis set               ... on
Rotationally invariant grid construction     ... off

Total number of grid points                  ...    13256
Total number of batches                      ...      234
Average number of points per batch           ...       56
Average number of grid points per atom       ...      288

Memory available               ... 876.0 MB
Memory needed per perturbation ...  15.3 MB
Perturbations treated per batch... 3
Number of batches              ... 1
     CP-SCF ITERATION   0:   4.3441e-02 (   1.6 sec   0/  3 done)
     CP-SCF ITERATION   1:   1.6826e-03 (   1.6 sec   1/  3 done)
     CP-SCF ITERATION   2:   7.7816e-05 (   1.4 sec   3/  3 done)
                    *** THE CP-SCF HAS CONVERGED ***

Forming final perturbed densities           ... done
Transforming perturbed density to AO basis  ... done

 Raw HFC matrix (all values in MHz): 
 -----------------------------------
                -0.0326               0.0691              -0.0013
                 0.0691               0.0959              -0.0030
                -0.0013              -0.0030              -0.0643

 A(FC)          -0.0004              -0.0004              -0.0004
 A(SD)          -0.0625              -0.0640               0.1264
 A(ORB+DIA)      0.0000               0.0000               0.0000    A(PC) =   0.0000
 A(ORB)         -0.0000              -0.0000               0.0000    A(PC) =  -0.0000
 A(DIA)          0.0000               0.0000               0.0000    A(PC) =   0.0000
             ----------           ----------           ----------
 A(Tot)         -0.0628              -0.0643               0.1261    A(iso)=   -0.0003
 Orientation: 
  X           0.9166244           -0.0180387           -0.3993424
  Y          -0.3988280            0.0265285           -0.9166419
  Z           0.0271290            0.9994853            0.0171224

Notes:  (1) The A matrix conforms to the "SAI" spin Hamiltonian convention.
        (2) Tensor is right-handed.


--------------------------------------------------------------------------------
----------------------------------------------------------------------------
                           ORCA EULER ANGLE PROGRAM
----------------------------------------------------------------------------

Only g-tensor available        -->  using g-tensor as reference tensor

Reference tensor               ...  g

g-tensor ordering              ...  |g_min> --> |gx>
                                    |g_mid> --> |gy>
                                    |g_max> --> |gz>

A- and EFG-tensor ordering     ...  the axes |Ax>, |Qx>, |Ay>, etc. are assigned
                                    such that the Euler rotation is minimal. You
                                    can find the respective eigenvalues as Ax,
                                    EFGx, Ay, etc. in the tables below.
                                    The relation of |Ax>, |Ay>,  etc. to Amin, Amid, etc.
                                    (as printed in the ORCA EPR/NMR CALCULATION Output)
                                    is obtained in the detailed printout.

Euler rotation around          ...  z - y - z
   First rotation              -->  by alpha around z
   Second rotation             -->  by beta around y'
   Third rotation              -->  by gamma around z''
   Positive / Negative angle   -->  clockwise / counterclockwise rotation

Plot EFG-tensors                    (-)
Plot HFC-tensors                    (-)
Detailed Printout                   (-)

-------------------------------------------------------------------------
          Euler rotation of hyperfine tensor to g-tensor
-------------------------------------------------------------------------

-------------------------------------------------------------------
 Atom  |   Alpha    Beta    Gamma   |   Ax       Ay       Az 
       |          [degrees]         |           [MHz]         
-------------------------------------------------------------------
  7H      -74.8      0.2     38.0       0.10    -0.04    -0.04
  8H      -16.7      0.3     49.5      -0.13     0.28    -0.15
 10H      -41.5      5.9     78.9      -0.04     0.07    -0.04
 11H      137.7      5.9   -100.1      -0.04     0.07    -0.04
 13H     -125.5      6.7     83.0       0.06    -0.03    -0.03
 14H       47.7      5.3    -90.0       0.06    -0.03    -0.03
 16H      146.7      5.7   -106.7      -0.02     0.04    -0.02
 17H      -33.4      6.2     73.4      -0.02     0.04    -0.02
 19H       24.5      3.1    -66.0       0.03    -0.02    -0.02
 20H     -155.0      3.7    113.4       0.03    -0.02    -0.02
 22H      -75.0     34.6     48.8       0.38    -0.19    -0.23
 23H      104.9     33.6   -131.1       0.38    -0.19    -0.23
 25H      -18.0     42.8     49.1      -0.36     0.55    -0.49
 26H      161.9     42.0   -130.8      -0.36     0.56    -0.49
 28H      -63.1     33.6     43.1       1.56    -0.32    -0.54
 29H      116.9     33.4   -136.9       1.56    -0.31    -0.54
 31H      154.3     43.7   -136.4      -1.39     1.70    -2.29
 32H      -25.7     43.8     43.6      -1.39     1.70    -2.29
 34H      139.4     40.9   -140.4       3.27    -6.30    -9.72
 35H      -40.5     40.7     39.6       3.26    -6.31    -9.73
 37H     -140.8     38.6    157.9      29.74    43.40    29.35
 38H       39.5     38.6    -22.4      29.49    43.14    29.09
 40H       96.6     30.8    -80.6     -65.14  -102.08   -24.85
 41H      -83.4     30.6     99.4     -65.14  -102.08   -24.85
 43H      -47.7      0.3     31.9       0.13    -0.06    -0.07
 44H      -55.7      0.3    100.2      -0.01     0.03    -0.01
 45H      -23.9      0.3     55.7      -0.06     0.13    -0.06
-------------------------------------------------------------------


Maximum memory used throughout the entire EPRNMR-calculation: 205.2 MB

Timings for individual modules:

Sum of individual times         ...     3714.861 sec (=  61.914 min)
GTO integral calculation        ...        5.814 sec (=   0.097 min)   0.2 %
Spin-Orbit-Coupling Matrices    ...       11.149 sec (=   0.186 min)   0.3 %
SCF iterations                  ...       29.779 sec (=   0.496 min)   0.8 %
EPR/NMR calculation             ...     3668.119 sec (=  61.135 min)  98.7 %
                             ****ORCA TERMINATED NORMALLY****
TOTAL RUN TIME: 0 days 1 hours 1 minutes 59 seconds 508 msec
