
                                 *****************
                                 * O   R   C   A *
                                 *****************

                                            #,                                       
                                            ###                                      
                                            ####                                     
                                            #####                                    
                                            ######                                   
                                           ########,                                 
                                     ,,################,,,,,                         
                               ,,#################################,,                 
                          ,,##########################################,,             
                       ,#########################################, ''#####,          
                    ,#############################################,,   '####,        
                  ,##################################################,,,,####,       
                ,###########''''           ''''###############################       
              ,#####''   ,,,,##########,,,,          '''####'''          '####       
            ,##' ,,,,###########################,,,                        '##       
           ' ,,###''''                  '''############,,,                           
         ,,##''                                '''############,,,,        ,,,,,,###''
      ,#''                                            '''#######################'''  
     '                                                          ''''####''''         
             ,#######,   #######,   ,#######,      ##                                
            ,#'     '#,  ##    ##  ,#'     '#,    #''#        ######   ,####,        
            ##       ##  ##   ,#'  ##            #'  '#       #        #'  '#        
            ##       ##  #######   ##           ,######,      #####,   #    #        
            '#,     ,#'  ##    ##  '#,     ,#' ,#      #,         ##   #,  ,#        
             '#######'   ##     ##  '#######'  #'      '#     #####' # '####'        



                  #######################################################
                  #                        -***-                        #
                  #          Department of theory and spectroscopy      #
                  #    Directorship and core code : Frank Neese         #
                  #        Max Planck Institute fuer Kohlenforschung    #
                  #                Kaiser Wilhelm Platz 1               #
                  #                 D-45470 Muelheim/Ruhr               #
                  #                      Germany                        #
                  #                                                     #
                  #                  All rights reserved                #
                  #                        -***-                        #
                  #######################################################


                         Program Version 5.0.4 -  RELEASE  -


 With contributions from (in alphabetic order):
   Daniel Aravena         : Magnetic Suceptibility
   Michael Atanasov       : Ab Initio Ligand Field Theory (pilot matlab implementation)
   Alexander A. Auer      : GIAO ZORA, VPT2 properties, NMR spectrum
   Ute Becker             : Parallelization
   Giovanni Bistoni       : ED, misc. LED, open-shell LED, HFLD
   Martin Brehm           : Molecular dynamics
   Dmytro Bykov           : SCF Hessian
   Vijay G. Chilkuri      : MRCI spin determinant printing, contributions to CSF-ICE
   Dipayan Datta          : RHF DLPNO-CCSD density
   Achintya Kumar Dutta   : EOM-CC, STEOM-CC
   Dmitry Ganyushin       : Spin-Orbit,Spin-Spin,Magnetic field MRCI
   Miquel Garcia          : C-PCM and meta-GGA Hessian, CC/C-PCM, Gaussian charge scheme
   Yang Guo               : DLPNO-NEVPT2, F12-NEVPT2, CIM, IAO-localization
   Andreas Hansen         : Spin unrestricted coupled pair/coupled cluster methods
   Benjamin Helmich-Paris : MC-RPA, TRAH-SCF, COSX integrals
   Lee Huntington         : MR-EOM, pCC
   Robert Izsak           : Overlap fitted RIJCOSX, COSX-SCS-MP3, EOM
   Marcus Kettner         : VPT2
   Christian Kollmar      : KDIIS, OOCD, Brueckner-CCSD(T), CCSD density, CASPT2, CASPT2-K
   Simone Kossmann        : Meta GGA functionals, TD-DFT gradient, OOMP2, MP2 Hessian
   Martin Krupicka        : Initial AUTO-CI
   Lucas Lang             : DCDCAS
   Marvin Lechner         : AUTO-CI (C++ implementation), FIC-MRCC
   Dagmar Lenk            : GEPOL surface, SMD
   Dimitrios Liakos       : Extrapolation schemes; Compound Job, initial MDCI parallelization
   Dimitrios Manganas     : Further ROCIS development; embedding schemes
   Dimitrios Pantazis     : SARC Basis sets
   Anastasios Papadopoulos: AUTO-CI, single reference methods and gradients
   Taras Petrenko         : DFT Hessian,TD-DFT gradient, ASA, ECA, R-Raman, ABS, FL, XAS/XES, NRVS
   Peter Pinski           : DLPNO-MP2, DLPNO-MP2 Gradient
   Christoph Reimann      : Effective Core Potentials
   Marius Retegan         : Local ZFS, SOC
   Christoph Riplinger    : Optimizer, TS searches, QM/MM, DLPNO-CCSD(T), (RO)-DLPNO pert. Triples
   Tobias Risthaus        : Range-separated hybrids, TD-DFT gradient, RPA, STAB
   Michael Roemelt        : Original ROCIS implementation
   Masaaki Saitow         : Open-shell DLPNO-CCSD energy and density
   Barbara Sandhoefer     : DKH picture change effects
   Avijit Sen             : IP-ROCIS
   Kantharuban Sivalingam : CASSCF convergence, NEVPT2, FIC-MRCI
   Bernardo de Souza      : ESD, SOC TD-DFT
   Georgi Stoychev        : AutoAux, RI-MP2 NMR, DLPNO-MP2 response
   Willem Van den Heuvel  : Paramagnetic NMR
   Boris Wezisla          : Elementary symmetry handling
   Frank Wennmohs         : Technical directorship


 We gratefully acknowledge several colleagues who have allowed us to
 interface, adapt or use parts of their codes:
   Stefan Grimme, W. Hujo, H. Kruse, P. Pracht,  : VdW corrections, initial TS optimization,
                  C. Bannwarth, S. Ehlert          DFT functionals, gCP, sTDA/sTD-DF
   Ed Valeev, F. Pavosevic, A. Kumar             : LibInt (2-el integral package), F12 methods
   Garnet Chan, S. Sharma, J. Yang, R. Olivares  : DMRG
   Ulf Ekstrom                                   : XCFun DFT Library
   Mihaly Kallay                                 : mrcc  (arbitrary order and MRCC methods)
   Jiri Pittner, Ondrej Demel                    : Mk-CCSD
   Frank Weinhold                                : gennbo (NPA and NBO analysis)
   Christopher J. Cramer and Donald G. Truhlar   : smd solvation model
   Lars Goerigk                                  : TD-DFT with DH, B97 family of functionals
   V. Asgeirsson, H. Jonsson                     : NEB implementation
   FAccTs GmbH                                   : IRC, NEB, NEB-TS, DLPNO-Multilevel, CI-OPT
                                                   MM, QMMM, 2- and 3-layer-ONIOM, Crystal-QMMM,
                                                   LR-CPCM, SF, NACMEs, symmetry and pop. for TD-DFT,
                                                   nearIR, NL-DFT gradient (VV10), updates on ESD,
                                                   ML-optimized integration grids
   S Lehtola, MJT Oliveira, MAL Marques          : LibXC Library
   Liviu Ungur et al                             : ANISO software


 Your calculation uses the libint2 library for the computation of 2-el integrals
 For citations please refer to: http://libint.valeyev.net

 Your ORCA version has been built with support for libXC version: 5.1.0
 For citations please refer to: https://tddft.org/programs/libxc/

 This ORCA versions uses:
   CBLAS   interface :  Fast vector & matrix operations
   LAPACKE interface :  Fast linear algebra routines
   SCALAPACK package :  Parallel linear algebra routines
   Shared memory     :  Shared parallel matrices
   BLAS/LAPACK       :  OpenBLAS 0.3.15  USE64BITINT DYNAMIC_ARCH NO_AFFINITY SkylakeX SINGLE_THREADED
        Core in use  :  SkylakeX
   Copyright (c) 2011-2014, The OpenBLAS Project




***************************************
The coordinates will be read from file: opt.xyz
***************************************


================================================================================

----- Orbital basis set information -----
Your calculation utilizes the basis: EPR-II
   V. Barone, in Recent Advances in Density Functional Methods, Part 1 (ed. D. P. Chong), World Scientific, Singapore, 1995, p. 287.

----- AuxJ basis set information -----
Your calculation utilizes the AutoAux generation procedure.
  G. L. Stoychev, A. A. Auer, F. Neese, J. Chem. Theory Comput. 13, 554 (2017)

----- AuxC basis set information -----
Your calculation utilizes the AutoAux generation procedure.
  G. L. Stoychev, A. A. Auer, F. Neese, J. Chem. Theory Comput. 13, 554 (2017)

----- AuxJK basis set information -----
Your calculation utilizes the AutoAux generation procedure.
  G. L. Stoychev, A. A. Auer, F. Neese, J. Chem. Theory Comput. 13, 554 (2017)

================================================================================
                                        WARNINGS
                       Please study these warnings very carefully!
================================================================================


WARNING: your system is open-shell and RHF/RKS was chosen
  ===> : WILL SWITCH to UHF/UKS


INFO   : the flag for use of the SHARK integral package has been found!

================================================================================
                                       INPUT FILE
================================================================================
NAME = EPRII_i.inp
|  1> ! B3LYP EPR-II AUTOAUX
|  2> %pal nprocs 16 end
|  3> *XYZFile 0 2 opt.xyz
|  4> %EPRNMR
|  5>         GTENSOR   TRUE
|  6>         NUCLEI    = ALL H {SHIFT, AISO, ADIP, AORB}
|  7>         ORI       GIAO
|  8> END
|  9> 
| 10>                          ****END OF INPUT****
================================================================================

                       ****************************
                       * Single Point Calculation *
                       ****************************

---------------------------------
CARTESIAN COORDINATES (ANGSTROEM)
---------------------------------
  C      4.260893   -0.079127   -0.043591
  C      0.045387   -0.014079   -0.133807
  C      0.704757   -1.253015   -0.085632
  C      2.101931   -1.235147   -0.057350
  C      2.827985   -0.025998   -0.075534
  C      2.154195    1.220084   -0.123807
  C      0.753332    1.188758   -0.152097
  H      2.668495   -2.165884   -0.020281
  H      0.193946    2.124579   -0.189644
  C     -0.111949   -2.534903   -0.064556
  H     -0.786166   -2.529706   -0.941570
  H     -0.783040   -2.503561    0.814548
  C      0.667170   -3.852699   -0.045898
  H      1.334018   -3.903925   -0.926359
  H      1.326150   -3.884500    0.841308
  C     -0.246311   -5.084124   -0.035413
  H     -0.916771   -5.033046    0.842757
  H     -0.906915   -5.055142   -0.922002
  C      0.524988   -6.406261   -0.014444
  H      1.168051   -6.480501    0.879526
  H      1.177898   -6.502965   -0.899066
  C      2.952208    2.510100   -0.142411
  H      3.610046    2.523794    0.746200
  H      3.648976    2.474747   -1.000122
  C      2.153064    3.815083   -0.196314
  H      1.507351    3.823318   -1.093673
  H      1.473136    3.874674    0.673437
  C      3.051950    5.057494   -0.215340
  H      3.705089    5.050199    0.677686
  H      3.731774    5.003740   -1.086612
  C      2.270402    6.375297   -0.262074
  H      1.591515    6.428490    0.610416
  H      1.615926    6.380765   -1.154594
  C      3.165360    7.619459   -0.283638
  H      3.840573    7.577327   -1.158008
  H      3.819142    7.623303    0.607847
  C      2.361317    8.944123   -0.328166
  H      1.709747    8.920359   -1.221882
  H      1.689242    8.967418    0.550198
  C      3.214355   10.168422   -0.351043
  H      3.591753   10.606491    0.577387
  H      3.614830   10.555345   -1.292458
  C      5.475492   -0.133120   -0.017706
  H      6.546487   -0.180814    0.006549
  H     -0.157012   -7.272012   -0.007233
  H     -1.048373    0.011018   -0.157638

----------------------------
CARTESIAN COORDINATES (A.U.)
----------------------------
  NO LB      ZA    FRAG     MASS         X           Y           Z
   0 C     6.0000    0    12.011    8.051921   -0.149527   -0.082375
   1 C     6.0000    0    12.011    0.085769   -0.026606   -0.252858
   2 C     6.0000    0    12.011    1.331798   -2.367856   -0.161822
   3 C     6.0000    0    12.011    3.972075   -2.334090   -0.108376
   4 C     6.0000    0    12.011    5.344118   -0.049130   -0.142739
   5 C     6.0000    0    12.011    4.070839    2.305624   -0.233961
   6 C     6.0000    0    12.011    1.423591    2.246428   -0.287422
   7 H     1.0000    0     1.008    5.042724   -4.092928   -0.038325
   8 H     1.0000    0     1.008    0.366505    4.014872   -0.358375
   9 C     6.0000    0    12.011   -0.211552   -4.790273   -0.121992
  10 H     1.0000    0     1.008   -1.485639   -4.780452   -1.779310
  11 H     1.0000    0     1.008   -1.479730   -4.731045    1.539273
  12 C     6.0000    0    12.011    1.260769   -7.280546   -0.086736
  13 H     1.0000    0     1.008    2.520928   -7.377350   -1.750565
  14 H     1.0000    0     1.008    2.506061   -7.340641    1.589841
  15 C     6.0000    0    12.011   -0.465461   -9.607602   -0.066921
  16 H     1.0000    0     1.008   -1.732446   -9.511078    1.592581
  17 H     1.0000    0     1.008   -1.713821   -9.552835   -1.742332
  18 C     6.0000    0    12.011    0.992083  -12.106079   -0.027295
  19 H     1.0000    0     1.008    2.207296  -12.246371    1.662064
  20 H     1.0000    0     1.008    2.225904  -12.288822   -1.698988
  21 C     6.0000    0    12.011    5.578866    4.743402   -0.269117
  22 H     1.0000    0     1.008    6.821997    4.769279    1.410114
  23 H     1.0000    0     1.008    6.895565    4.676594   -1.889956
  24 C     6.0000    0    12.011    4.068702    7.209462   -0.370980
  25 H     1.0000    0     1.008    2.848481    7.225024   -2.066743
  26 H     1.0000    0     1.008    2.783823    7.322072    1.272612
  27 C     6.0000    0    12.011    5.767350    9.557279   -0.406934
  28 H     1.0000    0     1.008    7.001603    9.543493    1.280641
  29 H     1.0000    0     1.008    7.052031    9.455698   -2.053399
  30 C     6.0000    0    12.011    4.290438   12.047566   -0.495248
  31 H     1.0000    0     1.008    3.007528   12.148085    1.153519
  32 H     1.0000    0     1.008    3.053658   12.057898   -2.181866
  33 C     6.0000    0    12.011    5.981664   14.398691   -0.535997
  34 H     1.0000    0     1.008    7.257631   14.319073   -2.188318
  35 H     1.0000    0     1.008    7.217132   14.405955    1.148665
  36 C     6.0000    0    12.011    4.462243   16.901943   -0.620145
  37 H     1.0000    0     1.008    3.230954   16.857035   -2.309022
  38 H     1.0000    0     1.008    3.192205   16.945964    1.039723
  39 C     6.0000    0    12.011    6.074251   19.215532   -0.663375
  40 H     1.0000    0     1.008    6.787430   20.043363    1.091103
  41 H     1.0000    0     1.008    6.831038   19.946710   -2.442393
  42 C     6.0000    0    12.011   10.347180   -0.251561   -0.033459
  43 H     1.0000    0     1.008   12.371067   -0.341690    0.012376
  44 H     1.0000    0     1.008   -0.296710  -13.742112   -0.013668
  45 H     1.0000    0     1.008   -1.981137    0.020820   -0.297893

--------------------------------
INTERNAL COORDINATES (ANGSTROEM)
--------------------------------
 C      0   0   0     0.000000000000     0.00000000     0.00000000
 C      1   0   0     4.216973050903     0.00000000     0.00000000
 C      2   1   0     1.404297663835    61.07157903     0.00000000
 C      3   2   1     1.397574938989   117.31081954   359.97574981
 C      4   3   2     1.410505485863   121.68836685     0.02957880
 C      5   4   3     1.417407170048   120.62203779     0.00000000
 C      2   1   3     1.395829163165    60.43327217   179.99025674
 H      4   3   2     1.090247485185   120.61650907   180.03591054
 H      7   2   1     1.090908691622   118.65991718   179.99821819
 C      3   2   1     1.520094892272   119.48523502   179.88447569
 H     10   3   2     1.106232804804   108.20987074    55.25002497
 H     10   3   2     1.106421646020   108.24053344   301.87619314
 C     10   3   2     1.530999771383   116.91141135   178.57054599
 H     13  10   3     1.105676426908   109.70002962   302.29864521
 H     13  10   3     1.105622267263   109.74601720    58.56061334
 C     13  10   3     1.533286186949   112.84168152   180.40549086
 H     16  13  10     1.106032877553   109.23749204   302.41768295
 H     16  13  10     1.106018995976   109.22712235    57.76765630
 C     16  13  10     1.530812900751   113.17649123   180.09341718
 H     19  16  13     1.103732092454   111.26880495    59.84756998
 H     19  16  13     1.103720125842   111.26903915   300.15197974
 C      6   5   4     1.517008437075   119.86353544   179.98649276
 H     22   6   5     1.105697286815   108.27913343   303.58225359
 H     22   6   5     1.105623015192   108.29062918    56.24301330
 C     22   6   5     1.531181618759   116.78396571   179.94186029
 H     25  22   6     1.105561635964   109.86168126   301.92989220
 H     25  22   6     1.105586778046   109.82910333    58.38772567
 C     25  22   6     1.533604625879   112.64225838   180.15998477
 H     28  25  22     1.106408163561   109.30815499   302.61138614
 H     28  25  22     1.106419619242   109.30198175    57.99734098
 C     28  25  22     1.532842714433   113.45350966   180.29336405
 H     31  28  25     1.106777006556   109.27074348    57.77947014
 H     31  28  25     1.106779430495   109.28913699   302.40788865
 C     31  28  25     1.532760128398   113.61337066   180.09916100
 H     34  31  28     1.105536344064   109.68231869    58.17317324
 H     34  31  28     1.105527048041   109.68044540   302.06525954
 C     34  31  28     1.550226867025   113.02738246   180.10848276
 H     37  34  31     1.106271241842   108.07910415   302.60001569
 H     37  34  31     1.106233160989   108.07679053    57.49168387
 C     37  34  31     1.492348336213   113.89018819   180.05530061
 H     40  37  34     1.093762176410   120.85021729   275.02677486
 H     40  37  34     1.093779008390   120.84323892    84.84498082
 C      1   2   3     1.216074245338   178.33904773     1.76439299
 H     43   1   5     1.072330402508   179.92346806   265.72951072
 H     19  16  13     1.102134827954   111.51533622   179.99665919
 H      2   1   3     1.094306812644   179.56910554   181.36193359

---------------------------
INTERNAL COORDINATES (A.U.)
---------------------------
 C      0   0   0     0.000000000000     0.00000000     0.00000000
 C      1   0   0     7.968924180334     0.00000000     0.00000000
 C      2   1   0     2.653737995154    61.07157903     0.00000000
 C      3   2   1     2.641033886321   117.31081954   359.97574981
 C      4   3   2     2.665469078675   121.68836685     0.02957880
 C      5   4   3     2.678511371647   120.62203779     0.00000000
 C      2   1   3     2.637734848122    60.43327217   179.99025674
 H      4   3   2     2.060269165196   120.61650907   180.03591054
 H      7   2   1     2.061518664279   118.65991718   179.99821819
 C      3   2   1     2.872563043966   119.48523502   179.88447569
 H     10   3   2     2.090477041439   108.20987074    55.25002497
 H     10   3   2     2.090833899621   108.24053344   301.87619314
 C     10   3   2     2.893170279010   116.91141135   178.57054599
 H     13  10   3     2.089425639588   109.70002962   302.29864521
 H     13  10   3     2.089323292692   109.74601720    58.56061334
 C     13  10   3     2.897490978258   112.84168152   180.40549086
 H     16  13  10     2.090099233689   109.23749204   302.41768295
 H     16  13  10     2.090073001309   109.22712235    57.76765630
 C     16  13  10     2.892817144693   113.17649123   180.09341718
 H     19  16  13     2.085751379957   111.26880495    59.84756998
 H     19  16  13     2.085728766339   111.26903915   300.15197974
 C      6   5   4     2.866730488921   119.86353544   179.98649276
 H     22   6   5     2.089465059100   108.27913343   303.58225359
 H     22   6   5     2.089324706072   108.29062918    56.24301330
 C     22   6   5     2.893513920748   116.78396571   179.94186029
 H     25  22   6     2.089208716142   109.86168126   301.92989220
 H     25  22   6     2.089256227791   109.82910333    58.38772567
 C     25  22   6     2.898092740626   112.64225838   180.15998477
 H     28  25  22     2.090808421465   109.30815499   302.61138614
 H     28  25  22     2.090830069566   109.30198175    57.99734098
 C     28  25  22     2.896652936654   113.45350966   180.29336405
 H     31  28  25     2.091505433712   109.27074348    57.77947014
 H     31  28  25     2.091510014293   109.28913699   302.40788865
 C     31  28  25     2.896496871666   113.61337066   180.09916100
 H     34  31  28     2.089160921378   109.68231869    58.17317324
 H     34  31  28     2.089143354440   109.68044540   302.06525954
 C     34  31  28     2.929504224124   113.02738246   180.10848276
 H     37  34  31     2.090549676915   108.07910415   302.60001569
 H     37  34  31     2.090477714531   108.07679053    57.49168387
 C     37  34  31     2.820129651856   113.89018819   180.05530061
 H     40  37  34     2.066910969057   120.85021729   275.02677486
 H     40  37  34     2.066942776888   120.84323892    84.84498082
 C      1   2   3     2.298047282204   178.33904773     1.76439299
 H     43   1   5     2.026410785818   179.92346806   265.72951072
 H     19  16  13     2.082732987490   111.51533622   179.99665919
 H      2   1   3     2.067940182381   179.56910554   181.36193359

---------------------
BASIS SET INFORMATION
---------------------
There are 2 groups of distinct atoms

 Group   1 Type C   : 10s5p1d contracted to 6s2p1d pattern {511111/41/1}
 Group   2 Type H   : 6s1p contracted to 4s1p pattern {3111/1}

Atom   0C    basis set group =>   1
Atom   1C    basis set group =>   1
Atom   2C    basis set group =>   1
Atom   3C    basis set group =>   1
Atom   4C    basis set group =>   1
Atom   5C    basis set group =>   1
Atom   6C    basis set group =>   1
Atom   7H    basis set group =>   2
Atom   8H    basis set group =>   2
Atom   9C    basis set group =>   1
Atom  10H    basis set group =>   2
Atom  11H    basis set group =>   2
Atom  12C    basis set group =>   1
Atom  13H    basis set group =>   2
Atom  14H    basis set group =>   2
Atom  15C    basis set group =>   1
Atom  16H    basis set group =>   2
Atom  17H    basis set group =>   2
Atom  18C    basis set group =>   1
Atom  19H    basis set group =>   2
Atom  20H    basis set group =>   2
Atom  21C    basis set group =>   1
Atom  22H    basis set group =>   2
Atom  23H    basis set group =>   2
Atom  24C    basis set group =>   1
Atom  25H    basis set group =>   2
Atom  26H    basis set group =>   2
Atom  27C    basis set group =>   1
Atom  28H    basis set group =>   2
Atom  29H    basis set group =>   2
Atom  30C    basis set group =>   1
Atom  31H    basis set group =>   2
Atom  32H    basis set group =>   2
Atom  33C    basis set group =>   1
Atom  34H    basis set group =>   2
Atom  35H    basis set group =>   2
Atom  36C    basis set group =>   1
Atom  37H    basis set group =>   2
Atom  38H    basis set group =>   2
Atom  39C    basis set group =>   1
Atom  40H    basis set group =>   2
Atom  41H    basis set group =>   2
Atom  42C    basis set group =>   1
Atom  43H    basis set group =>   2
Atom  44H    basis set group =>   2
Atom  45H    basis set group =>   2
---------------------------------
AUXILIARY/J BASIS SET INFORMATION
---------------------------------
There are 2 groups of distinct atoms

 Group   1 Type C   : 17s13p12d2f contracted to 17s13p12d2f pattern {11111111111111111/1111111111111/111111111111/11}
 Group   2 Type H   : 15s6p1d contracted to 15s6p1d pattern {111111111111111/111111/1}

Atom   0C    basis set group =>   1
Atom   1C    basis set group =>   1
Atom   2C    basis set group =>   1
Atom   3C    basis set group =>   1
Atom   4C    basis set group =>   1
Atom   5C    basis set group =>   1
Atom   6C    basis set group =>   1
Atom   7H    basis set group =>   2
Atom   8H    basis set group =>   2
Atom   9C    basis set group =>   1
Atom  10H    basis set group =>   2
Atom  11H    basis set group =>   2
Atom  12C    basis set group =>   1
Atom  13H    basis set group =>   2
Atom  14H    basis set group =>   2
Atom  15C    basis set group =>   1
Atom  16H    basis set group =>   2
Atom  17H    basis set group =>   2
Atom  18C    basis set group =>   1
Atom  19H    basis set group =>   2
Atom  20H    basis set group =>   2
Atom  21C    basis set group =>   1
Atom  22H    basis set group =>   2
Atom  23H    basis set group =>   2
Atom  24C    basis set group =>   1
Atom  25H    basis set group =>   2
Atom  26H    basis set group =>   2
Atom  27C    basis set group =>   1
Atom  28H    basis set group =>   2
Atom  29H    basis set group =>   2
Atom  30C    basis set group =>   1
Atom  31H    basis set group =>   2
Atom  32H    basis set group =>   2
Atom  33C    basis set group =>   1
Atom  34H    basis set group =>   2
Atom  35H    basis set group =>   2
Atom  36C    basis set group =>   1
Atom  37H    basis set group =>   2
Atom  38H    basis set group =>   2
Atom  39C    basis set group =>   1
Atom  40H    basis set group =>   2
Atom  41H    basis set group =>   2
Atom  42C    basis set group =>   1
Atom  43H    basis set group =>   2
Atom  44H    basis set group =>   2
Atom  45H    basis set group =>   2
---------------------------------
AUXILIARY/C BASIS SET INFORMATION
---------------------------------
There are 2 groups of distinct atoms

 Group   1 Type C   : 17s13p12d2f contracted to 17s13p12d2f pattern {11111111111111111/1111111111111/111111111111/11}
 Group   2 Type H   : 15s6p1d contracted to 15s6p1d pattern {111111111111111/111111/1}

Atom   0C    basis set group =>   1
Atom   1C    basis set group =>   1
Atom   2C    basis set group =>   1
Atom   3C    basis set group =>   1
Atom   4C    basis set group =>   1
Atom   5C    basis set group =>   1
Atom   6C    basis set group =>   1
Atom   7H    basis set group =>   2
Atom   8H    basis set group =>   2
Atom   9C    basis set group =>   1
Atom  10H    basis set group =>   2
Atom  11H    basis set group =>   2
Atom  12C    basis set group =>   1
Atom  13H    basis set group =>   2
Atom  14H    basis set group =>   2
Atom  15C    basis set group =>   1
Atom  16H    basis set group =>   2
Atom  17H    basis set group =>   2
Atom  18C    basis set group =>   1
Atom  19H    basis set group =>   2
Atom  20H    basis set group =>   2
Atom  21C    basis set group =>   1
Atom  22H    basis set group =>   2
Atom  23H    basis set group =>   2
Atom  24C    basis set group =>   1
Atom  25H    basis set group =>   2
Atom  26H    basis set group =>   2
Atom  27C    basis set group =>   1
Atom  28H    basis set group =>   2
Atom  29H    basis set group =>   2
Atom  30C    basis set group =>   1
Atom  31H    basis set group =>   2
Atom  32H    basis set group =>   2
Atom  33C    basis set group =>   1
Atom  34H    basis set group =>   2
Atom  35H    basis set group =>   2
Atom  36C    basis set group =>   1
Atom  37H    basis set group =>   2
Atom  38H    basis set group =>   2
Atom  39C    basis set group =>   1
Atom  40H    basis set group =>   2
Atom  41H    basis set group =>   2
Atom  42C    basis set group =>   1
Atom  43H    basis set group =>   2
Atom  44H    basis set group =>   2
Atom  45H    basis set group =>   2
----------------------------------
AUXILIARY/JK BASIS SET INFORMATION
----------------------------------
There are 2 groups of distinct atoms

 Group   1 Type C   : 17s13p12d2f contracted to 17s13p12d2f pattern {11111111111111111/1111111111111/111111111111/11}
 Group   2 Type H   : 15s6p1d contracted to 15s6p1d pattern {111111111111111/111111/1}

Atom   0C    basis set group =>   1
Atom   1C    basis set group =>   1
Atom   2C    basis set group =>   1
Atom   3C    basis set group =>   1
Atom   4C    basis set group =>   1
Atom   5C    basis set group =>   1
Atom   6C    basis set group =>   1
Atom   7H    basis set group =>   2
Atom   8H    basis set group =>   2
Atom   9C    basis set group =>   1
Atom  10H    basis set group =>   2
Atom  11H    basis set group =>   2
Atom  12C    basis set group =>   1
Atom  13H    basis set group =>   2
Atom  14H    basis set group =>   2
Atom  15C    basis set group =>   1
Atom  16H    basis set group =>   2
Atom  17H    basis set group =>   2
Atom  18C    basis set group =>   1
Atom  19H    basis set group =>   2
Atom  20H    basis set group =>   2
Atom  21C    basis set group =>   1
Atom  22H    basis set group =>   2
Atom  23H    basis set group =>   2
Atom  24C    basis set group =>   1
Atom  25H    basis set group =>   2
Atom  26H    basis set group =>   2
Atom  27C    basis set group =>   1
Atom  28H    basis set group =>   2
Atom  29H    basis set group =>   2
Atom  30C    basis set group =>   1
Atom  31H    basis set group =>   2
Atom  32H    basis set group =>   2
Atom  33C    basis set group =>   1
Atom  34H    basis set group =>   2
Atom  35H    basis set group =>   2
Atom  36C    basis set group =>   1
Atom  37H    basis set group =>   2
Atom  38H    basis set group =>   2
Atom  39C    basis set group =>   1
Atom  40H    basis set group =>   2
Atom  41H    basis set group =>   2
Atom  42C    basis set group =>   1
Atom  43H    basis set group =>   2
Atom  44H    basis set group =>   2
Atom  45H    basis set group =>   2


           ************************************************************
           *        Program running with 16 parallel MPI-processes    *
           *              working on a common directory               *
           ************************************************************
------------------------------------------------------------------------------
                           ORCA GTO INTEGRAL CALCULATION
                           -- RI-GTO INTEGRALS CHOSEN --
------------------------------------------------------------------------------
------------------------------------------------------------------------------
                   ___                                                        
                  /   \      - P O W E R E D   B Y -                         
                 /     \                                                     
                 |  |  |   _    _      __       _____    __    __             
                 |  |  |  | |  | |    /  \     |  _  \  |  |  /  |          
                  \  \/   | |  | |   /    \    | | | |  |  | /  /          
                 / \  \   | |__| |  /  /\  \   | |_| |  |  |/  /          
                |  |  |   |  __  | /  /__\  \  |    /   |      \           
                |  |  |   | |  | | |   __   |  |    \   |  |\   \          
                \     /   | |  | | |  |  |  |  | |\  \  |  | \   \       
                 \___/    |_|  |_| |__|  |__|  |_| \__\ |__|  \__/        
                                                                              
                      - O R C A' S   B I G   F R I E N D -                    
                                      &                                       
                       - I N T E G R A L  F E E D E R -                       
                                                                              
 v1 FN, 2020, v2 2021                                                         
------------------------------------------------------------------------------


Reading SHARK input file EPRII_i.SHARKINP.tmp ... ok
----------------------
SHARK INTEGRAL PACKAGE
----------------------

Number of atoms                             ...     46
Number of basis functions                   ...    512
Number of shells                            ...    306
Maximum angular momentum                    ...      2
Integral batch strategy                     ... SHARK/LIBINT Hybrid
RI-J (if used) integral strategy            ... SPLIT-RIJ (Revised 2003 algorithm where possible)
Printlevel                                  ...      1
Contraction scheme used                     ... SEGMENTED contraction
Coulomb Range Separation                    ... NOT USED
Exchange Range Separation                   ... NOT USED
Finite Nucleus Model                        ... NOT USED
Auxiliary Coulomb fitting basis             ... AVAILABLE
   # of basis functions in Aux-J            ...   3496
   # of shells in Aux-J                     ...   1430
   Maximum angular momentum in Aux-J        ...      3
Auxiliary J/K fitting basis                 ... AVAILABLE
   # of basis functions in Aux-JK           ...   3496
   # of shells in Aux-JK                    ...   1430
   Maximum angular momentum in Aux-JK       ...      3
Auxiliary Correlation fitting basis         ... AVAILABLE
   # of basis functions in Aux-C            ...   3496
   # of shells in Aux-C                     ...   1430
   Maximum angular momentum in Aux-C        ...      3
Auxiliary 'external' fitting basis          ... NOT available
Integral threshold                          ...     1.000000e-10
Primitive cut-off                           ...     1.000000e-11
Primitive pair pre-selection threshold      ...     1.000000e-11

Calculating pre-screening integrals         ... done (  0.0 sec) Dimension = 306
Organizing shell pair data                  ... done (  0.2 sec)
Shell pair information
Total number of shell pairs                 ...     46971
Shell pairs after pre-screening             ...     23500
Total number of primitive shell pairs       ...    122156
Primitive shell pairs kept                  ...     43976
          la=0 lb=0:  11083 shell pairs
          la=1 lb=0:   8109 shell pairs
          la=1 lb=1:   1385 shell pairs
          la=2 lb=0:   2067 shell pairs
          la=2 lb=1:    744 shell pairs
          la=2 lb=2:    112 shell pairs

Calculating one electron integrals          ... done (  0.0 sec)
Calculating RI/J V-Matrix + Cholesky decomp.... done (  0.9 sec)
Calculating RI/JK V-Matrix + Cholesky decomp... done (  0.7 sec)
Calculating RI/C V-Matrix + Cholesky decomp.... done (  0.7 sec)
Calculating Nuclear repulsion               ... done (  0.0 sec) ENN=   1249.871733714571 Eh

SHARK setup successfully completed in   2.9 seconds

Maximum memory used throughout the entire GTOINT-calculation: 46.8 MB


           ************************************************************
           *        Program running with 16 parallel MPI-processes    *
           *              working on a common directory               *
           ************************************************************
-------------------------------------------------------------------------------
                                 ORCA SCF
-------------------------------------------------------------------------------

------------
SCF SETTINGS
------------
Hamiltonian:
 Density Functional     Method          .... DFT(GTOs)
 Exchange Functional    Exchange        .... B88
   X-Alpha parameter    XAlpha          ....  0.666667
   Becke's b parameter  XBeta           ....  0.004200
 Correlation Functional Correlation     .... LYP
 LDA part of GGA corr.  LDAOpt          .... VWN-5
 Gradients option       PostSCFGGA      .... off
 Hybrid DFT is turned on
   Fraction HF Exchange ScalHFX         ....  0.200000
   Scaling of DF-GGA-X  ScalDFX         ....  0.720000
   Scaling of DF-GGA-C  ScalDFC         ....  0.810000
   Scaling of DF-LDA-C  ScalLDAC        ....  1.000000
   Perturbative correction              ....  0.000000
   Density functional embedding theory  .... OFF
   NL short-range parameter             ....  4.800000
 RI-approximation to the Coulomb term is turned on
   Number of AuxJ basis functions       .... 3496
   RIJ-COSX (HFX calculated with COS-X)).... on


General Settings:
 Integral files         IntName         .... EPRII_i
 Hartree-Fock type      HFTyp           .... UHF
 Total Charge           Charge          ....    0
 Multiplicity           Mult            ....    2
 Number of Electrons    NEL             ....  141
 Basis Dimension        Dim             ....  512
 Nuclear Repulsion      ENuc            ....   1249.8717337146 Eh

Convergence Acceleration:
 DIIS                   CNVDIIS         .... on
   Start iteration      DIISMaxIt       ....    12
   Startup error        DIISStart       ....  0.200000
   # of expansion vecs  DIISMaxEq       ....     5
   Bias factor          DIISBfac        ....   1.050
   Max. coefficient     DIISMaxC        ....  10.000
 Trust-Rad. Augm. Hess. CNVTRAH         .... auto
   Auto Start mean grad. ratio tolernc. ....  1.125000
   Auto Start start iteration           ....    20
   Auto Start num. interpolation iter.  ....    10
   Max. Number of Micro iterations      ....    16
   Max. Number of Macro iterations      .... Maxiter - #DIIS iter
   Number of Davidson start vectors     ....     2
   Converg. threshold I  (grad. norm)   ....   5.000e-05
   Converg. threshold II (energy diff.) ....   1.000e-06
   Grad. Scal. Fac. for Micro threshold ....   0.100
   Minimum threshold for Micro iter.    ....   0.010
   NR start threshold (gradient norm)   ....   0.001
   Initial trust radius                 ....   0.400
   Minimum AH scaling param. (alpha)    ....   1.000
   Maximum AH scaling param. (alpha)    .... 1000.000
   Orbital update algorithm             .... Taylor
   White noise on init. David. guess    .... on
   Maximum white noise                  ....   0.010
   Quad. conv. algorithm                .... NR
 SOSCF                  CNVSOSCF        .... off
 Level Shifting         CNVShift        .... on
   Level shift para.    LevelShift      ....    0.2500
   Turn off err/grad.   ShiftErr        ....    0.0010
 Zerner damping         CNVZerner       .... off
 Static damping         CNVDamp         .... on
   Fraction old density DampFac         ....    0.7000
   Max. Damping (<1)    DampMax         ....    0.9800
   Min. Damping (>=0)   DampMin         ....    0.0000
   Turn off err/grad.   DampErr         ....    0.1000
 Fernandez-Rico         CNVRico         .... off

SCF Procedure:
 Maximum # iterations   MaxIter         ....   125
 SCF integral mode      SCFMode         .... Direct
   Integral package                     .... SHARK and LIBINT hybrid scheme
 Reset frequency        DirectResetFreq ....    20
 Integral Threshold     Thresh          ....  1.000e-10 Eh
 Primitive CutOff       TCut            ....  1.000e-11 Eh

Convergence Tolerance:
 Convergence Check Mode ConvCheckMode   .... Total+1el-Energy
 Convergence forced     ConvForced      .... 0
 Energy Change          TolE            ....  1.000e-06 Eh
 1-El. energy change                    ....  1.000e-03 Eh
 DIIS Error             TolErr          ....  1.000e-06


Diagonalization of the overlap matrix:
Smallest eigenvalue                        ... 1.506e-04
Time for diagonalization                   ...    0.055 sec
Threshold for overlap eigenvalues          ... 1.000e-08
Number of eigenvalues below threshold      ... 0
Time for construction of square roots      ...    0.052 sec
Total time needed                          ...    0.109 sec

Time for model grid setup =    0.251 sec

------------------------------
INITIAL GUESS: MODEL POTENTIAL
------------------------------
Loading Hartree-Fock densities                     ... done
Calculating cut-offs                               ... done
Initializing the effective Hamiltonian             ... done
Setting up the integral package (SHARK)            ... done
Starting the Coulomb interaction                   ... done (   0.3 sec)
Reading the grid                                   ... done
Mapping shells                                     ... done
Starting the XC term evaluation                    ... done (   0.2 sec)
  promolecular density results
     # of electrons  =    140.999846494
     EX              =   -105.601133991
     EC              =     -4.582645391
     EX+EC           =   -110.183779383
Transforming the Hamiltonian                       ... done (   0.0 sec)
Diagonalizing the Hamiltonian                      ... done (   0.0 sec)
Back transforming the eigenvectors                 ... done (   0.0 sec)
Now organizing SCF variables                       ... done
                      ------------------
                      INITIAL GUESS DONE (   1.0 sec)
                      ------------------
-------------------
DFT GRID GENERATION
-------------------

General Integration Accuracy     IntAcc      ... 4.388
Radial Grid Type                 RadialGrid  ... OptM3 with GC (2021)
Angular Grid (max. ang.)         AngularGrid ... 4 (Lebedev-302)
Angular grid pruning method      GridPruning ... 4 (adaptive)
Weight generation scheme         WeightScheme... Becke
Basis function cutoff            BFCut       ... 1.0000e-10
Integration weight cutoff        WCut        ... 1.0000e-14
Angular grids for H and He will be reduced by one unit
Partially contracted basis set               ... off
Rotationally invariant grid construction     ... off

Total number of grid points                  ...   199575
Total number of batches                      ...     3141
Average number of points per batch           ...       63
Average number of grid points per atom       ...     4339
Time for grid setup =    1.061 sec

--------------------
COSX GRID GENERATION
--------------------

GRIDX 1
-------
General Integration Accuracy     IntAcc      ... 3.816
Radial Grid Type                 RadialGrid  ... OptM3 with GC (2021)
Angular Grid (max. ang.)         AngularGrid ... 1 (Lebedev-50)
Angular grid pruning method      GridPruning ... 4 (adaptive)
Weight generation scheme         WeightScheme... Becke
Basis function cutoff            BFCut       ... 1.0000e-10
Integration weight cutoff        WCut        ... 1.0000e-14
Angular grids for H and He will be reduced by one unit
Partially contracted basis set               ... on
Rotationally invariant grid construction     ... off

Total number of grid points                  ...    25466
Total number of batches                      ...      424
Average number of points per batch           ...       60
Average number of grid points per atom       ...      554
UseSFitting                                  ... on

GRIDX 2
-------
General Integration Accuracy     IntAcc      ... 4.020
Radial Grid Type                 RadialGrid  ... OptM3 with GC (2021)
Angular Grid (max. ang.)         AngularGrid ... 2 (Lebedev-110)
Angular grid pruning method      GridPruning ... 4 (adaptive)
Weight generation scheme         WeightScheme... Becke
Basis function cutoff            BFCut       ... 1.0000e-10
Integration weight cutoff        WCut        ... 1.0000e-14
Angular grids for H and He will be reduced by one unit
Partially contracted basis set               ... on
Rotationally invariant grid construction     ... off

Total number of grid points                  ...    53462
Total number of batches                      ...      857
Average number of points per batch           ...       62
Average number of grid points per atom       ...     1162
UseSFitting                                  ... on

GRIDX 3
-------
General Integration Accuracy     IntAcc      ... 4.338
Radial Grid Type                 RadialGrid  ... OptM3 with GC (2021)
Angular Grid (max. ang.)         AngularGrid ... 3 (Lebedev-194)
Angular grid pruning method      GridPruning ... 4 (adaptive)
Weight generation scheme         WeightScheme... Becke
Basis function cutoff            BFCut       ... 1.0000e-10
Integration weight cutoff        WCut        ... 1.0000e-14
Angular grids for H and He will be reduced by one unit
Partially contracted basis set               ... on
Rotationally invariant grid construction     ... off

Total number of grid points                  ...   116756
Total number of batches                      ...     1850
Average number of points per batch           ...       63
Average number of grid points per atom       ...     2538
UseSFitting                                  ... on

Time for X-Grid setup             =    1.895 sec

--------------
SCF ITERATIONS
--------------
ITER       Energy         Delta-E        Max-DP      RMS-DP      [F,P]     Damp
               ***  Starting incremental Fock matrix formation  ***
  0   -739.2679856135   0.000000000000 0.04719590  0.00070578  0.0796275 0.7000
  1   -739.4925416044  -0.224555990846 0.03274560  0.00053670  0.0426451 0.7000
                               ***Turning on DIIS***
  2   -739.5914281220  -0.098886517658 0.11390962  0.00109878  0.0177148 0.0000
  3   -739.7271017075  -0.135673585519 0.02512646  0.00032939  0.0233790 0.0000
  4   -739.7670374485  -0.039935740944 0.02919347  0.00016132  0.0052572 0.0000
  5   -739.7686533876  -0.001615939139 0.01672046  0.00008069  0.0015109 0.0000
  6   -739.7687978945  -0.000144506844 0.01007730  0.00005213  0.0006737 0.0000
               *** Restarting incremental Fock matrix formation ***
                                   *** Resetting DIIS ***
  7   -739.7691642387  -0.000366344196 0.00269715  0.00001580  0.0011651 0.0000
  8   -739.7691624646   0.000001774033 0.00056202  0.00000440  0.0014011 0.0000
  9   -739.7691715272  -0.000009062580 0.00037614  0.00000280  0.0004573 0.0000
 10   -739.7691728200  -0.000001292837 0.00010341  0.00000087  0.0000592 0.0000
                 **** Energy Check signals convergence ****

               *****************************************************
               *                     SUCCESS                       *
               *           SCF CONVERGED AFTER  11 CYCLES          *
               *****************************************************

Old exchange energy                            =    -21.583971686 Eh
New exchange energy                            =    -21.583889491 Eh
Exchange energy change after final integration =      0.000082194 Eh
Total energy after final integration           =   -739.769090943 Eh
Final COS-X integration done in                =     7.238 sec

----------------
TOTAL SCF ENERGY
----------------

Total Energy       :         -739.76909094 Eh          -20130.14036 eV

Components:
Nuclear Repulsion  :         1249.87173371 Eh           34010.73895 eV
Electronic Energy  :        -1989.64082466 Eh          -54140.87931 eV
One Electron Energy:        -3477.56784789 Eh          -94629.43201 eV
Two Electron Energy:         1487.92702324 Eh           40488.55270 eV
Max COSX asymmetry :            0.00000295 Eh               0.00008 eV

Virial components:
Potential Energy   :        -1473.60062149 Eh          -40098.71149 eV
Kinetic Energy     :          733.83153054 Eh           19968.57113 eV
Virial Ratio       :            2.00809118


DFT components:
N(Alpha)           :       71.000119840273 electrons
N(Beta)            :       70.000130711431 electrons
N(Total)           :      141.000250551704 electrons
E(X)               :      -85.550166401380 Eh       
E(C)               :       -5.416719925837 Eh       
E(XC)              :      -90.966886327218 Eh       
DFET-embed. en.    :        0.000000000000 Eh       

---------------
SCF CONVERGENCE
---------------

  Last Energy change         ...   -3.1749e-07  Tolerance :   1.0000e-06
  Last MAX-Density change    ...    0.0000e+00  Tolerance :   1.0000e-05
  Last RMS-Density change    ...    0.0000e+00  Tolerance :   1.0000e-06
  Last DIIS Error            ...    4.5931e-05  Tolerance :   1.0000e-06

             **** THE GBW FILE WAS UPDATED (EPRII_i.gbw) ****
             **** DENSITY EPRII_i.scfp WAS UPDATED ****
             **** ENERGY FILE WAS UPDATED (EPRII_i.en.tmp) ****
----------------------
UHF SPIN CONTAMINATION
----------------------

Warning: in a DFT calculation there is little theoretical justification to 
         calculate <S**2> as in Hartree-Fock theory. We will do it anyways
         but you should keep in mind that the values have only limited relevance

Expectation value of <S**2>     :     0.753822
Ideal value S*(S+1) for S=0.5   :     0.750000
Deviation                       :     0.003822

             **** THE GBW FILE WAS UPDATED (EPRII_i.gbw) ****
             **** DENSITY EPRII_i.scfp WAS UPDATED ****
----------------
ORBITAL ENERGIES
----------------
                 SPIN UP ORBITALS
  NO   OCC          E(Eh)            E(eV) 
   0   1.0000     -10.215661      -277.9823 
   1   1.0000     -10.205232      -277.6985 
   2   1.0000     -10.201839      -277.6062 
   3   1.0000     -10.201085      -277.5856 
   4   1.0000     -10.193818      -277.3879 
   5   1.0000     -10.192840      -277.3613 
   6   1.0000     -10.192221      -277.3444 
   7   1.0000     -10.191551      -277.3262 
   8   1.0000     -10.188905      -277.2542 
   9   1.0000     -10.188553      -277.2446 
  10   1.0000     -10.185456      -277.1604 
  11   1.0000     -10.184517      -277.1348 
  12   1.0000     -10.182817      -277.0885 
  13   1.0000     -10.182188      -277.0714 
  14   1.0000     -10.181755      -277.0596 
  15   1.0000     -10.181269      -277.0464 
  16   1.0000     -10.179531      -276.9991 
  17   1.0000     -10.179307      -276.9930 
  18   1.0000     -10.173312      -276.8299 
  19   1.0000      -0.863237       -23.4899 
  20   1.0000      -0.811266       -22.0757 
  21   1.0000      -0.801945       -21.8220 
  22   1.0000      -0.782751       -21.2997 
  23   1.0000      -0.776707       -21.1353 
  24   1.0000      -0.757226       -20.6052 
  25   1.0000      -0.730510       -19.8782 
  26   1.0000      -0.722620       -19.6635 
  27   1.0000      -0.702844       -19.1254 
  28   1.0000      -0.666497       -18.1363 
  29   1.0000      -0.636492       -17.3198 
  30   1.0000      -0.617916       -16.8143 
  31   1.0000      -0.607547       -16.5322 
  32   1.0000      -0.582511       -15.8509 
  33   1.0000      -0.575564       -15.6619 
  34   1.0000      -0.569883       -15.5073 
  35   1.0000      -0.558799       -15.2057 
  36   1.0000      -0.526643       -14.3307 
  37   1.0000      -0.493739       -13.4353 
  38   1.0000      -0.479473       -13.0471 
  39   1.0000      -0.469963       -12.7883 
  40   1.0000      -0.467388       -12.7183 
  41   1.0000      -0.459675       -12.5084 
  42   1.0000      -0.458599       -12.4791 
  43   1.0000      -0.425995       -11.5919 
  44   1.0000      -0.425582       -11.5807 
  45   1.0000      -0.421351       -11.4655 
  46   1.0000      -0.418294       -11.3824 
  47   1.0000      -0.417501       -11.3608 
  48   1.0000      -0.410263       -11.1638 
  49   1.0000      -0.397505       -10.8167 
  50   1.0000      -0.388700       -10.5771 
  51   1.0000      -0.379661       -10.3311 
  52   1.0000      -0.369615       -10.0577 
  53   1.0000      -0.365783        -9.9534 
  54   1.0000      -0.357144        -9.7184 
  55   1.0000      -0.352903        -9.6030 
  56   1.0000      -0.352361        -9.5882 
  57   1.0000      -0.337663        -9.1883 
  58   1.0000      -0.336366        -9.1530 
  59   1.0000      -0.327981        -8.9248 
  60   1.0000      -0.323627        -8.8064 
  61   1.0000      -0.323526        -8.8036 
  62   1.0000      -0.321986        -8.7617 
  63   1.0000      -0.320880        -8.7316 
  64   1.0000      -0.317667        -8.6442 
  65   1.0000      -0.312966        -8.5162 
  66   1.0000      -0.299347        -8.1456 
  67   1.0000      -0.272162        -7.4059 
  68   1.0000      -0.241177        -6.5628 
  69   1.0000      -0.223369        -6.0782 
  70   1.0000      -0.198597        -5.4041 
  71   0.0000      -0.032650        -0.8885 
  72   0.0000       0.000380         0.0103 
  73   0.0000       0.020135         0.5479 
  74   0.0000       0.023533         0.6404 
  75   0.0000       0.024934         0.6785 
  76   0.0000       0.029948         0.8149 
  77   0.0000       0.032395         0.8815 
  78   0.0000       0.039214         1.0671 
  79   0.0000       0.043741         1.1903 
  80   0.0000       0.045074         1.2265 
  81   0.0000       0.050688         1.3793 
  82   0.0000       0.056527         1.5382 
  83   0.0000       0.063095         1.7169 
  84   0.0000       0.077827         2.1178 
  85   0.0000       0.081682         2.2227 
  86   0.0000       0.084725         2.3055 
  87   0.0000       0.089418         2.4332 
  88   0.0000       0.110890         3.0175 
  89   0.0000       0.116528         3.1709 
  90   0.0000       0.120318         3.2740 
  91   0.0000       0.146509         3.9867 
  92   0.0000       0.148107         4.0302 
  93   0.0000       0.155409         4.2289 
  94   0.0000       0.160137         4.3575 
  95   0.0000       0.165467         4.5026 
  96   0.0000       0.166017         4.5176 
  97   0.0000       0.173272         4.7150 
  98   0.0000       0.179864         4.8943 
  99   0.0000       0.184020         5.0074 
 100   0.0000       0.189363         5.1528 
 101   0.0000       0.193048         5.2531 
 102   0.0000       0.194034         5.2799 
 103   0.0000       0.197890         5.3849 
 104   0.0000       0.198409         5.3990 
 105   0.0000       0.206711         5.6249 
 106   0.0000       0.206981         5.6322 
 107   0.0000       0.216289         5.8855 
 108   0.0000       0.217506         5.9186 
 109   0.0000       0.217892         5.9291 
 110   0.0000       0.220456         5.9989 
 111   0.0000       0.230009         6.2589 
 112   0.0000       0.235308         6.4031 
 113   0.0000       0.239073         6.5055 
 114   0.0000       0.248633         6.7657 
 115   0.0000       0.251121         6.8333 
 116   0.0000       0.252419         6.8687 
 117   0.0000       0.253647         6.9021 
 118   0.0000       0.255116         6.9421 
 119   0.0000       0.257857         7.0166 
 120   0.0000       0.268927         7.3179 
 121   0.0000       0.273813         7.4508 
 122   0.0000       0.277973         7.5640 
 123   0.0000       0.279226         7.5981 
 124   0.0000       0.280137         7.6229 
 125   0.0000       0.284008         7.7283 
 126   0.0000       0.289340         7.8733 
 127   0.0000       0.293082         7.9752 
 128   0.0000       0.296212         8.0603 
 129   0.0000       0.299400         8.1471 
 130   0.0000       0.306887         8.3508 
 131   0.0000       0.310148         8.4396 
 132   0.0000       0.310432         8.4473 
 133   0.0000       0.312510         8.5038 
 134   0.0000       0.319504         8.6941 
 135   0.0000       0.320570         8.7232 
 136   0.0000       0.322075         8.7641 
 137   0.0000       0.324977         8.8431 
 138   0.0000       0.329265         8.9598 
 139   0.0000       0.331975         9.0335 
 140   0.0000       0.340876         9.2757 
 141   0.0000       0.345362         9.3978 
 142   0.0000       0.351103         9.5540 
 143   0.0000       0.356194         9.6925 
 144   0.0000       0.366097         9.9620 
 145   0.0000       0.370182        10.0732 
 146   0.0000       0.371514        10.1094 
 147   0.0000       0.375547        10.2192 
 148   0.0000       0.380747        10.3606 
 149   0.0000       0.384255        10.4561 
 150   0.0000       0.390745        10.6327 
 151   0.0000       0.399381        10.8677 
 152   0.0000       0.402392        10.9496 
 153   0.0000       0.408460        11.1148 
 154   0.0000       0.417306        11.3555 
 155   0.0000       0.421384        11.4664 
 156   0.0000       0.425320        11.5735 
 157   0.0000       0.427204        11.6248 
 158   0.0000       0.429747        11.6940 
 159   0.0000       0.441272        12.0076 
 160   0.0000       0.449958        12.2440 
 161   0.0000       0.456145        12.4123 
 162   0.0000       0.457516        12.4496 
 163   0.0000       0.466039        12.6816 
 164   0.0000       0.476542        12.9674 
 165   0.0000       0.477350        12.9893 
 166   0.0000       0.480908        13.0862 
 167   0.0000       0.485511        13.2114 
 168   0.0000       0.490420        13.3450 
 169   0.0000       0.505602        13.7581 
 170   0.0000       0.508878        13.8473 
 171   0.0000       0.512039        13.9333 
 172   0.0000       0.513545        13.9743 
 173   0.0000       0.517876        14.0921 
 174   0.0000       0.530009        14.4223 
 175   0.0000       0.535847        14.5811 
 176   0.0000       0.546365        14.8674 
 177   0.0000       0.547758        14.9053 
 178   0.0000       0.553684        15.0665 
 179   0.0000       0.560754        15.2589 
 180   0.0000       0.574614        15.6360 
 181   0.0000       0.584744        15.9117 
 182   0.0000       0.589129        16.0310 
 183   0.0000       0.589488        16.0408 
 184   0.0000       0.598653        16.2902 
 185   0.0000       0.606900        16.5146 
 186   0.0000       0.622185        16.9305 
 187   0.0000       0.644768        17.5450 
 188   0.0000       0.655592        17.8396 
 189   0.0000       0.675274        18.3751 
 190   0.0000       0.687872        18.7180 
 191   0.0000       0.694949        18.9105 
 192   0.0000       0.714757        19.4495 
 193   0.0000       0.742796        20.2125 
 194   0.0000       0.759050        20.6548 
 195   0.0000       0.772470        21.0200 
 196   0.0000       0.777052        21.1447 
 197   0.0000       0.783583        21.3224 
 198   0.0000       0.812431        22.1074 
 199   0.0000       0.815313        22.1858 
 200   0.0000       0.836376        22.7590 
 201   0.0000       0.845420        23.0050 
 202   0.0000       0.846362        23.0307 
 203   0.0000       0.848560        23.0905 
 204   0.0000       0.859497        23.3881 
 205   0.0000       0.863320        23.4921 
 206   0.0000       0.867712        23.6117 
 207   0.0000       0.879715        23.9383 
 208   0.0000       0.882403        24.0114 
 209   0.0000       0.887572        24.1521 
 210   0.0000       0.898183        24.4408 
 211   0.0000       0.901428        24.5291 
 212   0.0000       0.911081        24.7918 
 213   0.0000       0.918489        24.9934 
 214   0.0000       0.920587        25.0504 
 215   0.0000       0.924210        25.1490 
 216   0.0000       0.924505        25.1571 
 217   0.0000       0.928112        25.2552 
 218   0.0000       0.934393        25.4261 
 219   0.0000       0.942158        25.6374 
 220   0.0000       0.944587        25.7035 
 221   0.0000       0.948721        25.8160 
 222   0.0000       0.953598        25.9487 
 223   0.0000       0.963520        26.2187 
 224   0.0000       0.969212        26.3736 
 225   0.0000       0.972830        26.4721 
 226   0.0000       0.987222        26.8637 
 227   0.0000       0.990450        26.9515 
 228   0.0000       0.994740        27.0683 
 229   0.0000       0.997267        27.1370 
 230   0.0000       0.999241        27.1907 
 231   0.0000       1.000269        27.2187 
 232   0.0000       1.015969        27.6459 
 233   0.0000       1.019010        27.7287 
 234   0.0000       1.031029        28.0557 
 235   0.0000       1.033410        28.1205 
 236   0.0000       1.036093        28.1935 
 237   0.0000       1.039220        28.2786 
 238   0.0000       1.050864        28.5955 
 239   0.0000       1.056518        28.7493 
 240   0.0000       1.062954        28.9245 
 241   0.0000       1.079800        29.3828 
 242   0.0000       1.087668        29.5970 
 243   0.0000       1.089508        29.6470 
 244   0.0000       1.106781        30.1170 
 245   0.0000       1.109429        30.1891 
 246   0.0000       1.109747        30.1977 
 247   0.0000       1.126441        30.6520 
 248   0.0000       1.135576        30.9006 
 249   0.0000       1.157763        31.5043 
 250   0.0000       1.159129        31.5415 
 251   0.0000       1.178643        32.0725 
 252   0.0000       1.180094        32.1120 
 253   0.0000       1.184347        32.2277 
 254   0.0000       1.191692        32.4276 
 255   0.0000       1.195358        32.5273 
 256   0.0000       1.202149        32.7121 
 257   0.0000       1.205347        32.7992 
 258   0.0000       1.208921        32.8964 
 259   0.0000       1.211253        32.9599 
 260   0.0000       1.221068        33.2270 
 261   0.0000       1.240305        33.7504 
 262   0.0000       1.248553        33.9749 
 263   0.0000       1.268838        34.5268 
 264   0.0000       1.279443        34.8154 
 265   0.0000       1.285442        34.9787 
 266   0.0000       1.291814        35.1520 
 267   0.0000       1.300154        35.3790 
 268   0.0000       1.302084        35.4315 
 269   0.0000       1.321836        35.9690 
 270   0.0000       1.340326        36.4721 
 271   0.0000       1.346744        36.6468 
 272   0.0000       1.362814        37.0840 
 273   0.0000       1.369528        37.2667 
 274   0.0000       1.378333        37.5063 
 275   0.0000       1.379620        37.5414 
 276   0.0000       1.388446        37.7815 
 277   0.0000       1.392486        37.8915 
 278   0.0000       1.408612        38.3303 
 279   0.0000       1.411269        38.4026 
 280   0.0000       1.425698        38.7952 
 281   0.0000       1.432542        38.9815 
 282   0.0000       1.447230        39.3811 
 283   0.0000       1.449642        39.4468 
 284   0.0000       1.462597        39.7993 
 285   0.0000       1.483176        40.3593 
 286   0.0000       1.492269        40.6067 
 287   0.0000       1.502041        40.8726 
 288   0.0000       1.506084        40.9826 
 289   0.0000       1.510513        41.1031 
 290   0.0000       1.522109        41.4187 
 291   0.0000       1.528132        41.5826 
 292   0.0000       1.542164        41.9644 
 293   0.0000       1.546988        42.0957 
 294   0.0000       1.554528        42.3009 
 295   0.0000       1.558072        42.3973 
 296   0.0000       1.573832        42.8261 
 297   0.0000       1.580132        42.9976 
 298   0.0000       1.584762        43.1236 
 299   0.0000       1.586034        43.1582 
 300   0.0000       1.588851        43.2348 
 301   0.0000       1.597602        43.4730 
 302   0.0000       1.604116        43.6502 
 303   0.0000       1.605218        43.6802 
 304   0.0000       1.607358        43.7384 
 305   0.0000       1.610207        43.8160 
 306   0.0000       1.617002        44.0009 
 307   0.0000       1.619030        44.0560 
 308   0.0000       1.629521        44.3415 
 309   0.0000       1.639473        44.6123 
 310   0.0000       1.652704        44.9724 
 311   0.0000       1.660973        45.1974 
 312   0.0000       1.674755        45.5724 
 313   0.0000       1.676551        45.6213 
 314   0.0000       1.681230        45.7486 
 315   0.0000       1.691087        46.0168 
 316   0.0000       1.697759        46.1984 
 317   0.0000       1.701896        46.3109 
 318   0.0000       1.709823        46.5267 
 319   0.0000       1.716757        46.7153 
 320   0.0000       1.719332        46.7854 
 321   0.0000       1.724384        46.9229 
 322   0.0000       1.731306        47.1112 
 323   0.0000       1.742745        47.4225 
 324   0.0000       1.753189        47.7067 
 325   0.0000       1.754584        47.7446 
 326   0.0000       1.758256        47.8446 
 327   0.0000       1.763875        47.9975 
 328   0.0000       1.772910        48.2433 
 329   0.0000       1.776028        48.3282 
 330   0.0000       1.780569        48.4517 
 331   0.0000       1.787628        48.6438 
 332   0.0000       1.792035        48.7638 
 333   0.0000       1.798617        48.9429 
 334   0.0000       1.808514        49.2122 
 335   0.0000       1.821783        49.5732 
 336   0.0000       1.827835        49.7379 
 337   0.0000       1.830827        49.8193 
 338   0.0000       1.835818        49.9552 
 339   0.0000       1.856217        50.5102 
 340   0.0000       1.869575        50.8737 
 341   0.0000       1.899596        51.6906 
 342   0.0000       1.905417        51.8490 
 343   0.0000       1.920148        52.2499 
 344   0.0000       1.922637        52.3176 
 345   0.0000       1.936057        52.6828 
 346   0.0000       1.944749        52.9193 
 347   0.0000       1.954519        53.1852 
 348   0.0000       1.961465        53.3742 
 349   0.0000       1.968707        53.5712 
 350   0.0000       1.988942        54.1219 
 351   0.0000       2.009727        54.6874 
 352   0.0000       2.010558        54.7101 
 353   0.0000       2.043681        55.6114 
 354   0.0000       2.055710        55.9387 
 355   0.0000       2.070050        56.3289 
 356   0.0000       2.074275        56.4439 
 357   0.0000       2.075727        56.4834 
 358   0.0000       2.100236        57.1503 
 359   0.0000       2.114337        57.5340 
 360   0.0000       2.128936        57.9313 
 361   0.0000       2.149192        58.4825 
 362   0.0000       2.155710        58.6599 
 363   0.0000       2.187530        59.5257 
 364   0.0000       2.194534        59.7163 
 365   0.0000       2.202278        59.9270 
 366   0.0000       2.221983        60.4632 
 367   0.0000       2.228195        60.6323 
 368   0.0000       2.235451        60.8297 
 369   0.0000       2.236534        60.8592 
 370   0.0000       2.258413        61.4545 
 371   0.0000       2.260590        61.5138 
 372   0.0000       2.264617        61.6234 
 373   0.0000       2.280193        62.0472 
 374   0.0000       2.291319        62.3499 
 375   0.0000       2.303787        62.6892 
 376   0.0000       2.309581        62.8469 
 377   0.0000       2.317945        63.0745 
 378   0.0000       2.320953        63.1563 
 379   0.0000       2.328437        63.3600 
 380   0.0000       2.334076        63.5134 
 381   0.0000       2.349788        63.9410 
 382   0.0000       2.357540        64.1519 
 383   0.0000       2.369436        64.4756 
 384   0.0000       2.376421        64.6657 
 385   0.0000       2.401662        65.3525 
 386   0.0000       2.415262        65.7226 
 387   0.0000       2.428230        66.0755 
 388   0.0000       2.438785        66.3627 
 389   0.0000       2.442586        66.4661 
 390   0.0000       2.447116        66.5894 
 391   0.0000       2.450237        66.6743 
 392   0.0000       2.455058        66.8055 
 393   0.0000       2.467103        67.1333 
 394   0.0000       2.472169        67.2711 
 395   0.0000       2.481493        67.5249 
 396   0.0000       2.492264        67.8180 
 397   0.0000       2.498388        67.9846 
 398   0.0000       2.505926        68.1897 
 399   0.0000       2.517285        68.4988 
 400   0.0000       2.526475        68.7489 
 401   0.0000       2.534889        68.9778 
 402   0.0000       2.555814        69.5472 
 403   0.0000       2.564019        69.7705 
 404   0.0000       2.568528        69.8932 
 405   0.0000       2.583865        70.3105 
 406   0.0000       2.601320        70.7855 
 407   0.0000       2.614031        71.1314 
 408   0.0000       2.620252        71.3007 
 409   0.0000       2.622986        71.3751 
 410   0.0000       2.645429        71.9858 
 411   0.0000       2.655732        72.2661 
 412   0.0000       2.695456        73.3471 
 413   0.0000       2.697099        73.3918 
 414   0.0000       2.729098        74.2625 
 415   0.0000       2.783901        75.7538 
 416   0.0000       2.866802        78.0097 
 417   0.0000       2.913933        79.2922 
 418   0.0000       2.968230        80.7696 
 419   0.0000       3.293320        89.6158 
 420   0.0000       4.983422       135.6058 
 421   0.0000       4.994141       135.8975 
 422   0.0000       5.006871       136.2439 
 423   0.0000       5.009267       136.3091 
 424   0.0000       5.011162       136.3606 
 425   0.0000       5.023888       136.7070 
 426   0.0000       5.024518       136.7241 
 427   0.0000       5.030261       136.8804 
 428   0.0000       5.033820       136.9772 
 429   0.0000       5.045280       137.2890 
 430   0.0000       5.055005       137.5537 
 431   0.0000       5.056404       137.5917 
 432   0.0000       5.073382       138.0537 
 433   0.0000       5.141032       139.8946 
 434   0.0000       5.161777       140.4591 
 435   0.0000       5.203975       141.6074 
 436   0.0000       5.227072       142.2359 
 437   0.0000       5.237057       142.5076 
 438   0.0000       5.251226       142.8931 
 439   0.0000       5.251520       142.9011 
 440   0.0000       5.275306       143.5484 
 441   0.0000       5.296291       144.1194 
 442   0.0000       5.301075       144.2496 
 443   0.0000       5.308374       144.4482 
 444   0.0000       5.321261       144.7989 
 445   0.0000       5.337220       145.2331 
 446   0.0000       5.356320       145.7529 
 447   0.0000       5.381574       146.4401 
 448   0.0000       5.396395       146.8434 
 449   0.0000       5.415653       147.3674 
 450   0.0000       5.433966       147.8657 
 451   0.0000       5.462364       148.6385 
 452   0.0000       5.512135       149.9928 
 453   0.0000       5.514566       150.0590 
 454   0.0000       5.577176       151.7627 
 455   0.0000       5.601515       152.4250 
 456   0.0000       5.623310       153.0180 
 457   0.0000       5.668188       154.2392 
 458   0.0000       5.723975       155.7573 
 459   0.0000       5.740236       156.1998 
 460   0.0000       5.793336       157.6447 
 461   0.0000       5.820419       158.3816 
 462   0.0000       5.864690       159.5863 
 463   0.0000       5.905293       160.6912 
 464   0.0000       6.061794       164.9498 
 465   0.0000       6.321567       172.0186 
 466   0.0000      29.619237       805.9804 
 467   0.0000      29.722760       808.7974 
 468   0.0000      29.807057       811.0913 
 469   0.0000      29.839724       811.9802 
 470   0.0000      29.885178       813.2170 
 471   0.0000      29.929158       814.4138 
 472   0.0000      29.966162       815.4207 
 473   0.0000      29.995773       816.2265 
 474   0.0000      30.015932       816.7750 
 475   0.0000      30.078055       818.4655 
 476   0.0000      30.107060       819.2547 
 477   0.0000      30.122894       819.6856 
 478   0.0000      30.147048       820.3429 
 479   0.0000      30.202323       821.8470 
 480   0.0000      30.244908       823.0058 
 481   0.0000      30.272637       823.7603 
 482   0.0000      30.317865       824.9910 
 483   0.0000      30.366234       826.3072 
 484   0.0000      30.548237       831.2598 
 485   0.0000      36.611852       996.2591 
 486   0.0000      36.621840       996.5309 
 487   0.0000      36.627092       996.6738 
 488   0.0000      36.632413       996.8186 
 489   0.0000      36.635810       996.9111 
 490   0.0000      36.642587       997.0955 
 491   0.0000      36.650316       997.3058 
 492   0.0000      36.660002       997.5694 
 493   0.0000      36.670951       997.8673 
 494   0.0000      36.681040       998.1418 
 495   0.0000      36.685327       998.2585 
 496   0.0000      36.700139       998.6616 
 497   0.0000      36.764539      1000.4140 
 498   0.0000      36.786965      1001.0242 
 499   0.0000      36.825563      1002.0745 
 500   0.0000      36.839150      1002.4442 
 501   0.0000      36.861859      1003.0622 
 502   0.0000      36.868777      1003.2504 
 503   0.0000      36.874208      1003.3982 
 504   0.0000      36.880308      1003.5642 
 505   0.0000      36.887453      1003.7586 
 506   0.0000      36.921662      1004.6895 
 507   0.0000      36.932375      1004.9810 
 508   0.0000      36.962149      1005.7912 
 509   0.0000      36.974009      1006.1139 
 510   0.0000      36.994151      1006.6620 
 511   0.0000      37.018212      1007.3167 

                 SPIN DOWN ORBITALS
  NO   OCC          E(Eh)            E(eV) 
   0   1.0000     -10.215660      -277.9822 
   1   1.0000     -10.205229      -277.6984 
   2   1.0000     -10.201839      -277.6062 
   3   1.0000     -10.201085      -277.5856 
   4   1.0000     -10.193818      -277.3879 
   5   1.0000     -10.192840      -277.3613 
   6   1.0000     -10.192221      -277.3444 
   7   1.0000     -10.191551      -277.3262 
   8   1.0000     -10.188905      -277.2542 
   9   1.0000     -10.186310      -277.1836 
  10   1.0000     -10.184511      -277.1346 
  11   1.0000     -10.182817      -277.0885 
  12   1.0000     -10.182188      -277.0714 
  13   1.0000     -10.181233      -277.0454 
  14   1.0000     -10.180191      -277.0171 
  15   1.0000     -10.179459      -276.9972 
  16   1.0000     -10.179155      -276.9889 
  17   1.0000     -10.174776      -276.8697 
  18   1.0000     -10.173312      -276.8299 
  19   1.0000      -0.863233       -23.4898 
  20   1.0000      -0.810845       -22.0642 
  21   1.0000      -0.800281       -21.7767 
  22   1.0000      -0.780536       -21.2395 
  23   1.0000      -0.775639       -21.1062 
  24   1.0000      -0.754355       -20.5270 
  25   1.0000      -0.726738       -19.7756 
  26   1.0000      -0.722602       -19.6630 
  27   1.0000      -0.698951       -19.0194 
  28   1.0000      -0.660833       -17.9822 
  29   1.0000      -0.633315       -17.2334 
  30   1.0000      -0.616872       -16.7859 
  31   1.0000      -0.602673       -16.3996 
  32   1.0000      -0.579621       -15.7723 
  33   1.0000      -0.574062       -15.6210 
  34   1.0000      -0.563535       -15.3346 
  35   1.0000      -0.556865       -15.1531 
  36   1.0000      -0.526631       -14.3304 
  37   1.0000      -0.493710       -13.4345 
  38   1.0000      -0.478572       -13.0226 
  39   1.0000      -0.469959       -12.7882 
  40   1.0000      -0.467353       -12.7173 
  41   1.0000      -0.459596       -12.5062 
  42   1.0000      -0.456311       -12.4169 
  43   1.0000      -0.425174       -11.5696 
  44   1.0000      -0.423404       -11.5214 
  45   1.0000      -0.420795       -11.4504 
  46   1.0000      -0.417979       -11.3738 
  47   1.0000      -0.415728       -11.3125 
  48   1.0000      -0.408164       -11.1067 
  49   1.0000      -0.393564       -10.7094 
  50   1.0000      -0.386509       -10.5174 
  51   1.0000      -0.377260       -10.2658 
  52   1.0000      -0.367452        -9.9989 
  53   1.0000      -0.364980        -9.9316 
  54   1.0000      -0.355443        -9.6721 
  55   1.0000      -0.351683        -9.5698 
  56   1.0000      -0.351433        -9.5630 
  57   1.0000      -0.336726        -9.1628 
  58   1.0000      -0.334797        -9.1103 
  59   1.0000      -0.327338        -8.9073 
  60   1.0000      -0.323311        -8.7977 
  61   1.0000      -0.323177        -8.7941 
  62   1.0000      -0.321510        -8.7487 
  63   1.0000      -0.319973        -8.7069 
  64   1.0000      -0.317198        -8.6314 
  65   1.0000      -0.309730        -8.4282 
  66   1.0000      -0.299346        -8.1456 
  67   1.0000      -0.272152        -7.4056 
  68   1.0000      -0.241177        -6.5628 
  69   1.0000      -0.223368        -6.0782 
  70   0.0000      -0.050970        -1.3870 
  71   0.0000      -0.032650        -0.8884 
  72   0.0000       0.000381         0.0104 
  73   0.0000       0.020143         0.5481 
  74   0.0000       0.023557         0.6410 
  75   0.0000       0.025139         0.6841 
  76   0.0000       0.030038         0.8174 
  77   0.0000       0.033784         0.9193 
  78   0.0000       0.040063         1.0902 
  79   0.0000       0.044745         1.2176 
  80   0.0000       0.045304         1.2328 
  81   0.0000       0.051062         1.3895 
  82   0.0000       0.058322         1.5870 
  83   0.0000       0.063447         1.7265 
  84   0.0000       0.077827         2.1178 
  85   0.0000       0.081841         2.2270 
  86   0.0000       0.086341         2.3494 
  87   0.0000       0.089540         2.4365 
  88   0.0000       0.110926         3.0185 
  89   0.0000       0.116788         3.1780 
  90   0.0000       0.121409         3.3037 
  91   0.0000       0.146719         3.9924 
  92   0.0000       0.148126         4.0307 
  93   0.0000       0.155692         4.2366 
  94   0.0000       0.161815         4.4032 
  95   0.0000       0.166580         4.5329 
  96   0.0000       0.169405         4.6097 
  97   0.0000       0.174287         4.7426 
  98   0.0000       0.181611         4.9419 
  99   0.0000       0.184461         5.0194 
 100   0.0000       0.190085         5.1725 
 101   0.0000       0.194017         5.2795 
 102   0.0000       0.195272         5.3136 
 103   0.0000       0.197921         5.3857 
 104   0.0000       0.198969         5.4142 
 105   0.0000       0.207066         5.6346 
 106   0.0000       0.207459         5.6452 
 107   0.0000       0.216731         5.8975 
 108   0.0000       0.217971         5.9313 
 109   0.0000       0.218439         5.9440 
 110   0.0000       0.220518         6.0006 
 111   0.0000       0.230451         6.2709 
 112   0.0000       0.236067         6.4237 
 113   0.0000       0.241712         6.5773 
 114   0.0000       0.250868         6.8265 
 115   0.0000       0.251438         6.8420 
 116   0.0000       0.253286         6.8923 
 117   0.0000       0.253879         6.9084 
 118   0.0000       0.255850         6.9620 
 119   0.0000       0.265216         7.2169 
 120   0.0000       0.269940         7.3454 
 121   0.0000       0.275275         7.4906 
 122   0.0000       0.279724         7.6117 
 123   0.0000       0.280287         7.6270 
 124   0.0000       0.285649         7.7729 
 125   0.0000       0.285764         7.7760 
 126   0.0000       0.289635         7.8814 
 127   0.0000       0.294144         8.0041 
 128   0.0000       0.296309         8.0630 
 129   0.0000       0.300223         8.1695 
 130   0.0000       0.307283         8.3616 
 131   0.0000       0.310654         8.4533 
 132   0.0000       0.312377         8.5002 
 133   0.0000       0.312567         8.5054 
 134   0.0000       0.319622         8.6973 
 135   0.0000       0.320827         8.7302 
 136   0.0000       0.322495         8.7755 
 137   0.0000       0.328201         8.9308 
 138   0.0000       0.329732         8.9725 
 139   0.0000       0.332042         9.0353 
 140   0.0000       0.342129         9.3098 
 141   0.0000       0.346747         9.4355 
 142   0.0000       0.351786         9.5726 
 143   0.0000       0.356795         9.7089 
 144   0.0000       0.366173         9.9641 
 145   0.0000       0.370550        10.0832 
 146   0.0000       0.371782        10.1167 
 147   0.0000       0.375809        10.2263 
 148   0.0000       0.384476        10.4621 
 149   0.0000       0.389950        10.6111 
 150   0.0000       0.391686        10.6583 
 151   0.0000       0.400892        10.9088 
 152   0.0000       0.404824        11.0158 
 153   0.0000       0.414428        11.2772 
 154   0.0000       0.417529        11.3615 
 155   0.0000       0.422094        11.4858 
 156   0.0000       0.427507        11.6331 
 157   0.0000       0.428065        11.6482 
 158   0.0000       0.435633        11.8542 
 159   0.0000       0.441724        12.0199 
 160   0.0000       0.450557        12.2603 
 161   0.0000       0.456344        12.4178 
 162   0.0000       0.463449        12.6111 
 163   0.0000       0.472450        12.8560 
 164   0.0000       0.477976        13.0064 
 165   0.0000       0.478339        13.0163 
 166   0.0000       0.483113        13.1462 
 167   0.0000       0.487534        13.2665 
 168   0.0000       0.491198        13.3662 
 169   0.0000       0.508505        13.8371 
 170   0.0000       0.511132        13.9086 
 171   0.0000       0.514000        13.9867 
 172   0.0000       0.517443        14.0803 
 173   0.0000       0.519482        14.1358 
[...]
  Z           0.8647638            0.0855308            0.4948414

Notes:  (1) The A matrix conforms to the "SAI" spin Hamiltonian convention.
        (2) Tensor is right-handed.

 -----------------------------------------------------------
 Nucleus  43H : A:ISTP=    1 I=  0.5 P=533.5514 MHz/au**3
                Q:ISTP=    2 I=  1.0 Q=  0.0029 barn     
 -----------------------------------------------------------
 Solving for nuclear perturbation:
Forming RHS of the CP-SCF equations         ... 
Calc. nucleus orbit integrals (SHARK)       ... done

------------------------------------------------------------------------------
                           ORCA CP-SCF CALCULATION
------------------------------------------------------------------------------

Input orbitals are from        ... EPRII_i.gbw
Input Perturbation             ... EPRII_i.pin.tmp
Wavefunction output            ... EPRII_i.pout.tmp
Perturbation mode              ... Imaginary perturbation
Solver                         ... POPLE
Max. number of iterations      ... 64
Convergence tolerance          ... 1.000e-03
Integral handling              ... Direct
DFT GridXC                     ... 1
COSX GridX                     ... 1
COSX IntAccX                   ... 3.067
COSX Algorithm                 ... Auto
Number of perturbations        ... 3
Number of operators            ... 2
Orbital ranges used for CP-SCF:
 Operator 0:  Orbitals   0... 70  to  71...511
 Operator 1:  Orbitals   0... 69  to  70...511
Variables per perturbation     ... 62251
DFT calculation                         ... on
XC functional terms                     ... off
Hybrid DFT                              ... on
   Exchange mixing (SCF)                ...  0.200
   Exchange mixing (CP-SCF)             ...  0.200
   GGA exch. scaling(SCF)               ...  0.720
   GGA exch. scaling (CP-SCF)           ...  0.720
   GGA corr. scaling (SCF)              ...  0.810
   GGA corr. scaling (CP-SCF)           ...  0.810

CP-SCF GRID
-----------

General Integration Accuracy     IntAcc      ... 3.467
Radial Grid Type                 RadialGrid  ... OptM3 with GC (2021)
Angular Grid (max. ang.)         AngularGrid ... 1 (Lebedev-50)
Angular grid pruning method      GridPruning ... 4 (adaptive)
Weight generation scheme         WeightScheme... Becke
Basis function cutoff            BFCut       ... 1.0000e-10
Integration weight cutoff        WCut        ... 1.0000e-14
Angular grids for H and He will be reduced by one unit
Partially contracted basis set               ... off
Rotationally invariant grid construction     ... off

Total number of grid points                  ...    27866
Total number of batches                      ...      455
Average number of points per batch           ...       61
Average number of grid points per atom       ...      606

CP-SCF GRIDX
------------

General Integration Accuracy     IntAcc      ... 3.067
Radial Grid Type                 RadialGrid  ... OptM3 with GC (2021)
Angular Grid (max. ang.)         AngularGrid ... 1 (Lebedev-50)
Angular grid pruning method      GridPruning ... 4 (adaptive)
Weight generation scheme         WeightScheme... Becke
Basis function cutoff            BFCut       ... 1.0000e-10
Integration weight cutoff        WCut        ... 1.0000e-14
Angular grids for H and He will be reduced by one unit
Partially contracted basis set               ... on
Rotationally invariant grid construction     ... off

Total number of grid points                  ...    13256
Total number of batches                      ...      234
Average number of points per batch           ...       56
Average number of grid points per atom       ...      288

Memory available               ... 876.8 MB
Memory needed per perturbation ...  15.3 MB
Perturbations treated per batch... 3
Number of batches              ... 1
     CP-SCF ITERATION   0:   1.0073e-01 (   1.8 sec   0/  3 done)
     CP-SCF ITERATION   1:   1.6697e-03 (   1.6 sec   2/  3 done)
     CP-SCF ITERATION   2:   8.2905e-05 (   1.2 sec   3/  3 done)
                    *** THE CP-SCF HAS CONVERGED ***

Forming final perturbed densities           ... done
Transforming perturbed density to AO basis  ... done

 Raw HFC matrix (all values in MHz): 
 -----------------------------------
                -0.0437              -0.0592               0.0021
                -0.0593               0.1097              -0.0061
                 0.0021              -0.0061              -0.0652

 A(FC)           0.0002               0.0002               0.0002
 A(SD)          -0.0642              -0.0657               0.1298
 A(ORB+DIA)      0.0000               0.0000               0.0000    A(PC) =   0.0000
 A(ORB)         -0.0000              -0.0000               0.0000    A(PC) =  -0.0000
 A(DIA)          0.0000               0.0000               0.0000    A(PC) =   0.0000
             ----------           ----------           ----------
 A(Tot)         -0.0639              -0.0654               0.1301    A(iso)=    0.0003
 Orientation: 
  X           0.9462927           -0.0183058            0.3227925
  Y           0.3232113            0.0287436           -0.9458902
  Z           0.0080370            0.9994192            0.0331165

Notes:  (1) The A matrix conforms to the "SAI" spin Hamiltonian convention.
        (2) Tensor is right-handed.

 -----------------------------------------------------------
 Nucleus  44H : A:ISTP=    1 I=  0.5 P=533.5514 MHz/au**3
                Q:ISTP=    2 I=  1.0 Q=  0.0029 barn     
 -----------------------------------------------------------
 Solving for nuclear perturbation:
Forming RHS of the CP-SCF equations         ... 
Calc. nucleus orbit integrals (SHARK)       ... done

------------------------------------------------------------------------------
                           ORCA CP-SCF CALCULATION
------------------------------------------------------------------------------

Input orbitals are from        ... EPRII_i.gbw
Input Perturbation             ... EPRII_i.pin.tmp
Wavefunction output            ... EPRII_i.pout.tmp
Perturbation mode              ... Imaginary perturbation
Solver                         ... POPLE
Max. number of iterations      ... 64
Convergence tolerance          ... 1.000e-03
Integral handling              ... Direct
DFT GridXC                     ... 1
COSX GridX                     ... 1
COSX IntAccX                   ... 3.067
COSX Algorithm                 ... Auto
Number of perturbations        ... 3
Number of operators            ... 2
Orbital ranges used for CP-SCF:
 Operator 0:  Orbitals   0... 70  to  71...511
 Operator 1:  Orbitals   0... 69  to  70...511
Variables per perturbation     ... 62251
DFT calculation                         ... on
XC functional terms                     ... off
Hybrid DFT                              ... on
   Exchange mixing (SCF)                ...  0.200
   Exchange mixing (CP-SCF)             ...  0.200
   GGA exch. scaling(SCF)               ...  0.720
   GGA exch. scaling (CP-SCF)           ...  0.720
   GGA corr. scaling (SCF)              ...  0.810
   GGA corr. scaling (CP-SCF)           ...  0.810

CP-SCF GRID
-----------

General Integration Accuracy     IntAcc      ... 3.467
Radial Grid Type                 RadialGrid  ... OptM3 with GC (2021)
Angular Grid (max. ang.)         AngularGrid ... 1 (Lebedev-50)
Angular grid pruning method      GridPruning ... 4 (adaptive)
Weight generation scheme         WeightScheme... Becke
Basis function cutoff            BFCut       ... 1.0000e-10
Integration weight cutoff        WCut        ... 1.0000e-14
Angular grids for H and He will be reduced by one unit
Partially contracted basis set               ... off
Rotationally invariant grid construction     ... off

Total number of grid points                  ...    27866
Total number of batches                      ...      455
Average number of points per batch           ...       61
Average number of grid points per atom       ...      606

CP-SCF GRIDX
------------

General Integration Accuracy     IntAcc      ... 3.067
Radial Grid Type                 RadialGrid  ... OptM3 with GC (2021)
Angular Grid (max. ang.)         AngularGrid ... 1 (Lebedev-50)
Angular grid pruning method      GridPruning ... 4 (adaptive)
Weight generation scheme         WeightScheme... Becke
Basis function cutoff            BFCut       ... 1.0000e-10
Integration weight cutoff        WCut        ... 1.0000e-14
Angular grids for H and He will be reduced by one unit
Partially contracted basis set               ... on
Rotationally invariant grid construction     ... off

Total number of grid points                  ...    13256
Total number of batches                      ...      234
Average number of points per batch           ...       56
Average number of grid points per atom       ...      288

Memory available               ... 876.3 MB
Memory needed per perturbation ...  15.3 MB
Perturbations treated per batch... 3
Number of batches              ... 1
     CP-SCF ITERATION   0:   3.6982e-02 (   1.6 sec   0/  3 done)
     CP-SCF ITERATION   1:   5.6010e-04 (   1.6 sec   3/  3 done)
                    *** THE CP-SCF HAS CONVERGED ***

Forming final perturbed densities           ... done
Transforming perturbed density to AO basis  ... done

 Raw HFC matrix (all values in MHz): 
 -----------------------------------
                -0.0130               0.0081              -0.0002
                 0.0081               0.0276              -0.0008
                -0.0002              -0.0008              -0.0146

 A(FC)           0.0000               0.0000               0.0000
 A(SD)          -0.0146              -0.0146               0.0292
 A(ORB+DIA)      0.0000               0.0000               0.0000    A(PC) =   0.0000
 A(ORB)         -0.0000              -0.0000               0.0000    A(PC) =  -0.0000
 A(DIA)          0.0000               0.0000               0.0000    A(PC) =   0.0000
             ----------           ----------           ----------
 A(Tot)         -0.0145              -0.0146               0.0292    A(iso)=    0.0000
 Orientation: 
  X           0.9817001           -0.0169534           -0.1896773
  Y          -0.1892738            0.0228892           -0.9816575
  Z           0.0209840            0.9995943            0.0192615

Notes:  (1) The A matrix conforms to the "SAI" spin Hamiltonian convention.
        (2) Tensor is right-handed.

 -----------------------------------------------------------
 Nucleus  45H : A:ISTP=    1 I=  0.5 P=533.5514 MHz/au**3
                Q:ISTP=    2 I=  1.0 Q=  0.0029 barn     
 -----------------------------------------------------------
 Solving for nuclear perturbation:
Forming RHS of the CP-SCF equations         ... 
Calc. nucleus orbit integrals (SHARK)       ... done

------------------------------------------------------------------------------
                           ORCA CP-SCF CALCULATION
------------------------------------------------------------------------------

Input orbitals are from        ... EPRII_i.gbw
Input Perturbation             ... EPRII_i.pin.tmp
Wavefunction output            ... EPRII_i.pout.tmp
Perturbation mode              ... Imaginary perturbation
Solver                         ... POPLE
Max. number of iterations      ... 64
Convergence tolerance          ... 1.000e-03
Integral handling              ... Direct
DFT GridXC                     ... 1
COSX GridX                     ... 1
COSX IntAccX                   ... 3.067
COSX Algorithm                 ... Auto
Number of perturbations        ... 3
Number of operators            ... 2
Orbital ranges used for CP-SCF:
 Operator 0:  Orbitals   0... 70  to  71...511
 Operator 1:  Orbitals   0... 69  to  70...511
Variables per perturbation     ... 62251
DFT calculation                         ... on
XC functional terms                     ... off
Hybrid DFT                              ... on
   Exchange mixing (SCF)                ...  0.200
   Exchange mixing (CP-SCF)             ...  0.200
   GGA exch. scaling(SCF)               ...  0.720
   GGA exch. scaling (CP-SCF)           ...  0.720
   GGA corr. scaling (SCF)              ...  0.810
   GGA corr. scaling (CP-SCF)           ...  0.810

CP-SCF GRID
-----------

General Integration Accuracy     IntAcc      ... 3.467
Radial Grid Type                 RadialGrid  ... OptM3 with GC (2021)
Angular Grid (max. ang.)         AngularGrid ... 1 (Lebedev-50)
Angular grid pruning method      GridPruning ... 4 (adaptive)
Weight generation scheme         WeightScheme... Becke
Basis function cutoff            BFCut       ... 1.0000e-10
Integration weight cutoff        WCut        ... 1.0000e-14
Angular grids for H and He will be reduced by one unit
Partially contracted basis set               ... off
Rotationally invariant grid construction     ... off

Total number of grid points                  ...    27866
Total number of batches                      ...      455
Average number of points per batch           ...       61
Average number of grid points per atom       ...      606

CP-SCF GRIDX
------------

General Integration Accuracy     IntAcc      ... 3.067
Radial Grid Type                 RadialGrid  ... OptM3 with GC (2021)
Angular Grid (max. ang.)         AngularGrid ... 1 (Lebedev-50)
Angular grid pruning method      GridPruning ... 4 (adaptive)
Weight generation scheme         WeightScheme... Becke
Basis function cutoff            BFCut       ... 1.0000e-10
Integration weight cutoff        WCut        ... 1.0000e-14
Angular grids for H and He will be reduced by one unit
Partially contracted basis set               ... on
Rotationally invariant grid construction     ... off

Total number of grid points                  ...    13256
Total number of batches                      ...      234
Average number of points per batch           ...       56
Average number of grid points per atom       ...      288

Memory available               ... 875.7 MB
Memory needed per perturbation ...  15.3 MB
Perturbations treated per batch... 3
Number of batches              ... 1
     CP-SCF ITERATION   0:   4.3440e-02 (   1.6 sec   0/  3 done)
     CP-SCF ITERATION   1:   1.6825e-03 (   1.8 sec   1/  3 done)
     CP-SCF ITERATION   2:   7.7804e-05 (   1.4 sec   3/  3 done)
                    *** THE CP-SCF HAS CONVERGED ***

Forming final perturbed densities           ... done
Transforming perturbed density to AO basis  ... done

 Raw HFC matrix (all values in MHz): 
 -----------------------------------
                -0.0326               0.0691              -0.0013
                 0.0691               0.0959              -0.0030
                -0.0013              -0.0030              -0.0642

 A(FC)          -0.0003              -0.0003              -0.0003
 A(SD)          -0.0625              -0.0640               0.1264
 A(ORB+DIA)      0.0000               0.0000               0.0000    A(PC) =   0.0000
 A(ORB)         -0.0000              -0.0000               0.0000    A(PC) =  -0.0000
 A(DIA)          0.0000               0.0000               0.0000    A(PC) =   0.0000
             ----------           ----------           ----------
 A(Tot)         -0.0628              -0.0643               0.1261    A(iso)=   -0.0003
 Orientation: 
  X           0.9166254           -0.0180358           -0.3993403
  Y          -0.3988259            0.0265273           -0.9166429
  Z           0.0271258            0.9994854            0.0171225

Notes:  (1) The A matrix conforms to the "SAI" spin Hamiltonian convention.
        (2) Tensor is right-handed.


--------------------------------------------------------------------------------
----------------------------------------------------------------------------
                           ORCA EULER ANGLE PROGRAM
----------------------------------------------------------------------------

Only g-tensor available        -->  using g-tensor as reference tensor

Reference tensor               ...  g

g-tensor ordering              ...  |g_min> --> |gx>
                                    |g_mid> --> |gy>
                                    |g_max> --> |gz>

A- and EFG-tensor ordering     ...  the axes |Ax>, |Qx>, |Ay>, etc. are assigned
                                    such that the Euler rotation is minimal. You
                                    can find the respective eigenvalues as Ax,
                                    EFGx, Ay, etc. in the tables below.
                                    The relation of |Ax>, |Ay>,  etc. to Amin, Amid, etc.
                                    (as printed in the ORCA EPR/NMR CALCULATION Output)
                                    is obtained in the detailed printout.

Euler rotation around          ...  z - y - z
   First rotation              -->  by alpha around z
   Second rotation             -->  by beta around y'
   Third rotation              -->  by gamma around z''
   Positive / Negative angle   -->  clockwise / counterclockwise rotation

Plot EFG-tensors                    (-)
Plot HFC-tensors                    (-)
Detailed Printout                   (-)

-------------------------------------------------------------------------
          Euler rotation of hyperfine tensor to g-tensor
-------------------------------------------------------------------------

-------------------------------------------------------------------
 Atom  |   Alpha    Beta    Gamma   |   Ax       Ay       Az 
       |          [degrees]         |           [MHz]         
-------------------------------------------------------------------
  7H     -178.5     31.7    179.0      -0.04    -0.04     0.10
  8H     -175.5     11.2    175.9      -0.13    -0.15     0.28
 10H     -159.7     16.6    163.7      -0.04    -0.04     0.07
 11H      164.8     16.4   -168.4      -0.04    -0.04     0.07
 13H     -165.1     26.5    169.9      -0.03    -0.03     0.06
 14H      170.5     26.4   -173.4      -0.03    -0.03     0.06
 16H      168.1     18.7   -172.3      -0.02    -0.02     0.04
 17H     -162.5     19.0    167.3      -0.02    -0.02     0.04
 19H      174.7     27.0   -175.1      -0.02    -0.02     0.03
 20H     -170.3     27.2    171.2      -0.02    -0.02     0.03
 22H     -155.3     40.3   -167.6      -0.19    -0.23     0.38
 23H      158.1     40.7    166.5      -0.19    -0.23     0.38
 25H      -97.1     19.0    137.1      -0.36    -0.49     0.55
 26H      101.3     17.9   -140.2      -0.36    -0.49     0.56
 28H      -17.1     46.6     43.8       1.56    -0.54    -0.32
 29H       15.6     45.5    -42.4       1.56    -0.54    -0.31
 31H       59.1     17.0    -99.3      -1.39    -2.29     1.69
 32H      -58.3     18.4     98.8      -1.39    -2.29     1.70
 34H       23.9     28.4    -60.6       3.27    -9.72    -6.29
 35H      -25.3     29.6     61.8       3.26    -9.73    -6.30
 37H      -95.7     26.3     66.3      29.72    29.33    43.38
 38H       94.5     25.1    -65.2      29.47    29.07    43.12
 40H       77.0     30.1    -82.2     -65.09   -24.81  -102.03
 41H      -77.4     31.4     82.5     -65.09   -24.80  -102.02
 43H       -1.3     37.3      1.4       0.13    -0.07    -0.06
 44H     -177.4     22.9    177.7      -0.01    -0.01     0.03
 45H     -175.1     10.3    175.5      -0.06    -0.06     0.13
-------------------------------------------------------------------


Maximum memory used throughout the entire EPRNMR-calculation: 217.9 MB

Timings for individual modules:

Sum of individual times         ...     3780.502 sec (=  63.008 min)
GTO integral calculation        ...        5.292 sec (=   0.088 min)   0.1 %
Spin-Orbit-Coupling Matrices    ...       10.966 sec (=   0.183 min)   0.3 %
SCF iterations                  ...       79.459 sec (=   1.324 min)   2.1 %
EPR/NMR calculation             ...     3684.784 sec (=  61.413 min)  97.5 %
                             ****ORCA TERMINATED NORMALLY****
TOTAL RUN TIME: 0 days 1 hours 3 minutes 4 seconds 646 msec
