
                                 *****************
                                 * O   R   C   A *
                                 *****************

                                            #,                                       
                                            ###                                      
                                            ####                                     
                                            #####                                    
                                            ######                                   
                                           ########,                                 
                                     ,,################,,,,,                         
                               ,,#################################,,                 
                          ,,##########################################,,             
                       ,#########################################, ''#####,          
                    ,#############################################,,   '####,        
                  ,##################################################,,,,####,       
                ,###########''''           ''''###############################       
              ,#####''   ,,,,##########,,,,          '''####'''          '####       
            ,##' ,,,,###########################,,,                        '##       
           ' ,,###''''                  '''############,,,                           
         ,,##''                                '''############,,,,        ,,,,,,###''
      ,#''                                            '''#######################'''  
     '                                                          ''''####''''         
             ,#######,   #######,   ,#######,      ##                                
            ,#'     '#,  ##    ##  ,#'     '#,    #''#        ######   ,####,        
            ##       ##  ##   ,#'  ##            #'  '#       #        #'  '#        
            ##       ##  #######   ##           ,######,      #####,   #    #        
            '#,     ,#'  ##    ##  '#,     ,#' ,#      #,         ##   #,  ,#        
             '#######'   ##     ##  '#######'  #'      '#     #####' # '####'        



                  #######################################################
                  #                        -***-                        #
                  #          Department of theory and spectroscopy      #
                  #    Directorship and core code : Frank Neese         #
                  #        Max Planck Institute fuer Kohlenforschung    #
                  #                Kaiser Wilhelm Platz 1               #
                  #                 D-45470 Muelheim/Ruhr               #
                  #                      Germany                        #
                  #                                                     #
                  #                  All rights reserved                #
                  #                        -***-                        #
                  #######################################################


                         Program Version 5.0.4 -  RELEASE  -


 With contributions from (in alphabetic order):
   Daniel Aravena         : Magnetic Suceptibility
   Michael Atanasov       : Ab Initio Ligand Field Theory (pilot matlab implementation)
   Alexander A. Auer      : GIAO ZORA, VPT2 properties, NMR spectrum
   Ute Becker             : Parallelization
   Giovanni Bistoni       : ED, misc. LED, open-shell LED, HFLD
   Martin Brehm           : Molecular dynamics
   Dmytro Bykov           : SCF Hessian
   Vijay G. Chilkuri      : MRCI spin determinant printing, contributions to CSF-ICE
   Dipayan Datta          : RHF DLPNO-CCSD density
   Achintya Kumar Dutta   : EOM-CC, STEOM-CC
   Dmitry Ganyushin       : Spin-Orbit,Spin-Spin,Magnetic field MRCI
   Miquel Garcia          : C-PCM and meta-GGA Hessian, CC/C-PCM, Gaussian charge scheme
   Yang Guo               : DLPNO-NEVPT2, F12-NEVPT2, CIM, IAO-localization
   Andreas Hansen         : Spin unrestricted coupled pair/coupled cluster methods
   Benjamin Helmich-Paris : MC-RPA, TRAH-SCF, COSX integrals
   Lee Huntington         : MR-EOM, pCC
   Robert Izsak           : Overlap fitted RIJCOSX, COSX-SCS-MP3, EOM
   Marcus Kettner         : VPT2
   Christian Kollmar      : KDIIS, OOCD, Brueckner-CCSD(T), CCSD density, CASPT2, CASPT2-K
   Simone Kossmann        : Meta GGA functionals, TD-DFT gradient, OOMP2, MP2 Hessian
   Martin Krupicka        : Initial AUTO-CI
   Lucas Lang             : DCDCAS
   Marvin Lechner         : AUTO-CI (C++ implementation), FIC-MRCC
   Dagmar Lenk            : GEPOL surface, SMD
   Dimitrios Liakos       : Extrapolation schemes; Compound Job, initial MDCI parallelization
   Dimitrios Manganas     : Further ROCIS development; embedding schemes
   Dimitrios Pantazis     : SARC Basis sets
   Anastasios Papadopoulos: AUTO-CI, single reference methods and gradients
   Taras Petrenko         : DFT Hessian,TD-DFT gradient, ASA, ECA, R-Raman, ABS, FL, XAS/XES, NRVS
   Peter Pinski           : DLPNO-MP2, DLPNO-MP2 Gradient
   Christoph Reimann      : Effective Core Potentials
   Marius Retegan         : Local ZFS, SOC
   Christoph Riplinger    : Optimizer, TS searches, QM/MM, DLPNO-CCSD(T), (RO)-DLPNO pert. Triples
   Tobias Risthaus        : Range-separated hybrids, TD-DFT gradient, RPA, STAB
   Michael Roemelt        : Original ROCIS implementation
   Masaaki Saitow         : Open-shell DLPNO-CCSD energy and density
   Barbara Sandhoefer     : DKH picture change effects
   Avijit Sen             : IP-ROCIS
   Kantharuban Sivalingam : CASSCF convergence, NEVPT2, FIC-MRCI
   Bernardo de Souza      : ESD, SOC TD-DFT
   Georgi Stoychev        : AutoAux, RI-MP2 NMR, DLPNO-MP2 response
   Willem Van den Heuvel  : Paramagnetic NMR
   Boris Wezisla          : Elementary symmetry handling
   Frank Wennmohs         : Technical directorship


 We gratefully acknowledge several colleagues who have allowed us to
 interface, adapt or use parts of their codes:
   Stefan Grimme, W. Hujo, H. Kruse, P. Pracht,  : VdW corrections, initial TS optimization,
                  C. Bannwarth, S. Ehlert          DFT functionals, gCP, sTDA/sTD-DF
   Ed Valeev, F. Pavosevic, A. Kumar             : LibInt (2-el integral package), F12 methods
   Garnet Chan, S. Sharma, J. Yang, R. Olivares  : DMRG
   Ulf Ekstrom                                   : XCFun DFT Library
   Mihaly Kallay                                 : mrcc  (arbitrary order and MRCC methods)
   Jiri Pittner, Ondrej Demel                    : Mk-CCSD
   Frank Weinhold                                : gennbo (NPA and NBO analysis)
   Christopher J. Cramer and Donald G. Truhlar   : smd solvation model
   Lars Goerigk                                  : TD-DFT with DH, B97 family of functionals
   V. Asgeirsson, H. Jonsson                     : NEB implementation
   FAccTs GmbH                                   : IRC, NEB, NEB-TS, DLPNO-Multilevel, CI-OPT
                                                   MM, QMMM, 2- and 3-layer-ONIOM, Crystal-QMMM,
                                                   LR-CPCM, SF, NACMEs, symmetry and pop. for TD-DFT,
                                                   nearIR, NL-DFT gradient (VV10), updates on ESD,
                                                   ML-optimized integration grids
   S Lehtola, MJT Oliveira, MAL Marques          : LibXC Library
   Liviu Ungur et al                             : ANISO software


 Your calculation uses the libint2 library for the computation of 2-el integrals
 For citations please refer to: http://libint.valeyev.net

 Your ORCA version has been built with support for libXC version: 5.1.0
 For citations please refer to: https://tddft.org/programs/libxc/

 This ORCA versions uses:
   CBLAS   interface :  Fast vector & matrix operations
   LAPACKE interface :  Fast linear algebra routines
   SCALAPACK package :  Parallel linear algebra routines
   Shared memory     :  Shared parallel matrices
   BLAS/LAPACK       :  OpenBLAS 0.3.15  USE64BITINT DYNAMIC_ARCH NO_AFFINITY SkylakeX SINGLE_THREADED
        Core in use  :  SkylakeX
   Copyright (c) 2011-2014, The OpenBLAS Project




***************************************
The coordinates will be read from file: model.xyz
***************************************


================================================================================

----- Orbital basis set information -----
Your calculation utilizes the basis: cc-pVDZ 
       H, B-Ne : Obtained from the ccRepo (grant-hill.group.shef.ac.uk/ccrepo) Feb. 2017
                 T. H. Dunning, Jr., J. Chem. Phys. 90, 1007 (1989)
            He : Obtained from the ccRepo (grant-hill.group.shef.ac.uk/ccrepo) Feb. 2017
                 D. E. Woon, T. H. Dunning, Jr., J. Chem. Phys. 100, 2975 (1994)
  Li-Be, Na-Mg : Obtained from the ccRepo (grant-hill.group.shef.ac.uk/ccrepo) Feb. 2017
                 B. P. Prascher, D. E. Woon, K. A. Peterson, T. H. Dunning, Jr., A. K. Wilson, Theor. Chem. Acc. 128, 69 (2011)
         Al-Ar : Obtained from the ccRepo (grant-hill.group.shef.ac.uk/ccrepo) Feb. 2017
                 D. E. Woon, T. H. Dunning, Jr., J. Chem. Phys. 98, 1358 (1993)
            Ca : Obtained from the Peterson Research Group Website (tyr0.chem.wsu.edu/~kipeters) Feb. 2017
                 J. Koput, K. A. Peterson, J. Phys. Chem. 106, 9595 (2002)
         Sc-Zn : Obtained from the ccRepo (grant-hill.group.shef.ac.uk/ccrepo) Feb. 2017
                 N. B. Balabanov, K. A. Peterson, J. Chem. Phys. 123, 064107 (2005)
                 N. B. Balabanov, K. A. Peterson, J. Chem. Phys. 125, 074110 (2006)
         Ga-Kr : Obtained from the ccRepo (grant-hill.group.shef.ac.uk/ccrepo) Feb. 2017
                 A. K. Wilson, D. E. Woon, K. A. Peterson, T. H. Dunning, Jr., J. Chem. Phys. 110, 7667 (1999)

----- AuxJ basis set information -----
Your calculation utilizes the auxiliary basis: def2/J
   F. Weigend, Phys. Chem. Chem. Phys. 8, 1057 (2006).

================================================================================
                                        WARNINGS
                       Please study these warnings very carefully!
================================================================================


WARNING: your system is open-shell and RHF/RKS was chosen
  ===> : WILL SWITCH to UHF/UKS


WARNING: Geometry Optimization
  ===> : Switching off AutoStart
         For restart on a previous wavefunction, please use MOREAD

INFO   : the flag for use of the SHARK integral package has been found!

================================================================================
                                       INPUT FILE
================================================================================
NAME = opt.inp
|  1> ! B3LYP cc-pVDZ OPT
|  2> %pal nprocs 16 end
|  3> *XYZFile 0 2 model.xyz
|  4> 
|  5>                          ****END OF INPUT****
================================================================================

                       *****************************
                       * Geometry Optimization Run *
                       *****************************

Geometry optimization settings:
Update method            Update   .... BFGS
Choice of coordinates    CoordSys .... Z-matrix Internals
Initial Hessian          InHess   .... Almoef's Model

Convergence Tolerances:
Energy Change            TolE     ....  5.0000e-06 Eh
Max. Gradient            TolMAXG  ....  3.0000e-04 Eh/bohr
RMS Gradient             TolRMSG  ....  1.0000e-04 Eh/bohr
Max. Displacement        TolMAXD  ....  4.0000e-03 bohr
RMS Displacement         TolRMSD  ....  2.0000e-03 bohr
Strict Convergence                ....  False
------------------------------------------------------------------------------
                        ORCA OPTIMIZATION COORDINATE SETUP
------------------------------------------------------------------------------

The optimization will be done in new redundant internal coordinates
Making redundant internal coordinates   ...  (new redundants) done
Evaluating the initial hessian          ...  (Almloef) done
Evaluating the coordinates              ...  done
Calculating the B-matrix                .... done
Calculating the G-matrix                .... done
Diagonalizing the G-matrix              .... done
Small eigenvalue found = 9.679e-04
Small eigenvalue found = 4.108e-03
Small eigenvalue found = 4.580e-03
Small eigenvalue found = 1.062e-02
Small eigenvalue found = 1.256e-02
Small eigenvalue found = 2.148e-02
Small eigenvalue found = 2.815e-02
Small eigenvalue found = 2.941e-02
The first mode is                       ....  113
The number of degrees of freedom        ....  132

    -----------------------------------------------------------------
                    Redundant Internal Coordinates


    -----------------------------------------------------------------
         Definition                    Initial Value    Approx d2E/dq
    -----------------------------------------------------------------
      1. B(C   2,C   1)                  1.4186         0.562434   
      2. B(C   3,C   2)                  1.3955         0.612309   
      3. B(C   4,C   0)                  1.4327         0.534111   
      4. B(C   4,C   3)                  1.4092         0.582143   
      5. B(C   5,C   4)                  1.4187         0.562353   
      6. B(C   6,C   5)                  1.3955         0.612339   
      7. B(C   6,C   1)                  1.4093         0.581936   
      8. B(H   7,C   3)                  1.0898         0.360325   
      9. B(H   8,C   6)                  1.0898         0.360349   
     10. B(C   9,C   2)                  1.5167         0.392304   
     11. B(H  10,C   9)                  1.1053         0.340443   
     12. B(H  11,C   9)                  1.1059         0.339644   
     13. B(C  12,C   9)                  1.5310         0.372270   
     14. B(H  13,C  12)                  1.1057         0.339927   
     15. B(H  14,C  12)                  1.1057         0.339946   
     16. B(C  15,C  12)                  1.5337         0.368529   
     17. B(H  16,C  15)                  1.1058         0.339755   
     18. B(H  17,C  15)                  1.1058         0.339731   
     19. B(C  18,C  15)                  1.5307         0.372667   
     20. B(H  19,C  18)                  1.1037         0.342388   
     21. B(H  20,C  18)                  1.1037         0.342423   
     22. B(C  21,C   5)                  1.5167         0.392278   
     23. B(H  22,C  21)                  1.1059         0.339664   
     24. B(H  23,C  21)                  1.1051         0.340639   
     25. B(C  24,C  21)                  1.5312         0.371949   
     26. B(H  25,C  24)                  1.1055         0.340149   
     27. B(H  26,C  24)                  1.1055         0.340217   
     28. B(C  27,C  24)                  1.5333         0.369022   
     29. B(H  28,C  27)                  1.1065         0.338938   
     30. B(H  29,C  27)                  1.1066         0.338835   
     31. B(C  30,C  27)                  1.5327         0.369829   
     32. B(H  31,C  30)                  1.1068         0.338567   
     33. B(H  32,C  30)                  1.1068         0.338576   
     34. B(C  33,C  30)                  1.5325         0.370139   
     35. B(H  34,C  33)                  1.1071         0.338193   
     36. B(H  35,C  33)                  1.1070         0.338318   
     37. B(C  36,C  33)                  1.5330         0.369485   
     38. B(H  37,C  36)                  1.1061         0.339403   
     39. B(H  38,C  36)                  1.1061         0.339367   
     40. B(C  39,C  36)                  1.5309         0.372385   
     41. B(H  40,C  39)                  1.1039         0.342230   
     42. B(H  41,C  39)                  1.1039         0.342211   
     43. B(C  42,C   0)                  1.2161         1.183410   
     44. B(H  43,C  42)                  1.0724         0.384084   
     45. B(H  44,C  18)                  1.1021         0.344433   
     46. B(H  45,C   1)                  1.0724         0.384090   
     47. L(C   4,C   0,C  42,C   3, 1) 179.4917         0.475178   
     48. L(C   4,C   0,C  42,C   3, 2) 179.7652         0.475178   
     49. A(C   6,C   1,H  45)          120.8997         0.352977   
     50. A(C   2,C   1,C   6)          120.3619         0.421733   
     51. A(C   2,C   1,H  45)          118.7381         0.350948   
     52. A(C   1,C   2,C   9)          119.8919         0.393323   
     53. A(C   1,C   2,C   3)          117.3129         0.425586   
     54. A(C   3,C   2,C   9)          122.7952         0.399232   
     55. A(C   2,C   3,H   7)          120.0334         0.352202   
     56. A(C   4,C   3,H   7)          117.6376         0.349209   
     57. A(C   2,C   3,C   4)          122.3289         0.428221   
     58. A(C   0,C   4,C   5)          120.6583         0.415326   
     59. A(C   3,C   4,C   5)          120.3564         0.421749   
     60. A(C   0,C   4,C   3)          118.9852         0.417891   
     61. A(C   4,C   5,C  21)          119.8966         0.393308   
     62. A(C   4,C   5,C   6)          117.3190         0.425579   
     63. A(C   6,C   5,C  21)          122.7844         0.399231   
     64. A(C   1,C   6,C   5)          122.3201         0.428197   
     65. A(C   5,C   6,H   8)          120.0377         0.352209   
     66. A(C   1,C   6,H   8)          117.6422         0.349192   
     67. A(C   2,C   9,H  11)          108.2548         0.323810   
     68. A(C   2,C   9,H  10)          108.1108         0.323935   
     69. A(C   2,C   9,C  12)          116.8747         0.366186   
     70. A(H  10,C   9,C  12)          109.1968         0.321164   
     71. A(H  10,C   9,H  11)          104.4709         0.285671   
     72. A(H  11,C   9,C  12)          109.2174         0.321041   
     73. A(H  14,C  12,C  15)          108.9909         0.320557   
     74. A(H  13,C  12,C  15)          109.1325         0.320554   
     75. A(C   9,C  12,C  15)          112.5616         0.362292   
     76. A(H  13,C  12,H  14)          106.2034         0.285643   
     77. A(C   9,C  12,H  14)          109.9781         0.321087   
     78. A(C   9,C  12,H  13)          109.7687         0.321084   
     79. A(H  16,C  15,C  18)          109.6058         0.321114   
     80. A(C  12,C  15,C  18)          113.2126         0.362358   
     81. A(H  16,C  15,H  17)          105.8547         0.285592   
     82. A(C  12,C  15,H  17)          109.1663         0.320524   
     83. A(C  12,C  15,H  16)          109.1868         0.320528   
     84. A(H  17,C  15,C  18)          109.5495         0.321110   
     85. A(H  20,C  18,H  44)          107.6110         0.286554   
     86. A(H  19,C  18,H  44)          107.5917         0.286549   
     87. A(C  15,C  18,H  44)          111.4935         0.321833   
     88. A(H  19,C  18,H  20)          107.3686         0.286288   
     89. A(C  15,C  18,H  20)          111.2439         0.321525   
     90. A(C  15,C  18,H  19)          111.3263         0.321520   
     91. A(H  23,C  21,C  24)          109.1766         0.321149   
     92. A(H  22,C  21,C  24)          109.3301         0.320998   
     93. A(C   5,C  21,C  24)          116.8499         0.366128   
     94. A(H  22,C  21,H  23)          104.4607         0.285699   
     95. A(C   5,C  21,H  23)          108.0647         0.323962   
     96. A(C   5,C  21,H  22)          108.2429         0.323810   
     97. A(H  26,C  24,C  27)          109.1681         0.320669   
     98. A(H  25,C  24,C  27)          109.0637         0.320659   
     99. A(C  21,C  24,C  27)          112.5086         0.362321   
    100. A(H  25,C  24,H  26)          106.2167         0.285707   
    101. A(C  21,C  24,H  26)          109.9825         0.321084   
    102. A(C  21,C  24,H  25)          109.7001         0.321073   
    103. A(H  29,C  27,C  30)          109.2479         0.320570   
    104. A(H  28,C  27,C  30)          109.4094         0.320586   
    105. A(C  24,C  27,C  30)          113.6088         0.361968   
    106. A(H  28,C  27,H  29)          105.8122         0.285367   
    107. A(C  24,C  27,H  29)          109.1088         0.320456   
    108. A(C  24,C  27,H  28)          109.3593         0.320472   
    109. A(H  32,C  30,C  33)          109.2036         0.320574   
    110. A(H  31,C  30,C  33)          109.3295         0.320573   
    111. A(C  27,C  30,C  33)          113.6456         0.362155   
    112. A(H  31,C  30,H  32)          105.8053         0.285285   
    113. A(C  27,C  30,H  32)          109.1932         0.320530   
    114. A(C  27,C  30,H  31)          109.3664         0.320529   
    115. A(C  30,C  33,H  35)          109.3523         0.320534   
    116. A(C  30,C  33,H  34)          109.1884         0.320515   
    117. A(H  35,C  33,C  36)          109.2472         0.320442   
    118. A(H  34,C  33,C  36)          109.1677         0.320422   
    119. A(C  30,C  33,C  36)          113.7785         0.362097   
    120. A(H  34,C  33,H  35)          105.8000         0.285202   
    121. A(H  38,C  36,C  39)          109.5142         0.321014   
    122. A(H  37,C  36,C  39)          109.5197         0.321019   
    123. A(C  33,C  36,C  39)          113.3073         0.362471   
    124. A(H  37,C  36,H  38)          105.8351         0.285498   
    125. A(C  33,C  36,H  38)          109.2486         0.320604   
    126. A(C  33,C  36,H  37)          109.1436         0.320609   
    127. A(H  40,C  39,H  41)          107.3284         0.286240   
    128. A(C  36,C  39,H  41)          111.2557         0.321453   
    129. A(C  36,C  39,H  40)          111.2750         0.321455   
    130. L(C   0,C  42,H  43, 2)       180.0664         0.398981   
    131. L(C   0,C  42,H  43, 1)       179.8567         0.398981   
    132. D(C   3,C   2,C   1,H  45)   -179.9624         0.021676   
    133. D(C   9,C   2,C   1,C   6)   -179.7671         0.021676   
    134. D(C   9,C   2,C   1,H  45)      0.0356         0.021676   
    135. D(C   3,C   2,C   1,C   6)      0.2350         0.021676   
    136. D(H   7,C   3,C   2,C   9)      0.0184         0.025905   
    137. D(C   4,C   3,C   2,C   1)     -0.0776         0.025905   
    138. D(C   4,C   3,C   2,C   9)    179.9245         0.025905   
    139. D(H   7,C   3,C   2,C   1)   -179.9838         0.025905   
    140. D(C   0,C   4,C   3,H   7)     -0.2194         0.023291   
    141. D(C   5,C   4,C   3,H   7)    179.7220         0.023291   
    142. D(C   0,C   4,C   3,C   2)    179.8723         0.023291   
    143. D(C   5,C   4,C   3,C   2)     -0.1862         0.023291   
    144. D(C   6,C   5,C   4,C   3)      0.2840         0.021669   
    145. D(C   6,C   5,C   4,C   0)   -179.7755         0.021669   
    146. D(C  21,C   5,C   4,C   0)      0.3303         0.021669   
    147. D(C  21,C   5,C   4,C   3)   -179.6102         0.021669   
    148. D(C   1,C   6,C   5,C  21)    179.7632         0.025908   
    149. D(H   8,C   6,C   5,C  21)     -0.1648         0.025908   
    150. D(C   5,C   6,C   1,H  45)   -179.9330         0.023274   
    151. D(C   5,C   6,C   1,C   2)     -0.1347         0.023274   
    152. D(H   8,C   6,C   5,C   4)    179.9443         0.025908   
    153. D(C   1,C   6,C   5,C   4)     -0.1277         0.025908   
    154. D(H   8,C   6,C   1,H  45)     -0.0034         0.023274   
    155. D(H   8,C   6,C   1,C   2)    179.7949         0.023274   
    156. D(C  12,C   9,C   2,C   3)     -3.0207         0.011443   
    157. D(C  12,C   9,C   2,C   1)    176.9815         0.011443   
    158. D(H  11,C   9,C   2,C   3)    120.7394         0.011443   
    159. D(H  10,C   9,C   2,C   3)   -126.6340         0.011443   
    160. D(H  10,C   9,C   2,C   1)     53.3682         0.011443   
    161. D(H  11,C   9,C   2,C   1)    -59.2584         0.011443   
    162. D(H  13,C  12,C   9,C   2)    -57.2514         0.011070   
    163. D(C  15,C  12,C   9,H  10)    -55.9625         0.011070   
    164. D(C  15,C  12,C   9,C   2)   -179.0184         0.011070   
    165. D(H  14,C  12,C   9,H  11)    -64.0204         0.011070   
    166. D(H  14,C  12,C   9,H  10)   -177.6974         0.011070   
    167. D(H  14,C  12,C   9,C   2)     59.2466         0.011070   
    168. D(H  13,C  12,C   9,H  11)    179.4815         0.011070   
    169. D(C  15,C  12,C   9,H  11)     57.7145         0.011070   
    170. D(H  13,C  12,C   9,H  10)     65.8045         0.011070   
    171. D(C  18,C  15,C  12,H  14)    -57.8856         0.010862   
    172. D(C  18,C  15,C  12,C   9)    179.8208         0.010862   
    173. D(H  17,C  15,C  12,H  14)    179.8028         0.010862   
    174. D(H  17,C  15,C  12,H  13)    -64.6182         0.010862   
    175. D(H  17,C  15,C  12,C   9)     57.5091         0.010862   
    176. D(H  16,C  15,C  12,H  14)     64.5133         0.010862   
    177. D(C  18,C  15,C  12,H  13)     57.6935         0.010862   
    178. D(H  16,C  15,C  12,H  13)   -179.9076         0.010862   
    179. D(H  16,C  15,C  12,C   9)    -57.7803         0.010862   
    180. D(H  44,C  18,C  15,H  17)    -57.7770         0.011093   
    181. D(H  44,C  18,C  15,H  16)     57.9598         0.011093   
    182. D(H  44,C  18,C  15,C  12)   -179.8749         0.011093   
    183. D(H  20,C  18,C  15,H  17)     62.3525         0.011093   
    184. D(H  20,C  18,C  15,H  16)    178.0893         0.011093   
    185. D(H  20,C  18,C  15,C  12)    -59.7454         0.011093   
    186. D(H  19,C  18,C  15,H  17)   -177.9382         0.011093   
    187. D(H  19,C  18,C  15,H  16)    -62.2014         0.011093   
    188. D(H  19,C  18,C  15,C  12)     59.9640         0.011093   
    189. D(C  24,C  21,C   5,C   4)    176.2008         0.011442   
    190. D(H  23,C  21,C   5,C   6)   -127.2178         0.011442   
    191. D(H  23,C  21,C   5,C   4)     52.6704         0.011442   
    192. D(H  22,C  21,C   5,C   6)    120.1959         0.011442   
    193. D(C  24,C  21,C   5,C   6)     -3.6874         0.011442   
    194. D(H  22,C  21,C   5,C   4)    -59.9159         0.011442   
    195. D(C  27,C  24,C  21,H  23)    -54.9781         0.011052   
    196. D(C  27,C  24,C  21,C   5)   -177.9369         0.011052   
    197. D(H  26,C  24,C  21,H  23)   -176.9070         0.011052   
    198. D(H  26,C  24,C  21,H  22)    -63.1926         0.011052   
    199. D(H  26,C  24,C  21,C   5)     60.1342         0.011052   
    200. D(H  25,C  24,C  21,H  23)     66.6164         0.011052   
    201. D(C  27,C  24,C  21,H  22)     58.7363         0.011052   
    202. D(H  25,C  24,C  21,H  22)   -179.6692         0.011052   
    203. D(H  25,C  24,C  21,C   5)    -56.3424         0.011052   
    204. D(C  30,C  27,C  24,H  26)    -58.5386         0.010890   
    205. D(C  30,C  27,C  24,H  25)     57.1159         0.010890   
    206. D(C  30,C  27,C  24,C  21)    179.0719         0.010890   
    207. D(H  29,C  27,C  24,H  26)    179.3090         0.010890   
    208. D(H  29,C  27,C  24,H  25)    -65.0365         0.010890   
    209. D(H  29,C  27,C  24,C  21)     56.9195         0.010890   
    210. D(H  28,C  27,C  24,H  26)     64.0072         0.010890   
    211. D(H  28,C  27,C  24,H  25)    179.6617         0.010890   
    212. D(H  28,C  27,C  24,C  21)    -58.3823         0.010890   
    213. D(C  33,C  30,C  27,H  29)    -56.8129         0.010934   
    214. D(C  33,C  30,C  27,H  28)     58.5936         0.010934   
    215. D(C  33,C  30,C  27,C  24)   -178.8882         0.010934   
    216. D(H  32,C  30,C  27,H  29)     65.3697         0.010934   
    217. D(H  32,C  30,C  27,H  28)   -179.2238         0.010934   
    218. D(H  32,C  30,C  27,C  24)    -56.7056         0.010934   
    219. D(H  31,C  30,C  27,H  29)   -179.2862         0.010934   
    220. D(H  31,C  30,C  27,H  28)    -63.8797         0.010934   
    221. D(H  31,C  30,C  27,C  24)     58.6385         0.010934   
    222. D(C  36,C  33,C  30,H  32)     57.1055         0.010952   
    223. D(C  36,C  33,C  30,H  31)    -58.2240         0.010952   
    224. D(C  36,C  33,C  30,C  27)    179.2823         0.010952   
    225. D(H  35,C  33,C  30,H  32)    179.5541         0.010952   
    226. D(H  35,C  33,C  30,H  31)     64.2246         0.010952   
    227. D(H  35,C  33,C  30,C  27)    -58.2690         0.010952   
    228. D(H  34,C  33,C  30,H  32)    -65.1186         0.010952   
    229. D(H  34,C  33,C  30,H  31)    179.5519         0.010952   
    230. D(H  34,C  33,C  30,C  27)     57.0583         0.010952   
    231. D(C  39,C  36,C  33,H  35)     58.1277         0.010915   
    232. D(C  39,C  36,C  33,C  30)   -179.3658         0.010915   
    233. D(H  38,C  36,C  33,H  35)    -64.2634         0.010915   
    234. D(H  38,C  36,C  33,H  34)   -179.5214         0.010915   
    235. D(H  38,C  36,C  33,C  30)     58.2431         0.010915   
    236. D(H  37,C  36,C  33,H  35)   -179.5508         0.010915   
    237. D(C  39,C  36,C  33,H  34)    -57.1303         0.010915   
    238. D(H  37,C  36,C  33,H  34)     65.1911         0.010915   
    239. D(H  37,C  36,C  33,C  30)    -57.0443         0.010915   
    240. D(H  41,C  39,C  36,H  38)   -177.8968         0.010375   
    241. D(H  41,C  39,C  36,H  37)    -62.2523         0.010375   
    242. D(H  41,C  39,C  36,C  33)     59.8598         0.010375   
    243. D(H  40,C  39,C  36,H  38)     62.4711         0.010375   
    244. D(H  40,C  39,C  36,H  37)    178.1156         0.010375   
    245. D(H  40,C  39,C  36,C  33)    -59.7723         0.010375   
    -----------------------------------------------------------------

Number of atoms                         .... 46
Number of degrees of freedom            .... 245

         *************************************************************
         *                GEOMETRY OPTIMIZATION CYCLE   1            *
         *************************************************************
---------------------------------
CARTESIAN COORDINATES (ANGSTROEM)
---------------------------------
  C      4.232815   -0.047975    0.003497
  C      0.000000    0.000000    0.000000
  C      0.682084   -1.243874   -0.005687
  C      2.077148   -1.209170   -0.004713
  C      2.800934   -0.000000    0.000000
  C      2.118803    1.243906   -0.000000
  C      0.723750    1.209313    0.001340
  H      2.645912   -2.138803   -0.009197
  H      0.155004    2.138945    0.002312
  C     -0.107444   -2.538837   -0.012423
  H     -0.821031   -2.501792   -0.855670
  H     -0.746653   -2.559544    0.889821
  C      0.696707   -3.839261   -0.090229
  H      1.332591   -3.832191   -0.994750
  H      1.386337   -3.909085    0.771198
  C     -0.198672   -5.084222   -0.114940
  H     -0.836257   -5.091321    0.788551
  H     -0.892176   -5.015676   -0.973577
  C      0.590347   -6.393280   -0.197057
  H      1.266769   -6.509154    0.667377
  H      1.211530   -6.429299   -1.108644
  C      2.908200    2.538981   -0.003849
  H      3.540280    2.561845    0.903332
  H      3.628430    2.498819   -0.841078
  C      2.103979    3.838832   -0.094133
  H      1.465157    3.819926   -0.996194
  H      1.417544    3.919065    0.768660
  C      3.000632    5.081773   -0.141403
  H      3.638075    5.108791    0.762615
  H      3.695735    4.994637   -0.997985
  C      2.221458    6.396821   -0.254724
  H      1.534761    6.492071    0.608031
  H      1.574746    6.360398   -1.152161
  C      3.117600    7.637782   -0.329199
  H      3.808877    7.536408   -1.187976
  H      3.759948    7.680975    0.571322
  C      2.341800    8.953483   -0.460126
  H      1.694554    8.905348   -1.355806
  H      1.656854    9.060265    0.401845
  C      3.247547   10.184443   -0.549115
  H      3.883695   10.279329    0.347996
  H      3.918833   10.124990   -1.423397
  C      5.447855   -0.099468    0.003891
  H      6.519451   -0.142197    0.005481
  H     -0.079670   -7.268143   -0.215340
  H     -1.072444    0.000000    0.000000

----------------------------
CARTESIAN COORDINATES (A.U.)
----------------------------
  NO LB      ZA    FRAG     MASS         X           Y           Z
   0 C     6.0000    0    12.011    7.998861   -0.090660    0.006608
   1 C     6.0000    0    12.011    0.000000    0.000000    0.000000
   2 C     6.0000    0    12.011    1.288953   -2.350581   -0.010746
   3 C     6.0000    0    12.011    3.925241   -2.285000   -0.008907
   4 C     6.0000    0    12.011    5.292998   -0.000000    0.000000
   5 C     6.0000    0    12.011    4.003957    2.350641   -0.000000
   6 C     6.0000    0    12.011    1.367689    2.285270    0.002532
   7 H     1.0000    0     1.008    5.000048   -4.041751   -0.017379
   8 H     1.0000    0     1.008    0.292915    4.042021    0.004370
   9 C     6.0000    0    12.011   -0.203041   -4.797706   -0.023475
  10 H     1.0000    0     1.008   -1.551524   -4.727702   -1.616982
  11 H     1.0000    0     1.008   -1.410970   -4.836838    1.681517
  12 C     6.0000    0    12.011    1.316585   -7.255151   -0.170509
  13 H     1.0000    0     1.008    2.518233   -7.241792   -1.879805
  14 H     1.0000    0     1.008    2.619797   -7.387101    1.457353
  15 C     6.0000    0    12.011   -0.375436   -9.607786   -0.217205
  16 H     1.0000    0     1.008   -1.580297   -9.621202    1.490146
  17 H     1.0000    0     1.008   -1.685968   -9.478254   -1.839795
  18 C     6.0000    0    12.011    1.115593  -12.081548   -0.372384
  19 H     1.0000    0     1.008    2.393846  -12.300519    1.261159
  20 H     1.0000    0     1.008    2.289460  -12.149614   -2.095034
  21 C     6.0000    0    12.011    5.495701    4.797979   -0.007273
  22 H     1.0000    0     1.008    6.690159    4.841186    1.707050
  23 H     1.0000    0     1.008    6.856739    4.722083   -1.589407
  24 C     6.0000    0    12.011    3.975944    7.254341   -0.177886
  25 H     1.0000    0     1.008    2.768745    7.218615   -1.882534
  26 H     1.0000    0     1.008    2.678769    7.405960    1.452557
  27 C     6.0000    0    12.011    5.670373    9.603160   -0.267213
  28 H     1.0000    0     1.008    6.874966    9.654216    1.441134
  29 H     1.0000    0     1.008    6.983928    9.438495   -1.885919
  30 C     6.0000    0    12.011    4.197948   12.088239   -0.481359
  31 H     1.0000    0     1.008    2.900279   12.268235    1.149012
  32 H     1.0000    0     1.008    2.975838   12.019409   -2.177268
  33 C     6.0000    0    12.011    5.891411   14.433316   -0.622097
  34 H     1.0000    0     1.008    7.197734   14.241747   -2.244949
  35 H     1.0000    0     1.008    7.105272   14.514939    1.079643
  36 C     6.0000    0    12.011    4.425361   16.919631   -0.869513
  37 H     1.0000    0     1.008    3.202242   16.828669   -2.562101
  38 H     1.0000    0     1.008    3.131000   17.121420    0.759377
  39 C     6.0000    0    12.011    6.136974   19.245809   -1.037677
  40 H     1.0000    0     1.008    7.339120   19.425117    0.657618
  41 H     1.0000    0     1.008    7.405521   19.133459   -2.689831
  42 C     6.0000    0    12.011   10.294955   -0.187968    0.007353
  43 H     1.0000    0     1.008   12.319977   -0.268714    0.010358
  44 H     1.0000    0     1.008   -0.150555  -13.734800   -0.406934
  45 H     1.0000    0     1.008   -2.026625    0.000000    0.000000

--------------------------------
INTERNAL COORDINATES (ANGSTROEM)
--------------------------------
 C      0   0   0     0.000000000000     0.00000000     0.00000000
 C      1   0   0     4.233088302293     0.00000000     0.00000000
 C      2   1   0     1.418623719026    60.61273946     0.00000000
 C      3   2   1     1.395495745436   117.31294488     0.00000000
 C      4   3   2     1.409247952056   122.32889295   359.92235697
 C      5   4   3     1.418662916705   120.35644226   359.81378834
 C      6   5   4     1.395482143264   117.31896002     0.28398301
 H      4   3   2     1.089830025838   120.03343469   180.01623454
 H      7   6   5     1.089811772557   120.03770597   179.94431496
 C      3   2   1     1.516684004883   119.89187028   179.97782413
 H     10   3   2     1.105280223159   108.11080084    53.36819715
 H     10   3   2     1.105920056601   108.25475929   300.74161037
 C     10   3   2     1.530952270967   116.87466368   176.98150851
 H     13  10   3     1.105693009340   109.76867847   302.74859942
 H     13  10   3     1.105677663083   109.97813535    59.24662390
 C     13  10   3     1.533701874616   112.56155160   180.98156906
 H     16  13  10     1.105830588193   109.18675327   302.21969641
 H     16  13  10     1.105849924169   109.16625132    57.50913673
 C     16  13  10     1.530662193255   113.21261732   179.82079500
 H     19  16  13     1.103729860885   111.32625981    59.96397420
 H     19  16  13     1.103701877123   111.24392251   300.25461563
 C      6   5   4     1.516701443676   119.89657382   180.38977465
 H     22   6   5     1.105904233535   108.24294512   300.08411105
 H     22   6   5     1.105123543680   108.06471810    52.67040613
 C     22   6   5     1.531187525797   116.84991468   176.20078879
 H     25  22   6     1.105515766432   109.70012565   303.65762142
 H     25  22   6     1.105460658752   109.98248734    60.13422146
 C     25  22   6     1.533337667335   112.50858325   182.06306205
 H     28  25  22     1.106486500808   109.35932218   301.61773982
 H     28  25  22     1.106568971519   109.10877379    56.91952888
 C     28  25  22     1.532743353567   113.60876022   179.07192050
 H     31  28  25     1.106784227916   109.36642775    58.63852280
 H     31  28  25     1.106777171420   109.19323680   303.29440068
 C     31  28  25     1.532515003362   113.64555824   181.11181427
 H     34  31  28     1.107084939737   109.18838317    57.05826644
 H     34  31  28     1.106984690048   109.35227369   301.73095964
 C     34  31  28     1.532996102593   113.77849636   179.28230416
 H     37  34  31     1.106113462257   109.14357066   302.95565152
 H     37  34  31     1.106141659418   109.24856484    58.24310691
 C     37  34  31     1.530868557627   113.30734895   180.63418250
 H     40  37  34     1.103855406857   111.27503964   300.22770868
 H     40  37  34     1.103870171220   111.25565211    59.85981709
 C      1   2   3     1.216131158651   178.22240437     0.63614093
 H     43   1   5     1.072448068698   179.84205220   191.41781577
 H     19  16  13     1.102108218146   111.49347347   180.12510344
 H      2   1   3     1.072443710000   179.34891021     4.45885516

---------------------------
INTERNAL COORDINATES (A.U.)
---------------------------
 C      0   0   0     0.000000000000     0.00000000     0.00000000
 C      1   0   0     7.999377592039     0.00000000     0.00000000
 C      2   1   0     2.680810316044    60.61273946     0.00000000
 C      3   2   1     2.637104779927   117.31294488     0.00000000
 C      4   3   2     2.663092684175   122.32889295   359.92235697
 C      5   4   3     2.680884388922   120.35644226   359.81378834
 C      6   5   4     2.637079075546   117.31896002     0.28398301
 H      4   3   2     2.059480281359   120.03343469   180.01623454
 H      7   6   5     2.059445787655   120.03770597   179.94431496
 C      3   2   1     2.866117400928   119.89187028   179.97782413
 H     10   3   2     2.088676923011   108.11080084    53.36819715
 H     10   3   2     2.089886032987   108.25475929   300.74161037
 C     10   3   2     2.893080516232   116.87466368   176.98150851
 H     13  10   3     2.089456975845   109.76867847   302.74859942
 H     13  10   3     2.089427975622   109.97813535    59.24662390
 C     13  10   3     2.898276514107   112.56155160   180.98156906
 H     16  13  10     2.089716962198   109.18675327   302.21969641
 H     16  13  10     2.089753501898   109.16625132    57.50913673
 C     16  13  10     2.892532348800   113.21261732   179.82079500
 H     19  16  13     2.085747162903   111.32625981    59.96397420
 H     19  16  13     2.085694281258   111.24392251   300.25461563
 C      6   5   4     2.866150355471   119.89657382   180.38977465
 H     22   6   5     2.089856131726   108.24294512   300.08411105
 H     22   6   5     2.088380841703   108.06471810    52.67040613
 C     22   6   5     2.893525083433   116.84991468   176.20078879
 H     25  22   6     2.089122035289   109.70012565   303.65762142
 H     25  22   6     2.089017896865   109.98248734    60.13422146
 C     25  22   6     2.897588262089   112.50858325   182.06306205
 H     28  25  22     2.090956457408   109.35932218   301.61773982
 H     28  25  22     2.091112304467   109.10877379    56.91952888
 C     28  25  22     2.896465171830   113.60876022   179.07192050
 H     31  28  25     2.091519080105   109.36642775    58.63852280
 H     31  28  25     2.091505745260   109.19323680   303.29440068
 C     31  28  25     2.896033652480   113.64555824   181.11181427
 H     34  31  28     2.092087343091   109.18838317    57.05826644
 H     34  31  28     2.091897898635   109.35227369   301.73095964
 C     34  31  28     2.896942798270   113.77849636   179.28230416
 H     37  34  31     2.090251516709   109.14357066   302.95565152
 H     37  34  31     2.090304801621   109.24856484    58.24310691
 C     37  34  31     2.892922320946   113.30734895   180.63418250
 H     40  37  34     2.085984410407   111.27503964   300.22770868
 H     40  37  34     2.086012311011   111.25565211    59.85981709
 C      1   2   3     2.298154832779   178.22240437     0.63614093
 H     43   1   5     2.026633142693   179.84205220   191.41781577
 H     19  16  13     2.082682702239   111.49347347   180.12510344
 H      2   1   3     2.026624905946   179.34891021     4.45885516

---------------------
BASIS SET INFORMATION
---------------------
There are 2 groups of distinct atoms

 Group   1 Type C   : 17s4p1d contracted to 3s2p1d pattern {881/31/1}
 Group   2 Type H   : 4s1p contracted to 2s1p pattern {31/1}

Atom   0C    basis set group =>   1
Atom   1C    basis set group =>   1
Atom   2C    basis set group =>   1
Atom   3C    basis set group =>   1
Atom   4C    basis set group =>   1
Atom   5C    basis set group =>   1
Atom   6C    basis set group =>   1
Atom   7H    basis set group =>   2
Atom   8H    basis set group =>   2
Atom   9C    basis set group =>   1
Atom  10H    basis set group =>   2
Atom  11H    basis set group =>   2
Atom  12C    basis set group =>   1
Atom  13H    basis set group =>   2
Atom  14H    basis set group =>   2
Atom  15C    basis set group =>   1
Atom  16H    basis set group =>   2
Atom  17H    basis set group =>   2
Atom  18C    basis set group =>   1
Atom  19H    basis set group =>   2
Atom  20H    basis set group =>   2
Atom  21C    basis set group =>   1
Atom  22H    basis set group =>   2
Atom  23H    basis set group =>   2
Atom  24C    basis set group =>   1
Atom  25H    basis set group =>   2
Atom  26H    basis set group =>   2
Atom  27C    basis set group =>   1
Atom  28H    basis set group =>   2
Atom  29H    basis set group =>   2
Atom  30C    basis set group =>   1
Atom  31H    basis set group =>   2
Atom  32H    basis set group =>   2
Atom  33C    basis set group =>   1
Atom  34H    basis set group =>   2
Atom  35H    basis set group =>   2
Atom  36C    basis set group =>   1
Atom  37H    basis set group =>   2
Atom  38H    basis set group =>   2
Atom  39C    basis set group =>   1
Atom  40H    basis set group =>   2
Atom  41H    basis set group =>   2
Atom  42C    basis set group =>   1
Atom  43H    basis set group =>   2
Atom  44H    basis set group =>   2
Atom  45H    basis set group =>   2
---------------------------------
AUXILIARY/J BASIS SET INFORMATION
---------------------------------
There are 2 groups of distinct atoms

 Group   1 Type C   : 12s5p4d2f1g contracted to 6s4p3d1f1g pattern {711111/2111/211/2/1}
 Group   2 Type H   : 5s2p1d contracted to 3s1p1d pattern {311/2/1}

Atom   0C    basis set group =>   1
Atom   1C    basis set group =>   1
Atom   2C    basis set group =>   1
Atom   3C    basis set group =>   1
Atom   4C    basis set group =>   1
Atom   5C    basis set group =>   1
Atom   6C    basis set group =>   1
Atom   7H    basis set group =>   2
Atom   8H    basis set group =>   2
Atom   9C    basis set group =>   1
Atom  10H    basis set group =>   2
Atom  11H    basis set group =>   2
Atom  12C    basis set group =>   1
Atom  13H    basis set group =>   2
Atom  14H    basis set group =>   2
Atom  15C    basis set group =>   1
Atom  16H    basis set group =>   2
Atom  17H    basis set group =>   2
Atom  18C    basis set group =>   1
Atom  19H    basis set group =>   2
Atom  20H    basis set group =>   2
Atom  21C    basis set group =>   1
Atom  22H    basis set group =>   2
Atom  23H    basis set group =>   2
Atom  24C    basis set group =>   1
Atom  25H    basis set group =>   2
Atom  26H    basis set group =>   2
Atom  27C    basis set group =>   1
Atom  28H    basis set group =>   2
Atom  29H    basis set group =>   2
Atom  30C    basis set group =>   1
Atom  31H    basis set group =>   2
Atom  32H    basis set group =>   2
Atom  33C    basis set group =>   1
Atom  34H    basis set group =>   2
Atom  35H    basis set group =>   2
Atom  36C    basis set group =>   1
Atom  37H    basis set group =>   2
Atom  38H    basis set group =>   2
Atom  39C    basis set group =>   1
Atom  40H    basis set group =>   2
Atom  41H    basis set group =>   2
Atom  42C    basis set group =>   1
Atom  43H    basis set group =>   2
Atom  44H    basis set group =>   2
Atom  45H    basis set group =>   2


           ************************************************************
           *        Program running with 16 parallel MPI-processes    *
           *              working on a common directory               *
           ************************************************************
------------------------------------------------------------------------------
                           ORCA GTO INTEGRAL CALCULATION
                           -- RI-GTO INTEGRALS CHOSEN --
------------------------------------------------------------------------------
------------------------------------------------------------------------------
                   ___                                                        
                  /   \      - P O W E R E D   B Y -                         
                 /     \                                                     
                 |  |  |   _    _      __       _____    __    __             
                 |  |  |  | |  | |    /  \     |  _  \  |  |  /  |          
                  \  \/   | |  | |   /    \    | | | |  |  | /  /          
                 / \  \   | |__| |  /  /\  \   | |_| |  |  |/  /          
                |  |  |   |  __  | /  /__\  \  |    /   |      \           
                |  |  |   | |  | | |   __   |  |    \   |  |\   \          
                \     /   | |  | | |  |  |  |  | |\  \  |  | \   \       
                 \___/    |_|  |_| |__|  |__|  |_| \__\ |__|  \__/        
                                                                              
                      - O R C A' S   B I G   F R I E N D -                    
                                      &                                       
                       - I N T E G R A L  F E E D E R -                       
                                                                              
 v1 FN, 2020, v2 2021                                                         
------------------------------------------------------------------------------


Reading SHARK input file opt.SHARKINP.tmp ... ok
----------------------
SHARK INTEGRAL PACKAGE
----------------------

Number of atoms                             ...     46
Number of basis functions                   ...    515
Number of shells                            ...    309
Maximum angular momentum                    ...      2
Integral batch strategy                     ... SHARK/LIBINT Hybrid
RI-J (if used) integral strategy            ... SPLIT-RIJ (Revised 2003 algorithm where possible)
Printlevel                                  ...      1
Contraction scheme used                     ... PARTIAL GENERAL contraction
Coulomb Range Separation                    ... NOT USED
Exchange Range Separation                   ... NOT USED
Finite Nucleus Model                        ... NOT USED
Auxiliary Coulomb fitting basis             ... AVAILABLE
   # of basis functions in Aux-J            ...   1228
   # of shells in Aux-J                     ...    420
   Maximum angular momentum in Aux-J        ...      4
Auxiliary J/K fitting basis                 ... NOT available
Auxiliary Correlation fitting basis         ... NOT available
Auxiliary 'external' fitting basis          ... NOT available
Integral threshold                          ...     2.500000e-11
Primitive cut-off                           ...     2.500000e-12
Primitive pair pre-selection threshold      ...     2.500000e-12

Calculating pre-screening integrals         ... done (  0.0 sec) Dimension = 309
Calculating pre-screening integrals (ORCA)  ... done (  0.1 sec) Dimension = 195
Organizing shell pair data                  ... done (  0.1 sec)
Shell pair information
Total number of shell pairs                 ...     47895
Shell pairs after pre-screening             ...     20903
Total number of primitive shell pairs       ...     80739
Primitive shell pairs kept                  ...     29611
          la=0 lb=0:   9422 shell pairs
          la=1 lb=0:   7290 shell pairs
          la=1 lb=1:   1303 shell pairs
          la=2 lb=0:   2045 shell pairs
          la=2 lb=1:    730 shell pairs
          la=2 lb=2:    113 shell pairs

Calculating one electron integrals          ... done (  0.0 sec)
Calculating RI/J V-Matrix + Cholesky decomp.... done (  0.1 sec)
Calculating Nuclear repulsion               ... done (  0.0 sec) ENN=   1250.418498846294 Eh

SHARK setup successfully completed in   0.8 seconds

Maximum memory used throughout the entire GTOINT-calculation: 30.7 MB


           ************************************************************
           *        Program running with 16 parallel MPI-processes    *
           *              working on a common directory               *
           ************************************************************
-------------------------------------------------------------------------------
                                 ORCA SCF
-------------------------------------------------------------------------------

------------
SCF SETTINGS
------------
Hamiltonian:
 Density Functional     Method          .... DFT(GTOs)
 Exchange Functional    Exchange        .... B88
   X-Alpha parameter    XAlpha          ....  0.666667
   Becke's b parameter  XBeta           ....  0.004200
 Correlation Functional Correlation     .... LYP
 LDA part of GGA corr.  LDAOpt          .... VWN-5
 Gradients option       PostSCFGGA      .... off
 Hybrid DFT is turned on
   Fraction HF Exchange ScalHFX         ....  0.200000
   Scaling of DF-GGA-X  ScalDFX         ....  0.720000
   Scaling of DF-GGA-C  ScalDFC         ....  0.810000
   Scaling of DF-LDA-C  ScalLDAC        ....  1.000000
   Perturbative correction              ....  0.000000
   Density functional embedding theory  .... OFF
   NL short-range parameter             ....  4.800000
 RI-approximation to the Coulomb term is turned on
   Number of AuxJ basis functions       .... 1228
   RIJ-COSX (HFX calculated with COS-X)).... on


General Settings:
 Integral files         IntName         .... opt
 Hartree-Fock type      HFTyp           .... UHF
 Total Charge           Charge          ....    0
 Multiplicity           Mult            ....    2
 Number of Electrons    NEL             ....  141
 Basis Dimension        Dim             ....  401
 Nuclear Repulsion      ENuc            ....   1250.4184988463 Eh

Convergence Acceleration:
 DIIS                   CNVDIIS         .... on
   Start iteration      DIISMaxIt       ....    12
   Startup error        DIISStart       ....  0.200000
   # of expansion vecs  DIISMaxEq       ....     5
   Bias factor          DIISBfac        ....   1.050
   Max. coefficient     DIISMaxC        ....  10.000
 Trust-Rad. Augm. Hess. CNVTRAH         .... auto
   Auto Start mean grad. ratio tolernc. ....  1.125000
   Auto Start start iteration           ....    20
   Auto Start num. interpolation iter.  ....    10
   Max. Number of Micro iterations      ....    16
   Max. Number of Macro iterations      .... Maxiter - #DIIS iter
   Number of Davidson start vectors     ....     2
   Converg. threshold I  (grad. norm)   ....   1.000e-05
   Converg. threshold II (energy diff.) ....   1.000e-08
   Grad. Scal. Fac. for Micro threshold ....   0.100
   Minimum threshold for Micro iter.    ....   0.010
   NR start threshold (gradient norm)   ....   0.001
   Initial trust radius                 ....   0.400
   Minimum AH scaling param. (alpha)    ....   1.000
   Maximum AH scaling param. (alpha)    .... 1000.000
   Orbital update algorithm             .... Taylor
   White noise on init. David. guess    .... on
   Maximum white noise                  ....   0.010
   Quad. conv. algorithm                .... NR
 SOSCF                  CNVSOSCF        .... off
 Level Shifting         CNVShift        .... on
   Level shift para.    LevelShift      ....    0.2500
   Turn off err/grad.   ShiftErr        ....    0.0010
 Zerner damping         CNVZerner       .... off
 Static damping         CNVDamp         .... on
   Fraction old density DampFac         ....    0.7000
   Max. Damping (<1)    DampMax         ....    0.9800
   Min. Damping (>=0)   DampMin         ....    0.0000
   Turn off err/grad.   DampErr         ....    0.1000
 Fernandez-Rico         CNVRico         .... off

SCF Procedure:
 Maximum # iterations   MaxIter         ....   125
 SCF integral mode      SCFMode         .... Direct
   Integral package                     .... SHARK and LIBINT hybrid scheme
 Reset frequency        DirectResetFreq ....    20
 Integral Threshold     Thresh          ....  2.500e-11 Eh
 Primitive CutOff       TCut            ....  2.500e-12 Eh

Convergence Tolerance:
 Convergence Check Mode ConvCheckMode   .... Total+1el-Energy
 Convergence forced     ConvForced      .... 0
 Energy Change          TolE            ....  1.000e-08 Eh
 1-El. energy change                    ....  1.000e-05 Eh
 DIIS Error             TolErr          ....  5.000e-07


Diagonalization of the overlap matrix:
Smallest eigenvalue                        ... 1.531e-04
Time for diagonalization                   ...    0.030 sec
Threshold for overlap eigenvalues          ... 1.000e-08
Number of eigenvalues below threshold      ... 0
Time for construction of square roots      ...    0.036 sec
Total time needed                          ...    0.067 sec

Time for model grid setup =    0.247 sec

------------------------------
INITIAL GUESS: MODEL POTENTIAL
------------------------------
Loading Hartree-Fock densities                     ... done
Calculating cut-offs                               ... done
Initializing the effective Hamiltonian             ... done
Setting up the integral package (SHARK)            ... done
Starting the Coulomb interaction                   ... done (   0.3 sec)
Reading the grid                                   ... done
Mapping shells                                     ... done
Starting the XC term evaluation                    ... done (   0.1 sec)
  promolecular density results
     # of electrons  =    140.998812588
     EX              =   -105.594761829
     EC              =     -4.582818139
     EX+EC           =   -110.177579968
Transforming the Hamiltonian                       ... done (   0.0 sec)
Diagonalizing the Hamiltonian                      ... done (   0.0 sec)
Back transforming the eigenvectors                 ... done (   0.0 sec)
Now organizing SCF variables                       ... done
                      ------------------
                      INITIAL GUESS DONE (   0.9 sec)
                      ------------------
-------------------
DFT GRID GENERATION
-------------------

General Integration Accuracy     IntAcc      ... 4.388
Radial Grid Type                 RadialGrid  ... OptM3 with GC (2021)
Angular Grid (max. ang.)         AngularGrid ... 4 (Lebedev-302)
Angular grid pruning method      GridPruning ... 4 (adaptive)
Weight generation scheme         WeightScheme... Becke
Basis function cutoff            BFCut       ... 1.0000e-11
Integration weight cutoff        WCut        ... 1.0000e-14
Angular grids for H and He will be reduced by one unit
Partially contracted basis set               ... off
Rotationally invariant grid construction     ... off

Total number of grid points                  ...   199593
Total number of batches                      ...     3145
Average number of points per batch           ...       63
Average number of grid points per atom       ...     4339
Time for grid setup =    1.107 sec

--------------------
COSX GRID GENERATION
--------------------

GRIDX 1
-------
General Integration Accuracy     IntAcc      ... 3.816
Radial Grid Type                 RadialGrid  ... OptM3 with GC (2021)
Angular Grid (max. ang.)         AngularGrid ... 1 (Lebedev-50)
Angular grid pruning method      GridPruning ... 4 (adaptive)
Weight generation scheme         WeightScheme... Becke
Basis function cutoff            BFCut       ... 1.0000e-11
Integration weight cutoff        WCut        ... 1.0000e-14
Angular grids for H and He will be reduced by one unit
Partially contracted basis set               ... on
Rotationally invariant grid construction     ... off

Total number of grid points                  ...    25458
Total number of batches                      ...      428
Average number of points per batch           ...       59
Average number of grid points per atom       ...      553
UseSFitting                                  ... on

GRIDX 2
-------
General Integration Accuracy     IntAcc      ... 4.020
Radial Grid Type                 RadialGrid  ... OptM3 with GC (2021)
Angular Grid (max. ang.)         AngularGrid ... 2 (Lebedev-110)
Angular grid pruning method      GridPruning ... 4 (adaptive)
Weight generation scheme         WeightScheme... Becke
Basis function cutoff            BFCut       ... 1.0000e-11
Integration weight cutoff        WCut        ... 1.0000e-14
Angular grids for H and He will be reduced by one unit
Partially contracted basis set               ... on
Rotationally invariant grid construction     ... off

Total number of grid points                  ...    53489
Total number of batches                      ...      859
Average number of points per batch           ...       62
Average number of grid points per atom       ...     1163
UseSFitting                                  ... on

GRIDX 3
-------
General Integration Accuracy     IntAcc      ... 4.338
Radial Grid Type                 RadialGrid  ... OptM3 with GC (2021)
Angular Grid (max. ang.)         AngularGrid ... 3 (Lebedev-194)
Angular grid pruning method      GridPruning ... 4 (adaptive)
Weight generation scheme         WeightScheme... Becke
Basis function cutoff            BFCut       ... 1.0000e-11
Integration weight cutoff        WCut        ... 1.0000e-14
Angular grids for H and He will be reduced by one unit
Partially contracted basis set               ... on
Rotationally invariant grid construction     ... off

Total number of grid points                  ...   116653
Total number of batches                      ...     1846
Average number of points per batch           ...       63
Average number of grid points per atom       ...     2536
UseSFitting                                  ... on

Time for X-Grid setup             =    1.993 sec

 re-compute Schwartz prescreening matrix in partically contracted basis (1) ...done (   0.120 sec)
--------------
SCF ITERATIONS
--------------
ITER       Energy         Delta-E        Max-DP      RMS-DP      [F,P]     Damp
               ***  Starting incremental Fock matrix formation  ***
  0   -739.1783375638   0.000000000000 0.06512903  0.00079265  0.0868240 0.7000
  1   -739.4022318644  -0.223894300602 0.04803027  0.00058918  0.0457467 0.7000
                               ***Turning on DIIS***
  2   -739.5009478598  -0.098715995318 0.09396525  0.00110393  0.0179051 0.0000
  3   -739.6375364482  -0.136588588421 0.01885454  0.00032781  0.0248985 0.0000
  4   -739.6758434882  -0.038307040013 0.00899406  0.00011051  0.0065344 0.0000
  5   -739.6780077920  -0.002164303796 0.00159990  0.00003421  0.0016044 0.0000
  6   -739.6781931331  -0.000185341078 0.00127280  0.00002078  0.0007742 0.0000
               *** Restarting incremental Fock matrix formation ***
                                   *** Resetting DIIS ***
  7   -739.6785673533  -0.000374220189 0.00114746  0.00001081  0.0011764 0.0000
  8   -739.6785647044   0.000002648877 0.00039335  0.00000374  0.0014435 0.0000
  9   -739.6785741175  -0.000009413155 0.00024152  0.00000239  0.0004916 0.0000
 10   -739.6785754587  -0.000001341198 0.00006087  0.00000070  0.0000593 0.0000
 11   -739.6785754883  -0.000000029524 0.00003733  0.00000038  0.0000359 0.0000
 12   -739.6785755001  -0.000000011809 0.00001171  0.00000016  0.0000082 0.0000
 13   -739.6785754949   0.000000005214 0.00000610  0.00000008  0.0000075 0.0000
                            ***DIIS convergence achieved***

               *****************************************************
               *                     SUCCESS                       *
               *           SCF CONVERGED AFTER  14 CYCLES          *
               *****************************************************

Old exchange energy                            =    -21.606852522 Eh
New exchange energy                            =    -21.606884610 Eh
Exchange energy change after final integration =     -0.000032087 Eh
Total energy after final integration           =   -739.678607594 Eh
Final COS-X integration done in                =     5.974 sec

----------------
TOTAL SCF ENERGY
----------------

Total Energy       :         -739.67860759 Eh          -20127.67818 eV

Components:
Nuclear Repulsion  :         1250.41849885 Eh           34025.61718 eV
Electronic Energy  :        -1990.09710644 Eh          -54153.29537 eV
One Electron Energy:        -3478.41899535 Eh          -94652.59291 eV
Two Electron Energy:         1488.32188891 Eh           40499.29754 eV
Max COSX asymmetry :            0.00000050 Eh               0.00001 eV

Virial components:
Potential Energy   :        -1473.92683487 Eh          -40107.58821 eV
Kinetic Energy     :          734.24822728 Eh           19979.91002 eV
Virial Ratio       :            2.00739584


DFT components:
N(Alpha)           :       71.000111017663 electrons
N(Beta)            :       70.000109866049 electrons
N(Total)           :      141.000220883712 electrons
E(X)               :      -85.616771173726 Eh       
E(C)               :       -5.412806102758 Eh       
E(XC)              :      -91.029577276485 Eh       
DFET-embed. en.    :        0.000000000000 Eh       

---------------
SCF CONVERGENCE
---------------

  Last Energy change         ...   -1.2050e-08  Tolerance :   1.0000e-08
  Last MAX-Density change    ...    0.0000e+00  Tolerance :   1.0000e-07
  Last RMS-Density change    ...    0.0000e+00  Tolerance :   5.0000e-09
  Last DIIS Error            ...    9.5155e-07  Tolerance :   5.0000e-07

             **** THE GBW FILE WAS UPDATED (opt.gbw) ****
             **** DENSITY opt.scfp WAS UPDATED ****
             **** ENERGY FILE WAS UPDATED (opt.en.tmp) ****
----------------------
UHF SPIN CONTAMINATION
----------------------

Warning: in a DFT calculation there is little theoretical justification to 
         calculate <S**2> as in Hartree-Fock theory. We will do it anyways
         but you should keep in mind that the values have only limited relevance

Expectation value of <S**2>     :     0.752840
Ideal value S*(S+1) for S=0.5   :     0.750000
Deviation                       :     0.002840

             **** THE GBW FILE WAS UPDATED (opt.gbw) ****
             **** DENSITY opt.scfp WAS UPDATED ****
----------------
ORBITAL ENERGIES
----------------
                 SPIN UP ORBITALS
  NO   OCC          E(Eh)            E(eV) 
   0   1.0000     -10.206088      -277.7218 
   1   1.0000     -10.196273      -277.4547 
   2   1.0000     -10.195850      -277.4432 
   3   1.0000     -10.193412      -277.3768 
   4   1.0000     -10.188144      -277.2335 
   5   1.0000     -10.187699      -277.2214 
   6   1.0000     -10.186562      -277.1905 
   7   1.0000     -10.186257      -277.1821 
   8   1.0000     -10.185626      -277.1650 
   9   1.0000     -10.184924      -277.1459 
  10   1.0000     -10.184447      -277.1329 
  11   1.0000     -10.184211      -277.1265 
  12   1.0000     -10.182560      -277.0816 
  13   1.0000     -10.182325      -277.0751 
  14   1.0000     -10.182260      -277.0734 
  15   1.0000     -10.182123      -277.0697 
  16   1.0000     -10.181586      -277.0550 
  17   1.0000     -10.180992      -277.0389 
  18   1.0000     -10.176140      -276.9069 
  19   1.0000      -0.863419       -23.4948 
  20   1.0000      -0.814800       -22.1718 
  21   1.0000      -0.805914       -21.9300 
  22   1.0000      -0.785946       -21.3867 
  23   1.0000      -0.776794       -21.1377 
  24   1.0000      -0.759346       -20.6629 
  25   1.0000      -0.732639       -19.9361 
  26   1.0000      -0.721800       -19.6412 
  27   1.0000      -0.704800       -19.1786 
  28   1.0000      -0.668458       -18.1897 
  29   1.0000      -0.638258       -17.3679 
  30   1.0000      -0.620228       -16.8773 
  31   1.0000      -0.609441       -16.5837 
  32   1.0000      -0.583957       -15.8903 
  33   1.0000      -0.577777       -15.7221 
  34   1.0000      -0.574323       -15.6281 
  35   1.0000      -0.559416       -15.2225 
  36   1.0000      -0.526456       -14.3256 
  37   1.0000      -0.494152       -13.4465 
  38   1.0000      -0.481441       -13.1007 
  39   1.0000      -0.470878       -12.8133 
  40   1.0000      -0.469819       -12.7844 
  41   1.0000      -0.460702       -12.5363 
  42   1.0000      -0.457655       -12.4534 
  43   1.0000      -0.427555       -11.6344 
  44   1.0000      -0.422986       -11.5100 
  45   1.0000      -0.422447       -11.4954 
  46   1.0000      -0.418151       -11.3785 
  47   1.0000      -0.417024       -11.3478 
  48   1.0000      -0.407870       -11.0987 
  49   1.0000      -0.403234       -10.9726 
  50   1.0000      -0.385573       -10.4920 
  51   1.0000      -0.379713       -10.3325 
  52   1.0000      -0.368477       -10.0268 
  53   1.0000      -0.364660        -9.9229 
  54   1.0000      -0.358776        -9.7628 
  55   1.0000      -0.352730        -9.5983 
  56   1.0000      -0.351632        -9.5684 
  57   1.0000      -0.338010        -9.1977 
  58   1.0000      -0.336530        -9.1575 
  59   1.0000      -0.330463        -8.9924 
  60   1.0000      -0.325765        -8.8645 
  61   1.0000      -0.324578        -8.8322 
  62   1.0000      -0.323496        -8.8028 
  63   1.0000      -0.322888        -8.7862 
  64   1.0000      -0.320234        -8.7140 
  65   1.0000      -0.316171        -8.6035 
  66   1.0000      -0.298321        -8.1177 
  67   1.0000      -0.271130        -7.3778 
  68   1.0000      -0.241607        -6.5745 
  69   1.0000      -0.229384        -6.2419 
  70   1.0000      -0.222459        -6.0534 
  71   0.0000      -0.032397        -0.8816 
  72   0.0000       0.002987         0.0813 
  73   0.0000       0.048674         1.3245 
  74   0.0000       0.060116         1.6358 
  75   0.0000       0.061629         1.6770 
  76   0.0000       0.073005         1.9866 
  77   0.0000       0.073744         2.0067 
  78   0.0000       0.076201         2.0735 
  79   0.0000       0.081658         2.2220 
  80   0.0000       0.082085         2.2336 
  81   0.0000       0.085870         2.3366 
  82   0.0000       0.093931         2.5560 
  83   0.0000       0.095651         2.6028 
  84   0.0000       0.096611         2.6289 
  85   0.0000       0.104020         2.8305 
  86   0.0000       0.112005         3.0478 
  87   0.0000       0.113250         3.0817 
  88   0.0000       0.128066         3.4849 
  89   0.0000       0.137515         3.7420 
  90   0.0000       0.146401         3.9838 
  91   0.0000       0.152921         4.1612 
  92   0.0000       0.154314         4.1991 
  93   0.0000       0.156856         4.2683 
  94   0.0000       0.158298         4.3075 
  95   0.0000       0.158549         4.3143 
  96   0.0000       0.160986         4.3807 
  97   0.0000       0.173658         4.7255 
  98   0.0000       0.175981         4.7887 
  99   0.0000       0.181886         4.9494 
 100   0.0000       0.184393         5.0176 
 101   0.0000       0.186884         5.0854 
 102   0.0000       0.196340         5.3427 
 103   0.0000       0.199718         5.4346 
 104   0.0000       0.210053         5.7158 
 105   0.0000       0.213054         5.7975 
 106   0.0000       0.218758         5.9527 
 107   0.0000       0.223225         6.0743 
 108   0.0000       0.231897         6.3102 
 109   0.0000       0.241910         6.5827 
 110   0.0000       0.251677         6.8485 
 111   0.0000       0.265864         7.2345 
 112   0.0000       0.274503         7.4696 
 113   0.0000       0.289741         7.8842 
 114   0.0000       0.294119         8.0034 
 115   0.0000       0.328263         8.9325 
 116   0.0000       0.336121         9.1463 
 117   0.0000       0.353918         9.6306 
 118   0.0000       0.359024         9.7695 
 119   0.0000       0.374492        10.1904 
 120   0.0000       0.398921        10.8552 
 121   0.0000       0.410726        11.1764 
 122   0.0000       0.411333        11.1929 
 123   0.0000       0.412823        11.2335 
 124   0.0000       0.413650        11.2560 
 125   0.0000       0.419239        11.4081 
 126   0.0000       0.424674        11.5560 
 127   0.0000       0.428112        11.6495 
 128   0.0000       0.440559        11.9882 
 129   0.0000       0.444646        12.0994 
 130   0.0000       0.454895        12.3783 
 131   0.0000       0.465985        12.6801 
 132   0.0000       0.478625        13.0240 
 133   0.0000       0.484680        13.1888 
 134   0.0000       0.487316        13.2605 
 135   0.0000       0.488546        13.2940 
 136   0.0000       0.493714        13.4346 
 137   0.0000       0.500091        13.6082 
 138   0.0000       0.503195        13.6926 
 139   0.0000       0.516717        14.0606 
 140   0.0000       0.524128        14.2622 
 141   0.0000       0.526273        14.3206 
 142   0.0000       0.532047        14.4777 
 143   0.0000       0.533903        14.5282 
 144   0.0000       0.545841        14.8531 
 145   0.0000       0.552675        15.0390 
 146   0.0000       0.561637        15.2829 
 147   0.0000       0.573771        15.6131 
 148   0.0000       0.575451        15.6588 
 149   0.0000       0.590458        16.0672 
 150   0.0000       0.600974        16.3533 
 151   0.0000       0.608955        16.5705 
 152   0.0000       0.616564        16.7775 
 153   0.0000       0.618267        16.8239 
 154   0.0000       0.625025        17.0078 
 155   0.0000       0.625742        17.0273 
 156   0.0000       0.631664        17.1884 
 157   0.0000       0.632638        17.2150 
 158   0.0000       0.635384        17.2897 
 159   0.0000       0.641438        17.4544 
 160   0.0000       0.642586        17.4856 
 161   0.0000       0.643934        17.5223 
 162   0.0000       0.648986        17.6598 
 163   0.0000       0.652725        17.7615 
 164   0.0000       0.656085        17.8530 
 165   0.0000       0.657139        17.8817 
 166   0.0000       0.660483        17.9726 
 167   0.0000       0.660774        17.9806 
 168   0.0000       0.665534        18.1101 
 169   0.0000       0.666555        18.1379 
 170   0.0000       0.669404        18.2154 
 171   0.0000       0.677746        18.4424 
 172   0.0000       0.681001        18.5310 
 173   0.0000       0.683924        18.6105 
 174   0.0000       0.688226        18.7276 
 175   0.0000       0.690767        18.7967 
 176   0.0000       0.693541        18.8722 
 177   0.0000       0.693953        18.8834 
 178   0.0000       0.703183        19.1346 
 179   0.0000       0.704271        19.1642 
 180   0.0000       0.705464        19.1967 
 181   0.0000       0.712867        19.3981 
 182   0.0000       0.714812        19.4510 
 183   0.0000       0.721685        19.6381 
 184   0.0000       0.725364        19.7382 
 185   0.0000       0.729042        19.8382 
 186   0.0000       0.734631        19.9903 
 187   0.0000       0.740737        20.1565 
 188   0.0000       0.744032        20.2461 
 189   0.0000       0.758606        20.6427 
 190   0.0000       0.771362        20.9898 
 191   0.0000       0.778459        21.1830 
 192   0.0000       0.803162        21.8551 
 193   0.0000       0.811920        22.0935 
 194   0.0000       0.815946        22.2030 
 195   0.0000       0.824997        22.4493 
 196   0.0000       0.839638        22.8477 
 197   0.0000       0.856801        23.3147 
 198   0.0000       0.863950        23.5093 
 199   0.0000       0.868446        23.6316 
 200   0.0000       0.890668        24.2363 
 201   0.0000       0.902055        24.5462 
 202   0.0000       0.904363        24.6090 
 203   0.0000       0.925309        25.1789 
 204   0.0000       0.943377        25.6706 
 205   0.0000       0.976406        26.5693 
 206   0.0000       0.994218        27.0540 
 207   0.0000       0.995887        27.0995 
 208   0.0000       1.001290        27.2465 
 209   0.0000       1.006071        27.3766 
 210   0.0000       1.030014        28.0281 
 211   0.0000       1.031490        28.0683 
 212   0.0000       1.037437        28.2301 
 213   0.0000       1.046559        28.4783 
 214   0.0000       1.048659        28.5355 
 215   0.0000       1.057506        28.7762 
 216   0.0000       1.070496        29.1297 
 217   0.0000       1.085463        29.5370 
 218   0.0000       1.088656        29.6238 
 219   0.0000       1.131377        30.7863 
 220   0.0000       1.152666        31.3656 
 221   0.0000       1.161799        31.6142 
 222   0.0000       1.185408        32.2566 
 223   0.0000       1.193540        32.4779 
 224   0.0000       1.201918        32.7059 
 225   0.0000       1.204319        32.7712 
 226   0.0000       1.205981        32.8164 
 227   0.0000       1.213220        33.0134 
 228   0.0000       1.215403        33.0728 
 229   0.0000       1.215885        33.0859 
 230   0.0000       1.218676        33.1619 
 231   0.0000       1.222763        33.2731 
 232   0.0000       1.228926        33.4408 
 233   0.0000       1.231661        33.5152 
 234   0.0000       1.243779        33.8450 
 235   0.0000       1.261690        34.3323 
 236   0.0000       1.287069        35.0229 
 237   0.0000       1.308166        35.5970 
 238   0.0000       1.320910        35.9438 
 239   0.0000       1.321449        35.9585 
 240   0.0000       1.332524        36.2598 
 241   0.0000       1.337040        36.3827 
 242   0.0000       1.344034        36.5730 
 243   0.0000       1.350460        36.7479 
 244   0.0000       1.360273        37.0149 
 245   0.0000       1.365963        37.1697 
 246   0.0000       1.410641        38.3855 
 247   0.0000       1.412137        38.4262 
 248   0.0000       1.423711        38.7411 
 249   0.0000       1.426060        38.8051 
 250   0.0000       1.442452        39.2511 
 251   0.0000       1.453416        39.5495 
 252   0.0000       1.459858        39.7248 
 253   0.0000       1.469799        39.9953 
 254   0.0000       1.472358        40.0649 
 255   0.0000       1.485277        40.4164 
 256   0.0000       1.499735        40.8099 
 257   0.0000       1.507635        41.0248 
 258   0.0000       1.517240        41.2862 
 259   0.0000       1.521600        41.4048 
 260   0.0000       1.525586        41.5133 
 261   0.0000       1.530746        41.6537 
 262   0.0000       1.548323        42.1320 
 263   0.0000       1.577983        42.9391 
 264   0.0000       1.586620        43.1741 
 265   0.0000       1.594989        43.4019 
 266   0.0000       1.597840        43.4794 
 267   0.0000       1.602098        43.5953 
 268   0.0000       1.618775        44.0491 
 269   0.0000       1.625438        44.2304 
 270   0.0000       1.627675        44.2913 
 271   0.0000       1.629722        44.3470 
 272   0.0000       1.632390        44.4196 
 273   0.0000       1.632574        44.4246 
 274   0.0000       1.635006        44.4908 
 275   0.0000       1.639499        44.6130 
 276   0.0000       1.649262        44.8787 
 277   0.0000       1.650612        44.9154 
 278   0.0000       1.655710        45.0542 
 279   0.0000       1.660720        45.1905 
 280   0.0000       1.664511        45.2936 
 281   0.0000       1.670323        45.4518 
 282   0.0000       1.675242        45.5857 
 283   0.0000       1.685216        45.8571 
 284   0.0000       1.691070        46.0163 
 285   0.0000       1.693764        46.0897 
 286   0.0000       1.698268        46.2122 
 287   0.0000       1.699656        46.2500 
 288   0.0000       1.704043        46.3694 
 289   0.0000       1.708787        46.4985 
 290   0.0000       1.711011        46.5590 
 291   0.0000       1.712951        46.6118 
 292   0.0000       1.716446        46.7069 
 293   0.0000       1.716936        46.7202 
 294   0.0000       1.720845        46.8266 
 295   0.0000       1.722419        46.8694 
 296   0.0000       1.725722        46.9593 
 297   0.0000       1.735311        47.2202 
 298   0.0000       1.749002        47.5928 
 299   0.0000       1.754413        47.7400 
 300   0.0000       1.762649        47.9641 
 301   0.0000       1.765951        48.0540 
 302   0.0000       1.772757        48.2392 
 303   0.0000       1.776368        48.3374 
 304   0.0000       1.781357        48.4732 
 305   0.0000       1.783382        48.5283 
 306   0.0000       1.792721        48.7824 
 307   0.0000       1.796752        48.8921 
 308   0.0000       1.798602        48.9425 
 309   0.0000       1.811551        49.2948 
 310   0.0000       1.814268        49.3687 
 311   0.0000       1.827723        49.7349 
 312   0.0000       1.839703        50.0609 
 313   0.0000       1.849718        50.3334 
 314   0.0000       1.860712        50.6326 
 315   0.0000       1.865850        50.7724 
 316   0.0000       1.869580        50.8739 
 317   0.0000       1.887815        51.3701 
 318   0.0000       1.893372        51.5213 
 319   0.0000       1.913195        52.0607 
 320   0.0000       1.916355        52.1467 
 321   0.0000       1.923492        52.3409 
 322   0.0000       1.947367        52.9905 
 323   0.0000       1.952625        53.1336 
 324   0.0000       1.960737        53.3544 
 325   0.0000       1.965637        53.4877 
 326   0.0000       1.971570        53.6491 
 327   0.0000       1.986227        54.0480 
 328   0.0000       1.992570        54.2206 
 329   0.0000       2.005719        54.5784 
 330   0.0000       2.016006        54.8583 
 331   0.0000       2.036382        55.4128 
 332   0.0000       2.039649        55.5017 
 333   0.0000       2.050268        55.7906 
 334   0.0000       2.059855        56.0515 
 335   0.0000       2.077177        56.5229 
 336   0.0000       2.090093        56.8743 
 337   0.0000       2.100408        57.1550 
 338   0.0000       2.104468        57.2655 
 339   0.0000       2.121451        57.7276 
 340   0.0000       2.148449        58.4623 
[...]
      pz      :     0.040339  p :     0.087208
      px      :     0.024559
      py      :     0.022310
 42 C s       :     2.908245  s :     2.908245
      pz      :     0.982281  p :     3.049408
      px      :     1.085364
      py      :     0.981764
      dz2     :     0.012575  d :     0.099643
      dxz     :     0.024755
      dyz     :     0.000072
      dx2y2   :     0.037609
      dxy     :     0.024632
 43 H s       :     0.884210  s :     0.884210
      pz      :     0.020172  p :     0.094425
      px      :     0.054575
      py      :     0.019678
 44 H s       :     0.896297  s :     0.896297
      pz      :     0.015521  p :     0.076394
      px      :     0.026824
      py      :     0.034048
 45 H s       :     0.896565  s :     0.896565
      pz      :     0.017783  p :     0.079593
      px      :     0.047211
      py      :     0.014599

SPIN
  0 C s       :     0.000000  s :     0.000000
      pz      :     0.000001  p :     0.000002
      px      :     0.000000
      py      :     0.000001
      dz2     :     0.000000  d :    -0.000000
      dxz     :    -0.000000
      dyz     :    -0.000000
      dx2y2   :     0.000000
      dxy     :     0.000000
  1 C s       :    -0.000000  s :    -0.000000
      pz      :     0.000001  p :     0.000001
      px      :     0.000000
      py      :    -0.000000
      dz2     :    -0.000000  d :    -0.000000
      dxz     :    -0.000000
      dyz     :    -0.000000
      dx2y2   :     0.000000
      dxy     :    -0.000000
  2 C s       :     0.000000  s :     0.000000
      pz      :    -0.000003  p :    -0.000004
      px      :    -0.000000
      py      :    -0.000000
      dz2     :     0.000000  d :     0.000000
      dxz     :     0.000000
      dyz     :     0.000000
      dx2y2   :     0.000000
      dxy     :     0.000000
  3 C s       :     0.000001  s :     0.000001
      pz      :     0.000001  p :     0.000005
      px      :     0.000001
      py      :     0.000003
      dz2     :     0.000000  d :     0.000001
      dxz     :    -0.000000
      dyz     :    -0.000000
      dx2y2   :     0.000001
      dxy     :     0.000000
  4 C s       :     0.000004  s :     0.000004
      pz      :    -0.000002  p :     0.000011
      px      :     0.000002
      py      :     0.000011
      dz2     :     0.000001  d :     0.000005
      dxz     :     0.000000
      dyz     :     0.000000
      dx2y2   :     0.000003
      dxy     :     0.000001
  5 C s       :     0.000018  s :     0.000018
      pz      :     0.000008  p :     0.000063
      px      :     0.000012
      py      :     0.000043
      dz2     :     0.000002  d :     0.000014
      dxz     :    -0.000000
      dyz     :     0.000000
      dx2y2   :     0.000010
      dxy     :     0.000002
  6 C s       :     0.000002  s :     0.000002
      pz      :    -0.000004  p :    -0.000003
      px      :    -0.000002
      py      :     0.000002
      dz2     :     0.000000  d :     0.000002
      dxz     :     0.000000
      dyz     :     0.000000
      dx2y2   :     0.000001
      dxy     :     0.000001
  7 H s       :     0.000002  s :     0.000002
      pz      :     0.000000  p :     0.000000
      px      :     0.000000
      py      :     0.000000
  8 H s       :     0.000001  s :     0.000001
      pz      :    -0.000000  p :     0.000001
      px      :    -0.000000
      py      :     0.000001
  9 C s       :     0.000000  s :     0.000000
      pz      :     0.000000  p :     0.000000
      px      :     0.000000
      py      :     0.000000
      dz2     :    -0.000000  d :    -0.000000
      dxz     :    -0.000000
      dyz     :    -0.000000
      dx2y2   :    -0.000000
      dxy     :    -0.000000
 10 H s       :    -0.000000  s :    -0.000000
      pz      :     0.000000  p :     0.000000
      px      :     0.000000
      py      :    -0.000000
 11 H s       :    -0.000000  s :    -0.000000
      pz      :     0.000000  p :     0.000000
      px      :     0.000000
      py      :    -0.000000
 12 C s       :     0.000000  s :     0.000000
      pz      :     0.000000  p :     0.000000
      px      :     0.000000
      py      :     0.000000
      dz2     :     0.000000  d :     0.000000
      dxz     :    -0.000000
      dyz     :     0.000000
      dx2y2   :     0.000000
      dxy     :     0.000000
 13 H s       :     0.000000  s :     0.000000
      pz      :     0.000000  p :     0.000000
      px      :     0.000000
      py      :     0.000000
 14 H s       :     0.000000  s :     0.000000
      pz      :     0.000000  p :     0.000000
      px      :     0.000000
      py      :     0.000000
 15 C s       :     0.000000  s :     0.000000
      pz      :    -0.000000  p :     0.000000
      px      :     0.000000
      py      :     0.000000
      dz2     :    -0.000000  d :    -0.000000
      dxz     :    -0.000000
      dyz     :    -0.000000
      dx2y2   :     0.000000
      dxy     :     0.000000
 16 H s       :    -0.000000  s :    -0.000000
      pz      :     0.000000  p :     0.000000
      px      :     0.000000
      py      :     0.000000
 17 H s       :    -0.000000  s :    -0.000000
      pz      :     0.000000  p :     0.000000
      px      :     0.000000
      py      :     0.000000
 18 C s       :    -0.000000  s :    -0.000000
      pz      :    -0.000000  p :    -0.000000
      px      :    -0.000000
      py      :    -0.000000
      dz2     :     0.000000  d :     0.000000
      dxz     :    -0.000000
      dyz     :    -0.000000
      dx2y2   :     0.000000
      dxy     :     0.000000
 19 H s       :     0.000000  s :     0.000000
      pz      :     0.000000  p :     0.000000
      px      :     0.000000
      py      :    -0.000000
 20 H s       :     0.000000  s :     0.000000
      pz      :     0.000000  p :     0.000000
      px      :     0.000000
      py      :    -0.000000
 21 C s       :     0.000038  s :     0.000038
      pz      :     0.000007  p :     0.000160
      px      :     0.000048
      py      :     0.000105
      dz2     :     0.000007  d :     0.000048
      dxz     :    -0.000001
      dyz     :     0.000001
      dx2y2   :     0.000034
      dxy     :     0.000008
 22 H s       :    -0.000004  s :    -0.000004
      pz      :     0.000000  p :     0.000004
      px      :     0.000001
      py      :     0.000003
 23 H s       :    -0.000004  s :    -0.000004
      pz      :     0.000000  p :     0.000004
      px      :     0.000001
      py      :     0.000003
 24 C s       :     0.000243  s :     0.000243
      pz      :     0.000042  p :     0.000882
      px      :     0.000251
      py      :     0.000589
      dz2     :     0.000016  d :     0.000069
      dxz     :    -0.000009
      dyz     :     0.000001
      dx2y2   :     0.000047
      dxy     :     0.000014
 25 H s       :    -0.000022  s :    -0.000022
      pz      :     0.000002  p :     0.000023
      px      :     0.000009
      py      :     0.000011
 26 H s       :    -0.000022  s :    -0.000022
      pz      :     0.000002  p :     0.000023
      px      :     0.000009
      py      :     0.000011
 27 C s       :     0.000213  s :     0.000213
      pz      :     0.000022  p :     0.000715
      px      :     0.000003
      py      :     0.000690
      dz2     :     0.000077  d :     0.000568
      dxz     :    -0.000001
      dyz     :     0.000005
      dx2y2   :     0.000254
      dxy     :     0.000233
 28 H s       :     0.000041  s :     0.000041
      pz      :     0.000001  p :    -0.000011
      px      :    -0.000001
      py      :    -0.000012
 29 H s       :     0.000042  s :     0.000042
      pz      :     0.000001  p :    -0.000011
      px      :    -0.000001
      py      :    -0.000012
 30 C s       :     0.000538  s :     0.000538
      pz      :     0.000218  p :     0.005944
      px      :     0.002231
      py      :     0.003496
      dz2     :     0.000076  d :     0.000760
      dxz     :    -0.000031
      dyz     :     0.000021
      dx2y2   :     0.000758
      dxy     :    -0.000065
 31 H s       :    -0.000174  s :    -0.000174
      pz      :     0.000036  p :     0.000258
      px      :     0.000013
      py      :     0.000210
 32 H s       :    -0.000175  s :    -0.000175
      pz      :     0.000044  p :     0.000258
      px      :     0.000014
      py      :     0.000201
 33 C s       :     0.013035  s :     0.013035
      pz      :     0.001969  p :     0.037368
      px      :     0.006534
      py      :     0.028866
      dz2     :     0.000207  d :     0.000044
      dxz     :    -0.000365
      dyz     :    -0.000037
      dx2y2   :    -0.000431
      dxy     :     0.000670
 34 H s       :    -0.000140  s :    -0.000140
      pz      :     0.000193  p :     0.001243
      px      :     0.000608
      py      :     0.000441
 35 H s       :    -0.000142  s :    -0.000142
      pz      :     0.000241  p :     0.001243
      px      :     0.000591
      py      :     0.000411
 36 C s       :    -0.004822  s :    -0.004822
      pz      :    -0.003277  p :    -0.021829
      px      :    -0.008270
      py      :    -0.010282
      dz2     :     0.002854  d :     0.037143
      dxz     :     0.000793
      dyz     :     0.000298
      dx2y2   :     0.023575
      dxy     :     0.009624
 37 H s       :     0.010983  s :     0.010983
      pz      :    -0.000234  p :    -0.000765
      px      :     0.000062
      py      :    -0.000593
 38 H s       :     0.010900  s :     0.010900
      pz      :    -0.000239  p :    -0.000764
      px      :     0.000055
      py      :    -0.000581
 39 C s       :     0.030193  s :     0.030193
      pz      :     0.017614  p :     0.872911
      px      :     0.525812
      py      :     0.329485
      dz2     :    -0.001825  d :    -0.004952
      dxz     :    -0.000882
      dyz     :    -0.000657
      dx2y2   :     0.000408
      dxy     :    -0.001997
 40 H s       :    -0.022233  s :    -0.022233
      pz      :     0.002472  p :     0.026145
      px      :     0.013968
      py      :     0.009704
 41 H s       :    -0.022232  s :    -0.022232
      pz      :     0.002545  p :     0.026141
      px      :     0.014006
      py      :     0.009591
 42 C s       :    -0.000000  s :    -0.000000
      pz      :    -0.000002  p :    -0.000003
      px      :    -0.000000
      py      :    -0.000001
      dz2     :     0.000000  d :     0.000000
      dxz     :     0.000000
      dyz     :    -0.000000
      dx2y2   :     0.000000
      dxy     :     0.000000
 43 H s       :     0.000000  s :     0.000000
      pz      :    -0.000000  p :    -0.000000
      px      :    -0.000000
      py      :    -0.000000
 44 H s       :     0.000000  s :     0.000000
      pz      :     0.000000  p :     0.000000
      px      :     0.000000
      py      :    -0.000000
 45 H s       :    -0.000000  s :    -0.000000
      pz      :     0.000000  p :     0.000000
      px      :    -0.000000
      py      :    -0.000000


                      *****************************
                      * MAYER POPULATION ANALYSIS *
                      *****************************

  NA   - Mulliken gross atomic population
  ZA   - Total nuclear charge
  QA   - Mulliken gross atomic charge
  VA   - Mayer's total valence
  BVA  - Mayer's bonded valence
  FA   - Mayer's free valence

  ATOM       NA         ZA         QA         VA         BVA        FA
  0 C      5.3792     6.0000     0.6208     2.9131     2.9131     0.0000
  1 C      5.9708     6.0000     0.0292     3.9582     3.9582     0.0000
  2 C      6.0260     6.0000    -0.0260     4.0859     4.0859     0.0000
  3 C      5.9697     6.0000     0.0303     3.8978     3.8978     0.0000
  4 C      6.0603     6.0000    -0.0603     3.8494     3.8494     0.0000
  5 C      6.0733     6.0000    -0.0733     4.1619     4.1619     0.0000
  6 C      5.9764     6.0000     0.0236     3.9747     3.9747     0.0000
  7 H      1.0554     1.0000    -0.0554     1.0010     1.0010     0.0000
  8 H      1.0444     1.0000    -0.0444     0.9843     0.9843     0.0000
  9 C      5.9661     6.0000     0.0339     4.0148     4.0148     0.0000
 10 H      0.9759     1.0000     0.0241     0.9654     0.9654     0.0000
 11 H      0.9748     1.0000     0.0252     0.9649     0.9649     0.0000
 12 C      6.0390     6.0000    -0.0390     4.1180     4.1180     0.0000
 13 H      0.9837     1.0000     0.0163     0.9641     0.9641     0.0000
 14 H      0.9828     1.0000     0.0172     0.9635     0.9635     0.0000
 15 C      6.0248     6.0000    -0.0248     4.1160     4.1160     0.0000
 16 H      0.9952     1.0000     0.0048     0.9671     0.9671     0.0000
 17 H      0.9952     1.0000     0.0048     0.9672     0.9672    -0.0000
 18 C      5.9982     6.0000     0.0018     4.0186     4.0186     0.0000
 19 H      0.9828     1.0000     0.0172     0.9775     0.9775     0.0000
 20 H      0.9827     1.0000     0.0173     0.9774     0.9774    -0.0000
 21 C      5.9518     6.0000     0.0482     4.0164     4.0164     0.0000
 22 H      0.9695     1.0000     0.0305     0.9695     0.9695     0.0000
 23 H      0.9696     1.0000     0.0304     0.9696     0.9696     0.0000
 24 C      6.0334     6.0000    -0.0334     4.1144     4.1144     0.0000
 25 H      0.9862     1.0000     0.0138     0.9635     0.9635     0.0000
 26 H      0.9863     1.0000     0.0137     0.9636     0.9636     0.0000
 27 C      5.9862     6.0000     0.0138     4.0763     4.0763     0.0000
 28 H      0.9969     1.0000     0.0031     0.9697     0.9697     0.0000
 29 H      0.9969     1.0000     0.0031     0.9697     0.9697     0.0000
 30 C      6.0053     6.0000    -0.0053     4.0841     4.0840     0.0001
 31 H      0.9990     1.0000     0.0010     0.9698     0.9698     0.0000
 32 H      0.9990     1.0000     0.0010     0.9698     0.9698     0.0000
 33 C      5.9997     6.0000     0.0003     4.0592     4.0565     0.0027
 34 H      0.9966     1.0000     0.0034     0.9709     0.9709     0.0000
 35 H      0.9966     1.0000     0.0034     0.9709     0.9709     0.0000
 36 C      6.0008     6.0000    -0.0008     4.1003     4.0979     0.0025
 37 H      0.9899     1.0000     0.0101     0.9656     0.9654     0.0002
 38 H      0.9899     1.0000     0.0101     0.9656     0.9654     0.0002
 39 C      6.0681     6.0000    -0.0681     3.9788     3.1230     0.8558
 40 H      0.9754     1.0000     0.0246     0.9760     0.9737     0.0023
 41 H      0.9754     1.0000     0.0246     0.9760     0.9737     0.0023
 42 C      6.5953     6.0000    -0.5953     3.4052     3.4052     0.0000
 43 H      1.0319     1.0000    -0.0319     1.0298     1.0298     0.0000
 44 H      0.9876     1.0000     0.0124     0.9734     0.9734    -0.0000
 45 H      1.0563     1.0000    -0.0563     0.9793     0.9793     0.0000

  Mayer bond orders larger than 0.100000
B(  0-C ,  4-C ) :   0.9080 B(  0-C , 42-C ) :   2.1398 B(  1-C ,  2-C ) :   1.4217 
B(  1-C ,  6-C ) :   1.4310 B(  1-C , 45-H ) :   0.9332 B(  2-C ,  3-C ) :   1.4264 
B(  2-C ,  9-C ) :   1.0448 B(  3-C ,  4-C ) :   1.3924 B(  3-C ,  7-H ) :   0.9277 
B(  4-C ,  5-C ) :   1.4094 B(  5-C ,  6-C ) :   1.4414 B(  5-C , 21-C ) :   1.0888 
B(  6-C ,  8-H ) :   0.9184 B(  9-C , 10-H ) :   0.9145 B(  9-C , 11-H ) :   0.9138 
B(  9-C , 12-C ) :   1.1039 B( 12-C , 13-H ) :   0.9312 B( 12-C , 14-H ) :   0.9302 
B( 12-C , 15-C ) :   1.0751 B( 15-C , 16-H ) :   0.9414 B( 15-C , 17-H ) :   0.9413 
B( 15-C , 18-C ) :   1.1057 B( 18-C , 19-H ) :   0.9665 B( 18-C , 20-H ) :   0.9666 
B( 18-C , 44-H ) :   0.9621 B( 21-C , 22-H ) :   0.8985 B( 21-C , 23-H ) :   0.8987 
B( 21-C , 24-C ) :   1.0999 B( 24-C , 25-H ) :   0.9274 B( 24-C , 26-H ) :   0.9275 
B( 24-C , 27-C ) :   1.0780 B( 27-C , 28-H ) :   0.9340 B( 27-C , 29-H ) :   0.9340 
B( 27-C , 30-C ) :   1.0777 B( 30-C , 31-H ) :   0.9358 B( 30-C , 32-H ) :   0.9357 
B( 30-C , 33-C ) :   1.0780 B( 33-C , 34-H ) :   0.9401 B( 33-C , 35-H ) :   0.9401 
B( 33-C , 36-C ) :   1.0485 B( 36-C , 37-H ) :   0.9358 B( 36-C , 38-H ) :   0.9359 
B( 36-C , 39-C ) :   1.1364 B( 39-C , 40-H ) :   0.9649 B( 39-C , 41-H ) :   0.9648 
B( 42-C , 43-H ) :   1.1171 

-------
TIMINGS
-------

Total SCF time: 0 days 0 hours 0 min 49 sec 

Total time                  ....      49.396 sec
Sum of individual times     ....      46.227 sec  ( 93.6%)

Fock matrix formation       ....      41.277 sec  ( 83.6%)
  Split-RI-J                ....       3.231 sec  (  7.8% of F)
  Chain of spheres X        ....      25.472 sec  ( 61.7% of F)
  XC integration            ....       9.701 sec  ( 23.5% of F)
    Basis function eval.    ....       0.945 sec  (  9.7% of XC)
    Density eval.           ....       0.986 sec  ( 10.2% of XC)
    XC-Functional eval.     ....       0.234 sec  (  2.4% of XC)
    XC-Potential eval.      ....       0.532 sec  (  5.5% of XC)
Diagonalization             ....       0.824 sec  (  1.7%)
Density matrix formation    ....       0.086 sec  (  0.2%)
Population analysis         ....       0.303 sec  (  0.6%)
Initial guess               ....       0.108 sec  (  0.2%)
Orbital Transformation      ....       0.000 sec  (  0.0%)
Orbital Orthonormalization  ....       0.077 sec  (  0.2%)
DIIS solution               ....       0.635 sec  (  1.3%)
Grid generation             ....       2.993 sec  (  6.1%)

Maximum memory used throughout the entire SCF-calculation: 102.4 MB

-------------------------   --------------------
FINAL SINGLE POINT ENERGY      -739.689749685996
-------------------------   --------------------

                                *** OPTIMIZATION RUN DONE ***

                            ***************************************
                            *     ORCA property calculations      *
                            ***************************************

                                    ---------------------
                                    Active property flags
                                    ---------------------
   (+) Dipole Moment


------------------------------------------------------------------------------
                       ORCA ELECTRIC PROPERTIES CALCULATION
------------------------------------------------------------------------------

Dipole Moment Calculation                       ... on
Quadrupole Moment Calculation                   ... off
Polarizability Calculation                      ... off
GBWName                                         ... opt.gbw
Electron density                                ... opt.scfp
The origin for moment calculation is the CENTER OF MASS  = ( 3.770926,  2.681596 -0.265246)

-------------
DIPOLE MOMENT
-------------
                                X             Y             Z
Electronic contribution:      4.33874      -7.76063       0.42500
Nuclear contribution   :     -4.60861       7.61746      -0.42547
                        -----------------------------------------
Total Dipole Moment    :     -0.26987      -0.14316      -0.00046
                        -----------------------------------------
Magnitude (a.u.)       :      0.30549
Magnitude (Debye)      :      0.77650



--------------------
Rotational spectrum 
--------------------
 
Rotational constants in cm-1:     0.036145     0.002970     0.002760 
Rotational constants in MHz :  1083.589681    89.033188    82.745367 

 Dipole components along the rotational axes: 
x,y,z [a.u.] :    -0.189729    -0.239426     0.001932 
x,y,z [Debye]:    -0.482254    -0.608573     0.004911 

 

Timings for individual modules:

Sum of individual times         ...      717.625 sec (=  11.960 min)
GTO integral calculation        ...       25.946 sec (=   0.432 min)   3.6 %
SCF iterations                  ...      556.215 sec (=   9.270 min)  77.5 %
SCF Gradient evaluation         ...      133.567 sec (=   2.226 min)  18.6 %
Geometry relaxation             ...        1.898 sec (=   0.032 min)   0.3 %
                             ****ORCA TERMINATED NORMALLY****
TOTAL RUN TIME: 0 days 0 hours 12 minutes 26 seconds 462 msec
