
                                 *****************
                                 * O   R   C   A *
                                 *****************

                                            #,                                       
                                            ###                                      
                                            ####                                     
                                            #####                                    
                                            ######                                   
                                           ########,                                 
                                     ,,################,,,,,                         
                               ,,#################################,,                 
                          ,,##########################################,,             
                       ,#########################################, ''#####,          
                    ,#############################################,,   '####,        
                  ,##################################################,,,,####,       
                ,###########''''           ''''###############################       
              ,#####''   ,,,,##########,,,,          '''####'''          '####       
            ,##' ,,,,###########################,,,                        '##       
           ' ,,###''''                  '''############,,,                           
         ,,##''                                '''############,,,,        ,,,,,,###''
      ,#''                                            '''#######################'''  
     '                                                          ''''####''''         
             ,#######,   #######,   ,#######,      ##                                
            ,#'     '#,  ##    ##  ,#'     '#,    #''#        ######   ,####,        
            ##       ##  ##   ,#'  ##            #'  '#       #        #'  '#        
            ##       ##  #######   ##           ,######,      #####,   #    #        
            '#,     ,#'  ##    ##  '#,     ,#' ,#      #,         ##   #,  ,#        
             '#######'   ##     ##  '#######'  #'      '#     #####' # '####'        



                  #######################################################
                  #                        -***-                        #
                  #          Department of theory and spectroscopy      #
                  #    Directorship and core code : Frank Neese         #
                  #        Max Planck Institute fuer Kohlenforschung    #
                  #                Kaiser Wilhelm Platz 1               #
                  #                 D-45470 Muelheim/Ruhr               #
                  #                      Germany                        #
                  #                                                     #
                  #                  All rights reserved                #
                  #                        -***-                        #
                  #######################################################


                         Program Version 5.0.4 -  RELEASE  -


 With contributions from (in alphabetic order):
   Daniel Aravena         : Magnetic Suceptibility
   Michael Atanasov       : Ab Initio Ligand Field Theory (pilot matlab implementation)
   Alexander A. Auer      : GIAO ZORA, VPT2 properties, NMR spectrum
   Ute Becker             : Parallelization
   Giovanni Bistoni       : ED, misc. LED, open-shell LED, HFLD
   Martin Brehm           : Molecular dynamics
   Dmytro Bykov           : SCF Hessian
   Vijay G. Chilkuri      : MRCI spin determinant printing, contributions to CSF-ICE
   Dipayan Datta          : RHF DLPNO-CCSD density
   Achintya Kumar Dutta   : EOM-CC, STEOM-CC
   Dmitry Ganyushin       : Spin-Orbit,Spin-Spin,Magnetic field MRCI
   Miquel Garcia          : C-PCM and meta-GGA Hessian, CC/C-PCM, Gaussian charge scheme
   Yang Guo               : DLPNO-NEVPT2, F12-NEVPT2, CIM, IAO-localization
   Andreas Hansen         : Spin unrestricted coupled pair/coupled cluster methods
   Benjamin Helmich-Paris : MC-RPA, TRAH-SCF, COSX integrals
   Lee Huntington         : MR-EOM, pCC
   Robert Izsak           : Overlap fitted RIJCOSX, COSX-SCS-MP3, EOM
   Marcus Kettner         : VPT2
   Christian Kollmar      : KDIIS, OOCD, Brueckner-CCSD(T), CCSD density, CASPT2, CASPT2-K
   Simone Kossmann        : Meta GGA functionals, TD-DFT gradient, OOMP2, MP2 Hessian
   Martin Krupicka        : Initial AUTO-CI
   Lucas Lang             : DCDCAS
   Marvin Lechner         : AUTO-CI (C++ implementation), FIC-MRCC
   Dagmar Lenk            : GEPOL surface, SMD
   Dimitrios Liakos       : Extrapolation schemes; Compound Job, initial MDCI parallelization
   Dimitrios Manganas     : Further ROCIS development; embedding schemes
   Dimitrios Pantazis     : SARC Basis sets
   Anastasios Papadopoulos: AUTO-CI, single reference methods and gradients
   Taras Petrenko         : DFT Hessian,TD-DFT gradient, ASA, ECA, R-Raman, ABS, FL, XAS/XES, NRVS
   Peter Pinski           : DLPNO-MP2, DLPNO-MP2 Gradient
   Christoph Reimann      : Effective Core Potentials
   Marius Retegan         : Local ZFS, SOC
   Christoph Riplinger    : Optimizer, TS searches, QM/MM, DLPNO-CCSD(T), (RO)-DLPNO pert. Triples
   Tobias Risthaus        : Range-separated hybrids, TD-DFT gradient, RPA, STAB
   Michael Roemelt        : Original ROCIS implementation
   Masaaki Saitow         : Open-shell DLPNO-CCSD energy and density
   Barbara Sandhoefer     : DKH picture change effects
   Avijit Sen             : IP-ROCIS
   Kantharuban Sivalingam : CASSCF convergence, NEVPT2, FIC-MRCI
   Bernardo de Souza      : ESD, SOC TD-DFT
   Georgi Stoychev        : AutoAux, RI-MP2 NMR, DLPNO-MP2 response
   Willem Van den Heuvel  : Paramagnetic NMR
   Boris Wezisla          : Elementary symmetry handling
   Frank Wennmohs         : Technical directorship


 We gratefully acknowledge several colleagues who have allowed us to
 interface, adapt or use parts of their codes:
   Stefan Grimme, W. Hujo, H. Kruse, P. Pracht,  : VdW corrections, initial TS optimization,
                  C. Bannwarth, S. Ehlert          DFT functionals, gCP, sTDA/sTD-DF
   Ed Valeev, F. Pavosevic, A. Kumar             : LibInt (2-el integral package), F12 methods
   Garnet Chan, S. Sharma, J. Yang, R. Olivares  : DMRG
   Ulf Ekstrom                                   : XCFun DFT Library
   Mihaly Kallay                                 : mrcc  (arbitrary order and MRCC methods)
   Jiri Pittner, Ondrej Demel                    : Mk-CCSD
   Frank Weinhold                                : gennbo (NPA and NBO analysis)
   Christopher J. Cramer and Donald G. Truhlar   : smd solvation model
   Lars Goerigk                                  : TD-DFT with DH, B97 family of functionals
   V. Asgeirsson, H. Jonsson                     : NEB implementation
   FAccTs GmbH                                   : IRC, NEB, NEB-TS, DLPNO-Multilevel, CI-OPT
                                                   MM, QMMM, 2- and 3-layer-ONIOM, Crystal-QMMM,
                                                   LR-CPCM, SF, NACMEs, symmetry and pop. for TD-DFT,
                                                   nearIR, NL-DFT gradient (VV10), updates on ESD,
                                                   ML-optimized integration grids
   S Lehtola, MJT Oliveira, MAL Marques          : LibXC Library
   Liviu Ungur et al                             : ANISO software


 Your calculation uses the libint2 library for the computation of 2-el integrals
 For citations please refer to: http://libint.valeyev.net

 Your ORCA version has been built with support for libXC version: 5.1.0
 For citations please refer to: https://tddft.org/programs/libxc/

 This ORCA versions uses:
   CBLAS   interface :  Fast vector & matrix operations
   LAPACKE interface :  Fast linear algebra routines
   SCALAPACK package :  Parallel linear algebra routines
   Shared memory     :  Shared parallel matrices
   BLAS/LAPACK       :  OpenBLAS 0.3.15  USE64BITINT DYNAMIC_ARCH NO_AFFINITY SkylakeX SINGLE_THREADED
        Core in use  :  SkylakeX
   Copyright (c) 2011-2014, The OpenBLAS Project




***************************************
The coordinates will be read from file: model.xyz
***************************************


================================================================================

----- Orbital basis set information -----
Your calculation utilizes the basis: cc-pVDZ 
       H, B-Ne : Obtained from the ccRepo (grant-hill.group.shef.ac.uk/ccrepo) Feb. 2017
                 T. H. Dunning, Jr., J. Chem. Phys. 90, 1007 (1989)
            He : Obtained from the ccRepo (grant-hill.group.shef.ac.uk/ccrepo) Feb. 2017
                 D. E. Woon, T. H. Dunning, Jr., J. Chem. Phys. 100, 2975 (1994)
  Li-Be, Na-Mg : Obtained from the ccRepo (grant-hill.group.shef.ac.uk/ccrepo) Feb. 2017
                 B. P. Prascher, D. E. Woon, K. A. Peterson, T. H. Dunning, Jr., A. K. Wilson, Theor. Chem. Acc. 128, 69 (2011)
         Al-Ar : Obtained from the ccRepo (grant-hill.group.shef.ac.uk/ccrepo) Feb. 2017
                 D. E. Woon, T. H. Dunning, Jr., J. Chem. Phys. 98, 1358 (1993)
            Ca : Obtained from the Peterson Research Group Website (tyr0.chem.wsu.edu/~kipeters) Feb. 2017
                 J. Koput, K. A. Peterson, J. Phys. Chem. 106, 9595 (2002)
         Sc-Zn : Obtained from the ccRepo (grant-hill.group.shef.ac.uk/ccrepo) Feb. 2017
                 N. B. Balabanov, K. A. Peterson, J. Chem. Phys. 123, 064107 (2005)
                 N. B. Balabanov, K. A. Peterson, J. Chem. Phys. 125, 074110 (2006)
         Ga-Kr : Obtained from the ccRepo (grant-hill.group.shef.ac.uk/ccrepo) Feb. 2017
                 A. K. Wilson, D. E. Woon, K. A. Peterson, T. H. Dunning, Jr., J. Chem. Phys. 110, 7667 (1999)

----- AuxJ basis set information -----
Your calculation utilizes the auxiliary basis: def2/J
   F. Weigend, Phys. Chem. Chem. Phys. 8, 1057 (2006).

================================================================================
                                        WARNINGS
                       Please study these warnings very carefully!
================================================================================

WARNING: Old DensityContainer found on disk!
         Will remove this file - 
         If you want to keep old densities, please start your calculation with a different basename. 


WARNING: your system is open-shell and RHF/RKS was chosen
  ===> : WILL SWITCH to UHF/UKS


WARNING: Geometry Optimization
  ===> : Switching off AutoStart
         For restart on a previous wavefunction, please use MOREAD

INFO   : the flag for use of the SHARK integral package has been found!

================================================================================
                                       INPUT FILE
================================================================================
NAME = opt_cc-pVDZ.inp
|  1> ! B3LYP cc-pVDZ OPT
|  2> %pal nprocs 16 end
|  3> *XYZFile 0 2 model.xyz
|  4> 
|  5>                          ****END OF INPUT****
================================================================================

                       *****************************
                       * Geometry Optimization Run *
                       *****************************

Geometry optimization settings:
Update method            Update   .... BFGS
Choice of coordinates    CoordSys .... Z-matrix Internals
Initial Hessian          InHess   .... Almoef's Model

Convergence Tolerances:
Energy Change            TolE     ....  5.0000e-06 Eh
Max. Gradient            TolMAXG  ....  3.0000e-04 Eh/bohr
RMS Gradient             TolRMSG  ....  1.0000e-04 Eh/bohr
Max. Displacement        TolMAXD  ....  4.0000e-03 bohr
RMS Displacement         TolRMSD  ....  2.0000e-03 bohr
Strict Convergence                ....  False
------------------------------------------------------------------------------
                        ORCA OPTIMIZATION COORDINATE SETUP
------------------------------------------------------------------------------

The optimization will be done in new redundant internal coordinates
Making redundant internal coordinates   ...  (new redundants) done
Evaluating the initial hessian          ...  (Almloef) done
Evaluating the coordinates              ...  done
Calculating the B-matrix                .... done
Calculating the G-matrix                .... done
Diagonalizing the G-matrix              .... done
Small eigenvalue found = 9.350e-04
Small eigenvalue found = 4.225e-03
Small eigenvalue found = 4.382e-03
Small eigenvalue found = 1.058e-02
Small eigenvalue found = 1.252e-02
Small eigenvalue found = 2.247e-02
Small eigenvalue found = 2.761e-02
Small eigenvalue found = 2.821e-02
The first mode is                       ....  113
The number of degrees of freedom        ....  132

    -----------------------------------------------------------------
                    Redundant Internal Coordinates


    -----------------------------------------------------------------
         Definition                    Initial Value    Approx d2E/dq
    -----------------------------------------------------------------
      1. B(C   2,C   1)                  1.4043         0.592826   
      2. B(C   3,C   2)                  1.3976         0.607650   
      3. B(C   4,C   0)                  1.4342         0.531060   
      4. B(C   4,C   3)                  1.4105         0.579460   
      5. B(C   5,C   4)                  1.4174         0.564953   
      6. B(C   6,C   5)                  1.4015         0.598952   
      7. B(C   6,C   1)                  1.3958         0.611559   
      8. B(H   7,C   3)                  1.0902         0.359773   
      9. B(H   8,C   6)                  1.0909         0.358900   
     10. B(C   9,C   2)                  1.5201         0.387419   
     11. B(H  10,C   9)                  1.1062         0.339254   
     12. B(H  11,C   9)                  1.1064         0.339019   
     13. B(C  12,C   9)                  1.5310         0.372205   
     14. B(H  13,C  12)                  1.1057         0.339948   
     15. B(H  14,C  12)                  1.1056         0.340016   
     16. B(C  15,C  12)                  1.5333         0.369092   
     17. B(H  16,C  15)                  1.1060         0.339503   
     18. B(H  17,C  15)                  1.1060         0.339520   
     19. B(C  18,C  15)                  1.5308         0.372461   
     20. B(H  19,C  18)                  1.1037         0.342385   
     21. B(H  20,C  18)                  1.1037         0.342400   
     22. B(C  21,C   5)                  1.5170         0.391836   
     23. B(H  22,C  21)                  1.1057         0.339922   
     24. B(H  23,C  21)                  1.1056         0.340015   
     25. B(C  24,C  21)                  1.5312         0.371957   
     26. B(H  25,C  24)                  1.1056         0.340091   
     27. B(H  26,C  24)                  1.1056         0.340060   
     28. B(C  27,C  24)                  1.5336         0.368660   
     29. B(H  28,C  27)                  1.1064         0.339035   
     30. B(H  29,C  27)                  1.1064         0.339021   
     31. B(C  30,C  27)                  1.5328         0.369694   
     32. B(H  31,C  30)                  1.1068         0.338576   
     33. B(H  32,C  30)                  1.1068         0.338573   
     34. B(C  33,C  30)                  1.5328         0.369806   
     35. B(H  34,C  33)                  1.1055         0.340123   
     36. B(H  35,C  33)                  1.1055         0.340135   
     37. B(C  36,C  33)                  1.5502         0.346822   
     38. B(H  37,C  36)                  1.1063         0.339206   
     39. B(H  38,C  36)                  1.1062         0.339253   
     40. B(C  39,C  36)                  1.4923         0.428991   
     41. B(H  40,C  39)                  1.0938         0.355157   
     42. B(H  41,C  39)                  1.0938         0.355135   
     43. B(C  42,C   0)                  1.2161         1.183657   
     44. B(H  43,C  42)                  1.0723         0.384250   
     45. B(H  44,C  18)                  1.1021         0.344400   
     46. B(H  45,C   1)                  1.0943         0.354447   
     47. L(C   4,C   0,C  42,C   3, 1) 179.5798         0.474696   
     48. L(C   4,C   0,C  42,C   3, 2) 179.8672         0.474696   
     49. A(C   6,C   1,H  45)          119.1360         0.351151   
     50. A(C   2,C   1,C   6)          121.5049         0.429525   
     51. A(C   2,C   1,H  45)          119.3592         0.349312   
     52. A(C   1,C   2,C   9)          119.4852         0.396097   
     53. A(C   1,C   2,C   3)          117.3108         0.429031   
     54. A(C   3,C   2,C   9)          123.2039         0.397819   
     55. A(C   2,C   3,H   7)          120.6165         0.351656   
     56. A(C   4,C   3,H   7)          117.6951         0.348847   
     57. A(C   2,C   3,C   4)          121.6884         0.427281   
     58. A(C   0,C   4,C   5)          120.5472         0.415244   
     59. A(C   3,C   4,C   5)          120.6220         0.421748   
     60. A(C   0,C   4,C   3)          118.8308         0.417121   
     61. A(C   4,C   5,C  21)          119.8635         0.393549   
     62. A(C   4,C   5,C   6)          117.1415         0.424249   
     63. A(C   6,C   5,C  21)          122.9949         0.397604   
     64. A(C   1,C   6,C   5)          121.7324         0.430319   
     65. A(C   5,C   6,H   8)          119.6077         0.350656   
     66. A(C   1,C   6,H   8)          118.6599         0.351893   
     67. A(C   2,C   9,H  11)          108.2405         0.323047   
     68. A(C   2,C   9,H  10)          108.2099         0.323084   
     69. A(C   2,C   9,C  12)          116.9114         0.365390   
     70. A(H  10,C   9,C  12)          108.8967         0.320971   
     71. A(H  10,C   9,H  11)          105.0765         0.285433   
     72. A(H  11,C   9,C  12)          108.8666         0.320935   
     73. A(H  14,C  12,C  15)          109.0568         0.320648   
     74. A(H  13,C  12,C  15)          109.1202         0.320638   
     75. A(C   9,C  12,C  15)          112.8417         0.362376   
     76. A(H  13,C  12,H  14)          106.1525         0.285654   
     77. A(C   9,C  12,H  14)          109.7460         0.321089   
     78. A(C   9,C  12,H  13)          109.7000         0.321078   
     79. A(H  16,C  15,C  18)          109.5382         0.321046   
     80. A(C  12,C  15,C  18)          113.1765         0.362418   
     81. A(H  16,C  15,H  17)          105.8540         0.285531   
     82. A(C  12,C  15,H  17)          109.2271         0.320572   
     83. A(C  12,C  15,H  16)          109.2375         0.320569   
     84. A(H  17,C  15,C  18)          109.5453         0.321048   
     85. A(H  20,C  18,H  44)          107.6062         0.286547   
     86. A(H  19,C  18,H  44)          107.6014         0.286545   
     87. A(C  15,C  18,H  44)          111.5153         0.321799   
     88. A(H  19,C  18,H  20)          107.3748         0.286284   
     89. A(C  15,C  18,H  20)          111.2690         0.321492   
     90. A(C  15,C  18,H  19)          111.2688         0.321490   
     91. A(H  23,C  21,C  24)          109.1992         0.321054   
     92. A(H  22,C  21,C  24)          109.1626         0.321039   
     93. A(C   5,C  21,C  24)          116.7840         0.366059   
     94. A(H  22,C  21,H  23)          104.4134         0.285651   
     95. A(C   5,C  21,H  23)          108.2906         0.323804   
     96. A(C   5,C  21,H  22)          108.2791         0.323790   
     97. A(H  26,C  24,C  27)          109.0600         0.320594   
     98. A(H  25,C  24,C  27)          109.0400         0.320598   
     99. A(C  21,C  24,C  27)          112.6423         0.362262   
    100. A(H  25,C  24,H  26)          106.1971         0.285679   
    101. A(C  21,C  24,H  26)          109.8291         0.321061   
    102. A(C  21,C  24,H  25)          109.8617         0.321065   
    103. A(H  29,C  27,C  30)          109.3320         0.320580   
    104. A(H  28,C  27,C  30)          109.3455         0.320582   
    105. A(C  24,C  27,C  30)          113.4535         0.361885   
    106. A(H  28,C  27,H  29)          105.8168         0.285405   
    107. A(C  24,C  27,H  29)          109.3020         0.320433   
    108. A(C  24,C  27,H  28)          109.3082         0.320435   
    109. A(H  32,C  30,C  33)          109.2637         0.320527   
    110. A(H  31,C  30,C  33)          109.2827         0.320527   
    111. A(C  27,C  30,C  33)          113.6134         0.362076   
    112. A(H  31,C  30,H  32)          105.8281         0.285286   
    113. A(C  27,C  30,H  32)          109.2891         0.320511   
    114. A(C  27,C  30,H  31)          109.2707         0.320511   
    115. A(C  30,C  33,H  35)          109.6804         0.320768   
    116. A(C  30,C  33,H  34)          109.6823         0.320766   
    117. A(H  35,C  33,C  36)          109.0816         0.317426   
    118. A(H  34,C  33,C  36)          109.0639         0.317424   
    119. A(C  30,C  33,C  36)          113.0274         0.358158   
    120. A(H  34,C  33,H  35)          106.0646         0.285693   
    121. A(H  38,C  36,C  39)          110.0090         0.328547   
    122. A(H  37,C  36,C  39)          109.9929         0.328540   
    123. A(C  33,C  36,C  39)          113.8902         0.367355   
    124. A(H  37,C  36,H  38)          106.5039         0.285457   
    125. A(C  33,C  36,H  38)          108.0768         0.317292   
    126. A(C  33,C  36,H  37)          108.0791         0.317285   
    127. A(H  40,C  39,H  41)          117.5538         0.289578   
    128. A(C  36,C  39,H  41)          120.8432         0.331041   
    129. A(C  36,C  39,H  40)          120.8502         0.331044   
    130. L(C   0,C  42,H  43, 2)       180.0765         0.399026   
    131. L(C   0,C  42,H  43, 1)       180.0045         0.399026   
    132. D(C   3,C   2,C   1,H  45)    179.9640         0.024197   
    133. D(C   9,C   2,C   1,C   6)    179.8745         0.024197   
    134. D(C   9,C   2,C   1,H  45)     -0.1273         0.024197   
    135. D(C   3,C   2,C   1,C   6)     -0.0342         0.024197   
    136. D(H   7,C   3,C   2,C   9)      0.1309         0.025490   
    137. D(C   4,C   3,C   2,C   1)      0.0296         0.025490   
    138. D(C   4,C   3,C   2,C   9)   -179.8755         0.025490   
    139. D(H   7,C   3,C   2,C   1)   -179.9641         0.025490   
    140. D(C   0,C   4,C   3,H   7)     -0.0508         0.023067   
    141. D(C   5,C   4,C   3,H   7)    179.9821         0.023067   
    142. D(C   0,C   4,C   3,C   2)    179.9553         0.023067   
    143. D(C   5,C   4,C   3,C   2)     -0.0117         0.023067   
    144. D(C   6,C   5,C   4,C   3)     -0.0027         0.021878   
    145. D(C   6,C   5,C   4,C   0)   -179.9692         0.021878   
    146. D(C  21,C   5,C   4,C   0)      0.0200         0.021878   
    147. D(C  21,C   5,C   4,C   3)    179.9865         0.021878   
    148. D(C   1,C   6,C   5,C  21)   -179.9907         0.024726   
    149. D(H   8,C   6,C   5,C  21)      0.0222         0.024726   
    150. D(C   5,C   6,C   1,H  45)   -179.9771         0.025838   
    151. D(C   5,C   6,C   1,C   2)      0.0211         0.025838   
    152. D(H   8,C   6,C   5,C   4)   -179.9889         0.024726   
    153. D(C   1,C   6,C   5,C   4)     -0.0019         0.024726   
    154. D(H   8,C   6,C   1,H  45)      0.0100         0.025838   
    155. D(H   8,C   6,C   1,C   2)   -179.9918         0.025838   
    156. D(C  12,C   9,C   2,C   3)     -1.5264         0.011175   
    157. D(C  12,C   9,C   2,C   1)    178.5705         0.011175   
    158. D(H  11,C   9,C   2,C   3)    121.7793         0.011175   
    159. D(H  10,C   9,C   2,C   3)   -124.8469         0.011175   
    160. D(H  10,C   9,C   2,C   1)     55.2500         0.011175   
    161. D(H  11,C   9,C   2,C   1)    -58.1238         0.011175   
    162. D(H  13,C  12,C   9,C   2)    -57.7014         0.011067   
    163. D(C  15,C  12,C   9,H  10)    -56.6270         0.011067   
    164. D(C  15,C  12,C   9,C   2)   -179.5945         0.011067   
    165. D(H  14,C  12,C   9,H  11)    -64.4232         0.011067   
    166. D(H  14,C  12,C   9,H  10)   -178.4719         0.011067   
    167. D(H  14,C  12,C   9,C   2)     58.5606         0.011067   
    168. D(H  13,C  12,C   9,H  11)    179.3148         0.011067   
    169. D(C  15,C  12,C   9,H  11)     57.4217         0.011067   
    170. D(H  13,C  12,C   9,H  10)     65.2662         0.011067   
    171. D(C  18,C  15,C  12,H  14)    -57.6738         0.010893   
    172. D(C  18,C  15,C  12,C   9)   -179.9066         0.010893   
    173. D(H  17,C  15,C  12,H  14)   -179.9996         0.010893   
    174. D(H  17,C  15,C  12,H  13)    -64.4517         0.010893   
    175. D(H  17,C  15,C  12,C   9)     57.7677         0.010893   
    176. D(H  16,C  15,C  12,H  14)     64.6504         0.010893   
    177. D(C  18,C  15,C  12,H  13)     57.8740         0.010893   
    178. D(H  16,C  15,C  12,H  13)   -179.8017         0.010893   
    179. D(H  16,C  15,C  12,C   9)    -57.5823         0.010893   
    180. D(H  44,C  18,C  15,H  17)    -57.8551         0.011081   
    181. D(H  44,C  18,C  15,H  16)     57.8402         0.011081   
    182. D(H  44,C  18,C  15,C  12)    179.9967         0.011081   
    183. D(H  20,C  18,C  15,H  17)     62.3002         0.011081   
    184. D(H  20,C  18,C  15,H  16)    177.9955         0.011081   
    185. D(H  20,C  18,C  15,C  12)    -59.8480         0.011081   
    186. D(H  19,C  18,C  15,H  17)   -178.0042         0.011081   
    187. D(H  19,C  18,C  15,H  16)    -62.3089         0.011081   
    188. D(H  19,C  18,C  15,C  12)     59.8476         0.011081   
    189. D(C  24,C  21,C   5,C   4)    179.9419         0.011417   
    190. D(H  23,C  21,C   5,C   6)   -123.7685         0.011417   
    191. D(H  23,C  21,C   5,C   4)     56.2430         0.011417   
    192. D(H  22,C  21,C   5,C   6)    123.5708         0.011417   
    193. D(C  24,C  21,C   5,C   6)     -0.0696         0.011417   
    194. D(H  22,C  21,C   5,C   4)    -56.4177         0.011417   
    195. D(C  27,C  24,C  21,H  23)    -56.6076         0.011053   
    196. D(C  27,C  24,C  21,C   5)   -179.8400         0.011053   
    197. D(H  26,C  24,C  21,H  23)   -178.3799         0.011053   
    198. D(H  26,C  24,C  21,H  22)    -64.7988         0.011053   
    199. D(H  26,C  24,C  21,C   5)     58.3877         0.011053   
    200. D(H  25,C  24,C  21,H  23)     65.1623         0.011053   
    201. D(C  27,C  24,C  21,H  22)     56.9734         0.011053   
    202. D(H  25,C  24,C  21,H  22)    178.7433         0.011053   
    203. D(H  25,C  24,C  21,C   5)    -58.0701         0.011053   
    204. D(C  30,C  27,C  24,H  26)    -57.4997         0.010870   
    205. D(C  30,C  27,C  24,H  25)     58.0591         0.010870   
    206. D(C  30,C  27,C  24,C  21)   -179.7066         0.010870   
    207. D(H  29,C  27,C  24,H  26)   -179.7957         0.010870   
    208. D(H  29,C  27,C  24,H  25)    -64.2369         0.010870   
    209. D(H  29,C  27,C  24,C  21)     57.9973         0.010870   
    210. D(H  28,C  27,C  24,H  26)     64.8183         0.010870   
    211. D(H  28,C  27,C  24,H  25)   -179.6229         0.010870   
    212. D(H  28,C  27,C  24,C  21)    -57.3886         0.010870   
    213. D(C  33,C  30,C  27,H  29)    -57.6215         0.010927   
    214. D(C  33,C  30,C  27,H  28)     57.8019         0.010927   
    215. D(C  33,C  30,C  27,C  24)   -179.9008         0.010927   
    216. D(H  32,C  30,C  27,H  29)     64.6873         0.010927   
    217. D(H  32,C  30,C  27,H  28)   -179.8894         0.010927   
    218. D(H  32,C  30,C  27,C  24)    -57.5921         0.010927   
    219. D(H  31,C  30,C  27,H  29)   -179.9411         0.010927   
    220. D(H  31,C  30,C  27,H  28)    -64.5178         0.010927   
    221. D(H  31,C  30,C  27,C  24)     57.7795         0.010927   
    222. D(C  36,C  33,C  30,H  32)     57.7857         0.010933   
    223. D(C  36,C  33,C  30,H  31)    -57.5785         0.010933   
    224. D(C  36,C  33,C  30,C  27)   -179.8915         0.010933   
    225. D(H  35,C  33,C  30,H  32)    179.7425         0.010933   
    226. D(H  35,C  33,C  30,H  31)     64.3783         0.010933   
    227. D(H  35,C  33,C  30,C  27)    -57.9347         0.010933   
    228. D(H  34,C  33,C  30,H  32)    -64.1496         0.010933   
    229. D(H  34,C  33,C  30,H  31)   -179.5138         0.010933   
    230. D(H  34,C  33,C  30,C  27)     58.1732         0.010933   
    231. D(C  39,C  36,C  33,H  35)     57.7630         0.009706   
    232. D(C  39,C  36,C  33,C  30)   -179.9447         0.009706   
    233. D(H  38,C  36,C  33,H  35)    -64.8006         0.009706   
    234. D(H  38,C  36,C  33,H  34)    179.7735         0.009706   
    235. D(H  38,C  36,C  33,C  30)     57.4917         0.009706   
    236. D(H  37,C  36,C  33,H  35)   -179.6922         0.009706   
    237. D(C  39,C  36,C  33,H  34)    -57.6628         0.009706   
    238. D(H  37,C  36,C  33,H  34)     64.8819         0.009706   
    239. D(H  37,C  36,C  33,C  30)    -57.4000         0.009706   
    240. D(H  41,C  39,C  36,H  38)   -153.6575         0.013593   
    241. D(H  41,C  39,C  36,H  37)    -36.6436         0.013593   
    242. D(H  41,C  39,C  36,C  33)     84.8450         0.013593   
    243. D(H  40,C  39,C  36,H  38)     36.5243         0.013593   
    244. D(H  40,C  39,C  36,H  37)    153.5382         0.013593   
    245. D(H  40,C  39,C  36,C  33)    -84.9732         0.013593   
    -----------------------------------------------------------------

Number of atoms                         .... 46
Number of degrees of freedom            .... 245

         *************************************************************
         *                GEOMETRY OPTIMIZATION CYCLE   1            *
         *************************************************************
---------------------------------
CARTESIAN COORDINATES (ANGSTROEM)
---------------------------------
  C      4.260893   -0.079127   -0.043591
  C      0.045387   -0.014079   -0.133807
  C      0.704757   -1.253015   -0.085632
  C      2.101931   -1.235147   -0.057350
  C      2.827985   -0.025998   -0.075534
  C      2.154195    1.220084   -0.123807
  C      0.753332    1.188758   -0.152097
  H      2.668495   -2.165884   -0.020281
  H      0.193946    2.124579   -0.189644
  C     -0.111949   -2.534903   -0.064556
  H     -0.786166   -2.529706   -0.941570
  H     -0.783040   -2.503561    0.814548
  C      0.667170   -3.852699   -0.045898
  H      1.334018   -3.903925   -0.926359
  H      1.326150   -3.884500    0.841308
  C     -0.246311   -5.084124   -0.035413
  H     -0.916771   -5.033046    0.842757
  H     -0.906915   -5.055142   -0.922002
  C      0.524988   -6.406261   -0.014444
  H      1.168051   -6.480501    0.879526
  H      1.177898   -6.502965   -0.899066
  C      2.952208    2.510100   -0.142411
  H      3.610046    2.523794    0.746200
  H      3.648976    2.474747   -1.000122
  C      2.153064    3.815083   -0.196314
  H      1.507351    3.823318   -1.093673
  H      1.473136    3.874674    0.673437
  C      3.051950    5.057494   -0.215340
  H      3.705089    5.050199    0.677686
  H      3.731774    5.003740   -1.086612
  C      2.270402    6.375297   -0.262074
  H      1.591515    6.428490    0.610416
  H      1.615926    6.380765   -1.154594
  C      3.165360    7.619459   -0.283638
  H      3.840573    7.577327   -1.158008
  H      3.819142    7.623303    0.607847
  C      2.361317    8.944123   -0.328166
  H      1.709747    8.920359   -1.221882
  H      1.689242    8.967418    0.550198
  C      3.214355   10.168422   -0.351043
  H      3.591753   10.606491    0.577387
  H      3.614830   10.555345   -1.292458
  C      5.475492   -0.133120   -0.017706
  H      6.546487   -0.180814    0.006549
  H     -0.157012   -7.272012   -0.007233
  H     -1.048373    0.011018   -0.157638

----------------------------
CARTESIAN COORDINATES (A.U.)
----------------------------
  NO LB      ZA    FRAG     MASS         X           Y           Z
   0 C     6.0000    0    12.011    8.051921   -0.149527   -0.082375
   1 C     6.0000    0    12.011    0.085769   -0.026606   -0.252858
   2 C     6.0000    0    12.011    1.331798   -2.367856   -0.161822
   3 C     6.0000    0    12.011    3.972075   -2.334090   -0.108376
   4 C     6.0000    0    12.011    5.344118   -0.049130   -0.142739
   5 C     6.0000    0    12.011    4.070839    2.305624   -0.233961
   6 C     6.0000    0    12.011    1.423591    2.246428   -0.287422
   7 H     1.0000    0     1.008    5.042724   -4.092928   -0.038325
   8 H     1.0000    0     1.008    0.366505    4.014872   -0.358375
   9 C     6.0000    0    12.011   -0.211552   -4.790273   -0.121992
  10 H     1.0000    0     1.008   -1.485639   -4.780452   -1.779310
  11 H     1.0000    0     1.008   -1.479730   -4.731045    1.539273
  12 C     6.0000    0    12.011    1.260769   -7.280546   -0.086736
  13 H     1.0000    0     1.008    2.520928   -7.377350   -1.750565
  14 H     1.0000    0     1.008    2.506061   -7.340641    1.589841
  15 C     6.0000    0    12.011   -0.465461   -9.607602   -0.066921
  16 H     1.0000    0     1.008   -1.732446   -9.511078    1.592581
  17 H     1.0000    0     1.008   -1.713821   -9.552835   -1.742332
  18 C     6.0000    0    12.011    0.992083  -12.106079   -0.027295
  19 H     1.0000    0     1.008    2.207296  -12.246371    1.662064
  20 H     1.0000    0     1.008    2.225904  -12.288822   -1.698988
  21 C     6.0000    0    12.011    5.578866    4.743402   -0.269117
  22 H     1.0000    0     1.008    6.821997    4.769279    1.410114
  23 H     1.0000    0     1.008    6.895565    4.676594   -1.889956
  24 C     6.0000    0    12.011    4.068702    7.209462   -0.370980
  25 H     1.0000    0     1.008    2.848481    7.225024   -2.066743
  26 H     1.0000    0     1.008    2.783823    7.322072    1.272612
  27 C     6.0000    0    12.011    5.767350    9.557279   -0.406934
  28 H     1.0000    0     1.008    7.001603    9.543493    1.280641
  29 H     1.0000    0     1.008    7.052031    9.455698   -2.053399
  30 C     6.0000    0    12.011    4.290438   12.047566   -0.495248
  31 H     1.0000    0     1.008    3.007528   12.148085    1.153519
  32 H     1.0000    0     1.008    3.053658   12.057898   -2.181866
  33 C     6.0000    0    12.011    5.981664   14.398691   -0.535997
  34 H     1.0000    0     1.008    7.257631   14.319073   -2.188318
  35 H     1.0000    0     1.008    7.217132   14.405955    1.148665
  36 C     6.0000    0    12.011    4.462243   16.901943   -0.620145
  37 H     1.0000    0     1.008    3.230954   16.857035   -2.309022
  38 H     1.0000    0     1.008    3.192205   16.945964    1.039723
  39 C     6.0000    0    12.011    6.074251   19.215532   -0.663375
  40 H     1.0000    0     1.008    6.787430   20.043363    1.091103
  41 H     1.0000    0     1.008    6.831038   19.946710   -2.442393
  42 C     6.0000    0    12.011   10.347180   -0.251561   -0.033459
  43 H     1.0000    0     1.008   12.371067   -0.341690    0.012376
  44 H     1.0000    0     1.008   -0.296710  -13.742112   -0.013668
  45 H     1.0000    0     1.008   -1.981137    0.020820   -0.297893

--------------------------------
INTERNAL COORDINATES (ANGSTROEM)
--------------------------------
 C      0   0   0     0.000000000000     0.00000000     0.00000000
 C      1   0   0     4.216973050903     0.00000000     0.00000000
 C      2   1   0     1.404297663835    61.07157903     0.00000000
 C      3   2   1     1.397574938989   117.31081954   359.97574981
 C      4   3   2     1.410505485863   121.68836685     0.02957880
 C      5   4   3     1.417407170048   120.62203779     0.00000000
 C      2   1   3     1.395829163165    60.43327217   179.99025674
 H      4   3   2     1.090247485185   120.61650907   180.03591054
 H      7   2   1     1.090908691622   118.65991718   179.99821819
 C      3   2   1     1.520094892272   119.48523502   179.88447569
 H     10   3   2     1.106232804804   108.20987074    55.25002497
 H     10   3   2     1.106421646020   108.24053344   301.87619314
 C     10   3   2     1.530999771383   116.91141135   178.57054599
 H     13  10   3     1.105676426908   109.70002962   302.29864521
 H     13  10   3     1.105622267263   109.74601720    58.56061334
 C     13  10   3     1.533286186949   112.84168152   180.40549086
 H     16  13  10     1.106032877553   109.23749204   302.41768295
 H     16  13  10     1.106018995976   109.22712235    57.76765630
 C     16  13  10     1.530812900751   113.17649123   180.09341718
 H     19  16  13     1.103732092454   111.26880495    59.84756998
 H     19  16  13     1.103720125842   111.26903915   300.15197974
 C      6   5   4     1.517008437075   119.86353544   179.98649276
 H     22   6   5     1.105697286815   108.27913343   303.58225359
 H     22   6   5     1.105623015192   108.29062918    56.24301330
 C     22   6   5     1.531181618759   116.78396571   179.94186029
 H     25  22   6     1.105561635964   109.86168126   301.92989220
 H     25  22   6     1.105586778046   109.82910333    58.38772567
 C     25  22   6     1.533604625879   112.64225838   180.15998477
 H     28  25  22     1.106408163561   109.30815499   302.61138614
 H     28  25  22     1.106419619242   109.30198175    57.99734098
 C     28  25  22     1.532842714433   113.45350966   180.29336405
 H     31  28  25     1.106777006556   109.27074348    57.77947014
 H     31  28  25     1.106779430495   109.28913699   302.40788865
 C     31  28  25     1.532760128398   113.61337066   180.09916100
 H     34  31  28     1.105536344064   109.68231869    58.17317324
 H     34  31  28     1.105527048041   109.68044540   302.06525954
 C     34  31  28     1.550226867025   113.02738246   180.10848276
 H     37  34  31     1.106271241842   108.07910415   302.60001569
 H     37  34  31     1.106233160989   108.07679053    57.49168387
 C     37  34  31     1.492348336213   113.89018819   180.05530061
 H     40  37  34     1.093762176410   120.85021729   275.02677486
 H     40  37  34     1.093779008390   120.84323892    84.84498082
 C      1   2   3     1.216074245338   178.33904773     1.76439299
 H     43   1   5     1.072330402508   179.92346806   265.72951072
 H     19  16  13     1.102134827954   111.51533622   179.99665919
 H      2   1   3     1.094306812644   179.56910554   181.36193359

---------------------------
INTERNAL COORDINATES (A.U.)
---------------------------
 C      0   0   0     0.000000000000     0.00000000     0.00000000
 C      1   0   0     7.968924180334     0.00000000     0.00000000
 C      2   1   0     2.653737995154    61.07157903     0.00000000
 C      3   2   1     2.641033886321   117.31081954   359.97574981
 C      4   3   2     2.665469078675   121.68836685     0.02957880
 C      5   4   3     2.678511371647   120.62203779     0.00000000
 C      2   1   3     2.637734848122    60.43327217   179.99025674
 H      4   3   2     2.060269165196   120.61650907   180.03591054
 H      7   2   1     2.061518664279   118.65991718   179.99821819
 C      3   2   1     2.872563043966   119.48523502   179.88447569
 H     10   3   2     2.090477041439   108.20987074    55.25002497
 H     10   3   2     2.090833899621   108.24053344   301.87619314
 C     10   3   2     2.893170279010   116.91141135   178.57054599
 H     13  10   3     2.089425639588   109.70002962   302.29864521
 H     13  10   3     2.089323292692   109.74601720    58.56061334
 C     13  10   3     2.897490978258   112.84168152   180.40549086
 H     16  13  10     2.090099233689   109.23749204   302.41768295
 H     16  13  10     2.090073001309   109.22712235    57.76765630
 C     16  13  10     2.892817144693   113.17649123   180.09341718
 H     19  16  13     2.085751379957   111.26880495    59.84756998
 H     19  16  13     2.085728766339   111.26903915   300.15197974
 C      6   5   4     2.866730488921   119.86353544   179.98649276
 H     22   6   5     2.089465059100   108.27913343   303.58225359
 H     22   6   5     2.089324706072   108.29062918    56.24301330
 C     22   6   5     2.893513920748   116.78396571   179.94186029
 H     25  22   6     2.089208716142   109.86168126   301.92989220
 H     25  22   6     2.089256227791   109.82910333    58.38772567
 C     25  22   6     2.898092740626   112.64225838   180.15998477
 H     28  25  22     2.090808421465   109.30815499   302.61138614
 H     28  25  22     2.090830069566   109.30198175    57.99734098
 C     28  25  22     2.896652936654   113.45350966   180.29336405
 H     31  28  25     2.091505433712   109.27074348    57.77947014
 H     31  28  25     2.091510014293   109.28913699   302.40788865
 C     31  28  25     2.896496871666   113.61337066   180.09916100
 H     34  31  28     2.089160921378   109.68231869    58.17317324
 H     34  31  28     2.089143354440   109.68044540   302.06525954
 C     34  31  28     2.929504224124   113.02738246   180.10848276
 H     37  34  31     2.090549676915   108.07910415   302.60001569
 H     37  34  31     2.090477714531   108.07679053    57.49168387
 C     37  34  31     2.820129651856   113.89018819   180.05530061
 H     40  37  34     2.066910969057   120.85021729   275.02677486
 H     40  37  34     2.066942776888   120.84323892    84.84498082
 C      1   2   3     2.298047282204   178.33904773     1.76439299
 H     43   1   5     2.026410785818   179.92346806   265.72951072
 H     19  16  13     2.082732987490   111.51533622   179.99665919
 H      2   1   3     2.067940182381   179.56910554   181.36193359

---------------------
BASIS SET INFORMATION
---------------------
There are 2 groups of distinct atoms

 Group   1 Type C   : 17s4p1d contracted to 3s2p1d pattern {881/31/1}
 Group   2 Type H   : 4s1p contracted to 2s1p pattern {31/1}

Atom   0C    basis set group =>   1
Atom   1C    basis set group =>   1
Atom   2C    basis set group =>   1
Atom   3C    basis set group =>   1
Atom   4C    basis set group =>   1
Atom   5C    basis set group =>   1
Atom   6C    basis set group =>   1
Atom   7H    basis set group =>   2
Atom   8H    basis set group =>   2
Atom   9C    basis set group =>   1
Atom  10H    basis set group =>   2
Atom  11H    basis set group =>   2
Atom  12C    basis set group =>   1
Atom  13H    basis set group =>   2
Atom  14H    basis set group =>   2
Atom  15C    basis set group =>   1
Atom  16H    basis set group =>   2
Atom  17H    basis set group =>   2
Atom  18C    basis set group =>   1
Atom  19H    basis set group =>   2
Atom  20H    basis set group =>   2
Atom  21C    basis set group =>   1
Atom  22H    basis set group =>   2
Atom  23H    basis set group =>   2
Atom  24C    basis set group =>   1
Atom  25H    basis set group =>   2
Atom  26H    basis set group =>   2
Atom  27C    basis set group =>   1
Atom  28H    basis set group =>   2
Atom  29H    basis set group =>   2
Atom  30C    basis set group =>   1
Atom  31H    basis set group =>   2
Atom  32H    basis set group =>   2
Atom  33C    basis set group =>   1
Atom  34H    basis set group =>   2
Atom  35H    basis set group =>   2
Atom  36C    basis set group =>   1
Atom  37H    basis set group =>   2
Atom  38H    basis set group =>   2
Atom  39C    basis set group =>   1
Atom  40H    basis set group =>   2
Atom  41H    basis set group =>   2
Atom  42C    basis set group =>   1
Atom  43H    basis set group =>   2
Atom  44H    basis set group =>   2
Atom  45H    basis set group =>   2
---------------------------------
AUXILIARY/J BASIS SET INFORMATION
---------------------------------
There are 2 groups of distinct atoms

 Group   1 Type C   : 12s5p4d2f1g contracted to 6s4p3d1f1g pattern {711111/2111/211/2/1}
 Group   2 Type H   : 5s2p1d contracted to 3s1p1d pattern {311/2/1}

Atom   0C    basis set group =>   1
Atom   1C    basis set group =>   1
Atom   2C    basis set group =>   1
Atom   3C    basis set group =>   1
Atom   4C    basis set group =>   1
Atom   5C    basis set group =>   1
Atom   6C    basis set group =>   1
Atom   7H    basis set group =>   2
Atom   8H    basis set group =>   2
Atom   9C    basis set group =>   1
Atom  10H    basis set group =>   2
Atom  11H    basis set group =>   2
Atom  12C    basis set group =>   1
Atom  13H    basis set group =>   2
Atom  14H    basis set group =>   2
Atom  15C    basis set group =>   1
Atom  16H    basis set group =>   2
Atom  17H    basis set group =>   2
Atom  18C    basis set group =>   1
Atom  19H    basis set group =>   2
Atom  20H    basis set group =>   2
Atom  21C    basis set group =>   1
Atom  22H    basis set group =>   2
Atom  23H    basis set group =>   2
Atom  24C    basis set group =>   1
Atom  25H    basis set group =>   2
Atom  26H    basis set group =>   2
Atom  27C    basis set group =>   1
Atom  28H    basis set group =>   2
Atom  29H    basis set group =>   2
Atom  30C    basis set group =>   1
Atom  31H    basis set group =>   2
Atom  32H    basis set group =>   2
Atom  33C    basis set group =>   1
Atom  34H    basis set group =>   2
Atom  35H    basis set group =>   2
Atom  36C    basis set group =>   1
Atom  37H    basis set group =>   2
Atom  38H    basis set group =>   2
Atom  39C    basis set group =>   1
Atom  40H    basis set group =>   2
Atom  41H    basis set group =>   2
Atom  42C    basis set group =>   1
Atom  43H    basis set group =>   2
Atom  44H    basis set group =>   2
Atom  45H    basis set group =>   2


           ************************************************************
           *        Program running with 16 parallel MPI-processes    *
           *              working on a common directory               *
           ************************************************************
------------------------------------------------------------------------------
                           ORCA GTO INTEGRAL CALCULATION
                           -- RI-GTO INTEGRALS CHOSEN --
------------------------------------------------------------------------------
------------------------------------------------------------------------------
                   ___                                                        
                  /   \      - P O W E R E D   B Y -                         
                 /     \                                                     
                 |  |  |   _    _      __       _____    __    __             
                 |  |  |  | |  | |    /  \     |  _  \  |  |  /  |          
                  \  \/   | |  | |   /    \    | | | |  |  | /  /          
                 / \  \   | |__| |  /  /\  \   | |_| |  |  |/  /          
                |  |  |   |  __  | /  /__\  \  |    /   |      \           
                |  |  |   | |  | | |   __   |  |    \   |  |\   \          
                \     /   | |  | | |  |  |  |  | |\  \  |  | \   \       
                 \___/    |_|  |_| |__|  |__|  |_| \__\ |__|  \__/        
                                                                              
                      - O R C A' S   B I G   F R I E N D -                    
                                      &                                       
                       - I N T E G R A L  F E E D E R -                       
                                                                              
 v1 FN, 2020, v2 2021                                                         
------------------------------------------------------------------------------


Reading SHARK input file opt_cc-pVDZ.SHARKINP.tmp ... ok
----------------------
SHARK INTEGRAL PACKAGE
----------------------

Number of atoms                             ...     46
Number of basis functions                   ...    515
Number of shells                            ...    309
Maximum angular momentum                    ...      2
Integral batch strategy                     ... SHARK/LIBINT Hybrid
RI-J (if used) integral strategy            ... SPLIT-RIJ (Revised 2003 algorithm where possible)
Printlevel                                  ...      1
Contraction scheme used                     ... PARTIAL GENERAL contraction
Coulomb Range Separation                    ... NOT USED
Exchange Range Separation                   ... NOT USED
Finite Nucleus Model                        ... NOT USED
Auxiliary Coulomb fitting basis             ... AVAILABLE
   # of basis functions in Aux-J            ...   1228
   # of shells in Aux-J                     ...    420
   Maximum angular momentum in Aux-J        ...      4
Auxiliary J/K fitting basis                 ... NOT available
Auxiliary Correlation fitting basis         ... NOT available
Auxiliary 'external' fitting basis          ... NOT available
Integral threshold                          ...     2.500000e-11
Primitive cut-off                           ...     2.500000e-12
Primitive pair pre-selection threshold      ...     2.500000e-12

Calculating pre-screening integrals         ... done (  0.0 sec) Dimension = 309
Calculating pre-screening integrals (ORCA)  ... done (  0.1 sec) Dimension = 195
Organizing shell pair data                  ... done (  0.1 sec)
Shell pair information
Total number of shell pairs                 ...     47895
Shell pairs after pre-screening             ...     20882
Total number of primitive shell pairs       ...     80739
Primitive shell pairs kept                  ...     29562
          la=0 lb=0:   9407 shell pairs
          la=1 lb=0:   7283 shell pairs
          la=1 lb=1:   1304 shell pairs
          la=2 lb=0:   2047 shell pairs
          la=2 lb=1:    728 shell pairs
          la=2 lb=2:    113 shell pairs

Calculating one electron integrals          ... done (  0.0 sec)
Calculating RI/J V-Matrix + Cholesky decomp.... done (  0.2 sec)
Calculating Nuclear repulsion               ... done (  0.0 sec) ENN=   1249.871733714571 Eh

SHARK setup successfully completed in   1.0 seconds

Maximum memory used throughout the entire GTOINT-calculation: 30.7 MB


           ************************************************************
           *        Program running with 16 parallel MPI-processes    *
           *              working on a common directory               *
           ************************************************************
-------------------------------------------------------------------------------
                                 ORCA SCF
-------------------------------------------------------------------------------

------------
SCF SETTINGS
------------
Hamiltonian:
 Density Functional     Method          .... DFT(GTOs)
 Exchange Functional    Exchange        .... B88
   X-Alpha parameter    XAlpha          ....  0.666667
   Becke's b parameter  XBeta           ....  0.004200
 Correlation Functional Correlation     .... LYP
 LDA part of GGA corr.  LDAOpt          .... VWN-5
 Gradients option       PostSCFGGA      .... off
 Hybrid DFT is turned on
   Fraction HF Exchange ScalHFX         ....  0.200000
   Scaling of DF-GGA-X  ScalDFX         ....  0.720000
   Scaling of DF-GGA-C  ScalDFC         ....  0.810000
   Scaling of DF-LDA-C  ScalLDAC        ....  1.000000
   Perturbative correction              ....  0.000000
   Density functional embedding theory  .... OFF
   NL short-range parameter             ....  4.800000
 RI-approximation to the Coulomb term is turned on
   Number of AuxJ basis functions       .... 1228
   RIJ-COSX (HFX calculated with COS-X)).... on


General Settings:
 Integral files         IntName         .... opt_cc-pVDZ
 Hartree-Fock type      HFTyp           .... UHF
 Total Charge           Charge          ....    0
 Multiplicity           Mult            ....    2
 Number of Electrons    NEL             ....  141
 Basis Dimension        Dim             ....  401
 Nuclear Repulsion      ENuc            ....   1249.8717337146 Eh

Convergence Acceleration:
 DIIS                   CNVDIIS         .... on
   Start iteration      DIISMaxIt       ....    12
   Startup error        DIISStart       ....  0.200000
   # of expansion vecs  DIISMaxEq       ....     5
   Bias factor          DIISBfac        ....   1.050
   Max. coefficient     DIISMaxC        ....  10.000
 Trust-Rad. Augm. Hess. CNVTRAH         .... auto
   Auto Start mean grad. ratio tolernc. ....  1.125000
   Auto Start start iteration           ....    20
   Auto Start num. interpolation iter.  ....    10
   Max. Number of Micro iterations      ....    16
   Max. Number of Macro iterations      .... Maxiter - #DIIS iter
   Number of Davidson start vectors     ....     2
   Converg. threshold I  (grad. norm)   ....   1.000e-05
   Converg. threshold II (energy diff.) ....   1.000e-08
   Grad. Scal. Fac. for Micro threshold ....   0.100
   Minimum threshold for Micro iter.    ....   0.010
   NR start threshold (gradient norm)   ....   0.001
   Initial trust radius                 ....   0.400
   Minimum AH scaling param. (alpha)    ....   1.000
   Maximum AH scaling param. (alpha)    .... 1000.000
   Orbital update algorithm             .... Taylor
   White noise on init. David. guess    .... on
   Maximum white noise                  ....   0.010
   Quad. conv. algorithm                .... NR
 SOSCF                  CNVSOSCF        .... off
 Level Shifting         CNVShift        .... on
   Level shift para.    LevelShift      ....    0.2500
   Turn off err/grad.   ShiftErr        ....    0.0010
 Zerner damping         CNVZerner       .... off
 Static damping         CNVDamp         .... on
   Fraction old density DampFac         ....    0.7000
   Max. Damping (<1)    DampMax         ....    0.9800
   Min. Damping (>=0)   DampMin         ....    0.0000
   Turn off err/grad.   DampErr         ....    0.1000
 Fernandez-Rico         CNVRico         .... off

SCF Procedure:
 Maximum # iterations   MaxIter         ....   125
 SCF integral mode      SCFMode         .... Direct
   Integral package                     .... SHARK and LIBINT hybrid scheme
 Reset frequency        DirectResetFreq ....    20
 Integral Threshold     Thresh          ....  2.500e-11 Eh
 Primitive CutOff       TCut            ....  2.500e-12 Eh

Convergence Tolerance:
 Convergence Check Mode ConvCheckMode   .... Total+1el-Energy
 Convergence forced     ConvForced      .... 0
 Energy Change          TolE            ....  1.000e-08 Eh
 1-El. energy change                    ....  1.000e-05 Eh
 DIIS Error             TolErr          ....  5.000e-07


Diagonalization of the overlap matrix:
Smallest eigenvalue                        ... 1.543e-04
Time for diagonalization                   ...    0.031 sec
Threshold for overlap eigenvalues          ... 1.000e-08
Number of eigenvalues below threshold      ... 0
Time for construction of square roots      ...    0.037 sec
Total time needed                          ...    0.069 sec

Time for model grid setup =    0.266 sec

------------------------------
INITIAL GUESS: MODEL POTENTIAL
------------------------------
Loading Hartree-Fock densities                     ... done
Calculating cut-offs                               ... done
Initializing the effective Hamiltonian             ... done
Setting up the integral package (SHARK)            ... done
Starting the Coulomb interaction                   ... done (   0.2 sec)
Reading the grid                                   ... done
Mapping shells                                     ... done
Starting the XC term evaluation                    ... done (   0.1 sec)
  promolecular density results
     # of electrons  =    140.999847700
     EX              =   -105.601134210
     EC              =     -4.582645387
     EX+EC           =   -110.183779597
Transforming the Hamiltonian                       ... done (   0.0 sec)
Diagonalizing the Hamiltonian                      ... done (   0.0 sec)
Back transforming the eigenvectors                 ... done (   0.0 sec)
Now organizing SCF variables                       ... done
                      ------------------
                      INITIAL GUESS DONE (   0.9 sec)
                      ------------------
-------------------
DFT GRID GENERATION
-------------------

General Integration Accuracy     IntAcc      ... 4.388
Radial Grid Type                 RadialGrid  ... OptM3 with GC (2021)
Angular Grid (max. ang.)         AngularGrid ... 4 (Lebedev-302)
Angular grid pruning method      GridPruning ... 4 (adaptive)
Weight generation scheme         WeightScheme... Becke
Basis function cutoff            BFCut       ... 1.0000e-11
Integration weight cutoff        WCut        ... 1.0000e-14
Angular grids for H and He will be reduced by one unit
Partially contracted basis set               ... off
Rotationally invariant grid construction     ... off

Total number of grid points                  ...   199575
Total number of batches                      ...     3141
Average number of points per batch           ...       63
Average number of grid points per atom       ...     4339
Time for grid setup =    1.054 sec

--------------------
COSX GRID GENERATION
--------------------

GRIDX 1
-------
General Integration Accuracy     IntAcc      ... 3.816
Radial Grid Type                 RadialGrid  ... OptM3 with GC (2021)
Angular Grid (max. ang.)         AngularGrid ... 1 (Lebedev-50)
Angular grid pruning method      GridPruning ... 4 (adaptive)
Weight generation scheme         WeightScheme... Becke
Basis function cutoff            BFCut       ... 1.0000e-11
Integration weight cutoff        WCut        ... 1.0000e-14
Angular grids for H and He will be reduced by one unit
Partially contracted basis set               ... on
Rotationally invariant grid construction     ... off

Total number of grid points                  ...    25466
Total number of batches                      ...      424
Average number of points per batch           ...       60
Average number of grid points per atom       ...      554
UseSFitting                                  ... on

GRIDX 2
-------
General Integration Accuracy     IntAcc      ... 4.020
Radial Grid Type                 RadialGrid  ... OptM3 with GC (2021)
Angular Grid (max. ang.)         AngularGrid ... 2 (Lebedev-110)
Angular grid pruning method      GridPruning ... 4 (adaptive)
Weight generation scheme         WeightScheme... Becke
Basis function cutoff            BFCut       ... 1.0000e-11
Integration weight cutoff        WCut        ... 1.0000e-14
Angular grids for H and He will be reduced by one unit
Partially contracted basis set               ... on
Rotationally invariant grid construction     ... off

Total number of grid points                  ...    53462
Total number of batches                      ...      857
Average number of points per batch           ...       62
Average number of grid points per atom       ...     1162
UseSFitting                                  ... on

GRIDX 3
-------
General Integration Accuracy     IntAcc      ... 4.338
Radial Grid Type                 RadialGrid  ... OptM3 with GC (2021)
Angular Grid (max. ang.)         AngularGrid ... 3 (Lebedev-194)
Angular grid pruning method      GridPruning ... 4 (adaptive)
Weight generation scheme         WeightScheme... Becke
Basis function cutoff            BFCut       ... 1.0000e-11
Integration weight cutoff        WCut        ... 1.0000e-14
Angular grids for H and He will be reduced by one unit
Partially contracted basis set               ... on
Rotationally invariant grid construction     ... off

Total number of grid points                  ...   116756
Total number of batches                      ...     1850
Average number of points per batch           ...       63
Average number of grid points per atom       ...     2538
UseSFitting                                  ... on

Time for X-Grid setup             =    2.003 sec

 re-compute Schwartz prescreening matrix in partically contracted basis (1) ...done (   0.124 sec)
--------------
SCF ITERATIONS
--------------
ITER       Energy         Delta-E        Max-DP      RMS-DP      [F,P]     Damp
               ***  Starting incremental Fock matrix formation  ***
  0   -739.1841451527   0.000000000000 0.06483803  0.00079359  0.0869372 0.7000
  1   -739.4105092905  -0.226364137802 0.04776377  0.00058971  0.0458106 0.7000
                               ***Turning on DIIS***
  2   -739.5102993547  -0.099790064228 0.09330421  0.00110279  0.0194106 0.0000
  3   -739.6481392394  -0.137839884655 0.01882676  0.00032966  0.0249260 0.0000
  4   -739.6869239806  -0.038784741175 0.00894557  0.00011069  0.0065311 0.0000
  5   -739.6891155384  -0.002191557845 0.00118713  0.00003455  0.0015201 0.0000
  6   -739.6893001313  -0.000184592924 0.00134577  0.00002091  0.0007277 0.0000
               *** Restarting incremental Fock matrix formation ***
                                   *** Resetting DIIS ***
  7   -739.6896576848  -0.000357553427 0.00105671  0.00000989  0.0010895 0.0000
  8   -739.6896559337   0.000001751043 0.00036602  0.00000344  0.0013135 0.0000
  9   -739.6896635724  -0.000007638710 0.00021356  0.00000216  0.0004328 0.0000
 10   -739.6896645992  -0.000001026742 0.00006054  0.00000075  0.0000517 0.0000
 11   -739.6896646150  -0.000000015867 0.00003296  0.00000045  0.0000452 0.0000
 12   -739.6896646466  -0.000000031575 0.00001097  0.00000014  0.0000084 0.0000
 13   -739.6896646434   0.000000003262 0.00000543  0.00000007  0.0000070 0.0000
 14   -739.6896646604  -0.000000017073 0.00000308  0.00000004  0.0000011 0.0000
 15   -739.6896646740  -0.000000013571 0.00000231  0.00000002  0.0000030 0.0000
 16   -739.6896646776  -0.000000003605 0.00000080  0.00000001  0.0000014 0.0000
                 **** Energy Check signals convergence ****

               *****************************************************
               *                     SUCCESS                       *
               *           SCF CONVERGED AFTER  17 CYCLES          *
               *****************************************************

Old exchange energy                            =    -21.608870932 Eh
New exchange energy                            =    -21.608955937 Eh
Exchange energy change after final integration =     -0.000085005 Eh
Total energy after final integration           =   -739.689749682 Eh
Final COS-X integration done in                =     5.694 sec

----------------
TOTAL SCF ENERGY
----------------

Total Energy       :         -739.68974968 Eh          -20127.98138 eV

Components:
Nuclear Repulsion  :         1249.87173371 Eh           34010.73895 eV
Electronic Energy  :        -1989.56148340 Eh          -54138.72032 eV
One Electron Energy:        -3477.46905311 Eh          -94626.74367 eV
Two Electron Energy:         1487.90756971 Eh           40488.02334 eV
Max COSX asymmetry :            0.00000044 Eh               0.00001 eV

Virial components:
Potential Energy   :        -1473.97100557 Eh          -40108.79015 eV
Kinetic Energy     :          734.28125589 Eh           19980.80878 eV
Virial Ratio       :            2.00736570


DFT components:
N(Alpha)           :       71.000178956826 electrons
N(Beta)            :       70.000176385679 electrons
N(Total)           :      141.000355342506 electrons
E(X)               :      -85.623970764206 Eh       
E(C)               :       -5.414291735271 Eh       
E(XC)              :      -91.038262499477 Eh       
DFET-embed. en.    :        0.000000000000 Eh       

---------------
SCF CONVERGENCE
---------------

  Last Energy change         ...    5.5888e-10  Tolerance :   1.0000e-08
  Last MAX-Density change    ...    0.0000e+00  Tolerance :   1.0000e-07
  Last RMS-Density change    ...    0.0000e+00  Tolerance :   5.0000e-09
  Last DIIS Error            ...    1.9892e-07  Tolerance :   5.0000e-07

             **** THE GBW FILE WAS UPDATED (opt_cc-pVDZ.gbw) ****
             **** DENSITY opt_cc-pVDZ.scfp WAS UPDATED ****
             **** ENERGY FILE WAS UPDATED (opt_cc-pVDZ.en.tmp) ****
----------------------
UHF SPIN CONTAMINATION
----------------------

Warning: in a DFT calculation there is little theoretical justification to 
         calculate <S**2> as in Hartree-Fock theory. We will do it anyways
         but you should keep in mind that the values have only limited relevance

Expectation value of <S**2>     :     0.753917
Ideal value S*(S+1) for S=0.5   :     0.750000
Deviation                       :     0.003917

             **** THE GBW FILE WAS UPDATED (opt_cc-pVDZ.gbw) ****
             **** DENSITY opt_cc-pVDZ.scfp WAS UPDATED ****
----------------
ORBITAL ENERGIES
----------------
                 SPIN UP ORBITALS
  NO   OCC          E(Eh)            E(eV) 
   0   1.0000     -10.205506      -277.7059 
   1   1.0000     -10.195916      -277.4450 
   2   1.0000     -10.192391      -277.3491 
   3   1.0000     -10.187875      -277.2262 
   4   1.0000     -10.186984      -277.2019 
   5   1.0000     -10.186639      -277.1926 
   6   1.0000     -10.185657      -277.1658 
   7   1.0000     -10.185349      -277.1574 
   8   1.0000     -10.184341      -277.1300 
   9   1.0000     -10.183739      -277.1136 
  10   1.0000     -10.183576      -277.1092 
  11   1.0000     -10.182248      -277.0731 
  12   1.0000     -10.181582      -277.0549 
  13   1.0000     -10.181533      -277.0536 
  14   1.0000     -10.181166      -277.0436 
  15   1.0000     -10.180802      -277.0337 
  16   1.0000     -10.179147      -276.9887 
  17   1.0000     -10.178867      -276.9811 
  18   1.0000     -10.175841      -276.8987 
  19   1.0000      -0.863861       -23.5068 
  20   1.0000      -0.813308       -22.1312 
  21   1.0000      -0.804049       -21.8793 
  22   1.0000      -0.784789       -21.3552 
  23   1.0000      -0.776711       -21.1354 
  24   1.0000      -0.758524       -20.6405 
  25   1.0000      -0.732343       -19.9281 
  26   1.0000      -0.721468       -19.6321 
  27   1.0000      -0.704440       -19.1688 
  28   1.0000      -0.668036       -18.1782 
  29   1.0000      -0.637546       -17.3485 
  30   1.0000      -0.618013       -16.8170 
  31   1.0000      -0.608592       -16.5606 
  32   1.0000      -0.583030       -15.8651 
  33   1.0000      -0.576667       -15.6919 
  34   1.0000      -0.570712       -15.5299 
  35   1.0000      -0.559234       -15.2175 
  36   1.0000      -0.525422       -14.2975 
  37   1.0000      -0.493451       -13.4275 
  38   1.0000      -0.479961       -13.0604 
  39   1.0000      -0.470456       -12.8017 
  40   1.0000      -0.467810       -12.7298 
  41   1.0000      -0.459714       -12.5095 
  42   1.0000      -0.458539       -12.4775 
  43   1.0000      -0.426401       -11.6030 
  44   1.0000      -0.425793       -11.5864 
  45   1.0000      -0.422135       -11.4869 
  46   1.0000      -0.418741       -11.3945 
  47   1.0000      -0.418443       -11.3864 
  48   1.0000      -0.410936       -11.1821 
  49   1.0000      -0.399154       -10.8615 
  50   1.0000      -0.388615       -10.5748 
  51   1.0000      -0.380503       -10.3540 
  52   1.0000      -0.370858       -10.0916 
  53   1.0000      -0.365921        -9.9572 
  54   1.0000      -0.357939        -9.7400 
  55   1.0000      -0.353534        -9.6202 
  56   1.0000      -0.352433        -9.5902 
  57   1.0000      -0.337636        -9.1875 
  58   1.0000      -0.337102        -9.1730 
  59   1.0000      -0.328950        -8.9512 
  60   1.0000      -0.324597        -8.8327 
  61   1.0000      -0.324250        -8.8233 
  62   1.0000      -0.322582        -8.7779 
  63   1.0000      -0.322196        -8.7674 
  64   1.0000      -0.318717        -8.6727 
  65   1.0000      -0.314482        -8.5575 
  66   1.0000      -0.298601        -8.1253 
  67   1.0000      -0.270439        -7.3590 
  68   1.0000      -0.241014        -6.5583 
  69   1.0000      -0.222642        -6.0584 
  70   1.0000      -0.198485        -5.4010 
  71   0.0000      -0.030221        -0.8224 
  72   0.0000       0.002345         0.0638 
  73   0.0000       0.049383         1.3438 
  74   0.0000       0.061355         1.6696 
  75   0.0000       0.062343         1.6964 
  76   0.0000       0.074938         2.0392 
  77   0.0000       0.075219         2.0468 
  78   0.0000       0.076103         2.0709 
  79   0.0000       0.083476         2.2715 
  80   0.0000       0.083625         2.2756 
  81   0.0000       0.086629         2.3573 
  82   0.0000       0.094970         2.5843 
  83   0.0000       0.096165         2.6168 
  84   0.0000       0.096994         2.6393 
  85   0.0000       0.102242         2.7821 
  86   0.0000       0.111640         3.0379 
  87   0.0000       0.114295         3.1101 
  88   0.0000       0.127979         3.4825 
  89   0.0000       0.133755         3.6397 
  90   0.0000       0.143791         3.9127 
  91   0.0000       0.150966         4.1080 
  92   0.0000       0.151269         4.1162 
  93   0.0000       0.158251         4.3062 
  94   0.0000       0.160369         4.3639 
  95   0.0000       0.160719         4.3734 
  96   0.0000       0.167160         4.5487 
  97   0.0000       0.174227         4.7410 
  98   0.0000       0.176375         4.7994 
  99   0.0000       0.182317         4.9611 
 100   0.0000       0.183304         4.9880 
 101   0.0000       0.190785         5.1915 
 102   0.0000       0.199516         5.4291 
 103   0.0000       0.201791         5.4910 
 104   0.0000       0.210912         5.7392 
 105   0.0000       0.213681         5.8146 
 106   0.0000       0.217976         5.9314 
 107   0.0000       0.225229         6.1288 
 108   0.0000       0.232901         6.3376 
 109   0.0000       0.244909         6.6643 
 110   0.0000       0.253850         6.9076 
 111   0.0000       0.272066         7.4033 
 112   0.0000       0.275718         7.5027 
 113   0.0000       0.289586         7.8800 
 114   0.0000       0.299395         8.1470 
 115   0.0000       0.330451         8.9920 
 116   0.0000       0.338686         9.2161 
 117   0.0000       0.354561         9.6481 
 118   0.0000       0.359985         9.7957 
 119   0.0000       0.375170        10.2089 
 120   0.0000       0.398547        10.8450 
 121   0.0000       0.407350        11.0845 
 122   0.0000       0.411904        11.2085 
 123   0.0000       0.413633        11.2555 
 124   0.0000       0.417808        11.3691 
 125   0.0000       0.420375        11.4390 
 126   0.0000       0.425276        11.5724 
 127   0.0000       0.427685        11.6379 
 128   0.0000       0.439980        11.9725 
 129   0.0000       0.442406        12.0385 
 130   0.0000       0.462549        12.5866 
 131   0.0000       0.463054        12.6003 
 132   0.0000       0.478753        13.0275 
 133   0.0000       0.484981        13.1970 
 134   0.0000       0.487881        13.2759 
 135   0.0000       0.493747        13.4355 
 136   0.0000       0.497801        13.5459 
 137   0.0000       0.498233        13.5576 
 138   0.0000       0.504742        13.7347 
 139   0.0000       0.520171        14.1546 
 140   0.0000       0.522710        14.2237 
 141   0.0000       0.523946        14.2573 
 142   0.0000       0.532268        14.4837 
 143   0.0000       0.538121        14.6430 
 144   0.0000       0.540272        14.7016 
 145   0.0000       0.545524        14.8445 
 146   0.0000       0.563338        15.3292 
 147   0.0000       0.568731        15.4759 
 148   0.0000       0.586942        15.9715 
 149   0.0000       0.591184        16.0869 
 150   0.0000       0.605220        16.4689 
 151   0.0000       0.607232        16.5236 
 152   0.0000       0.611128        16.6296 
 153   0.0000       0.618728        16.8365 
 154   0.0000       0.621938        16.9238 
 155   0.0000       0.630344        17.1525 
 156   0.0000       0.630726        17.1629 
 157   0.0000       0.633602        17.2412 
 158   0.0000       0.636543        17.3212 
 159   0.0000       0.641696        17.4614 
 160   0.0000       0.643156        17.5012 
 161   0.0000       0.648451        17.6452 
 162   0.0000       0.650675        17.7058 
 163   0.0000       0.653336        17.7782 
 164   0.0000       0.657312        17.8864 
 165   0.0000       0.660335        17.9686 
 166   0.0000       0.661079        17.9889 
 167   0.0000       0.661153        17.9909 
 168   0.0000       0.664667        18.0865 
 169   0.0000       0.666605        18.1392 
 170   0.0000       0.670547        18.2465 
 171   0.0000       0.676539        18.4096 
 172   0.0000       0.684590        18.6286 
 173   0.0000       0.686944        18.6927 
 174   0.0000       0.688347        18.7309 
 175   0.0000       0.692795        18.8519 
 176   0.0000       0.693749        18.8779 
 177   0.0000       0.699344        19.0301 
 178   0.0000       0.699892        19.0450 
 179   0.0000       0.704073        19.1588 
 180   0.0000       0.705868        19.2076 
 181   0.0000       0.711421        19.3587 
 182   0.0000       0.714360        19.4387 
 183   0.0000       0.722630        19.6638 
 184   0.0000       0.727179        19.7876 
 185   0.0000       0.728269        19.8172 
 186   0.0000       0.737072        20.0567 
 187   0.0000       0.742106        20.1937 
 188   0.0000       0.759127        20.6569 
 189   0.0000       0.764616        20.8062 
 190   0.0000       0.771016        20.9804 
 191   0.0000       0.778667        21.1886 
 192   0.0000       0.803478        21.8638 
 193   0.0000       0.812781        22.1169 
 194   0.0000       0.825877        22.4733 
 195   0.0000       0.838282        22.8108 
 196   0.0000       0.839614        22.8471 
 197   0.0000       0.856130        23.2965 
 198   0.0000       0.862686        23.4749 
 199   0.0000       0.873940        23.7811 
 200   0.0000       0.891332        24.2544 
 201   0.0000       0.904249        24.6059 
 202   0.0000       0.926942        25.2234 
 203   0.0000       0.946302        25.7502 
 204   0.0000       0.977703        26.6046 
 205   0.0000       0.980313        26.6757 
 206   0.0000       0.995325        27.0842 
 207   0.0000       0.996605        27.1190 
 208   0.0000       1.008638        27.4464 
 209   0.0000       1.008898        27.4535 
 210   0.0000       1.029818        28.0228 
 211   0.0000       1.033817        28.1316 
 212   0.0000       1.038872        28.2692 
 213   0.0000       1.047932        28.5157 
 214   0.0000       1.056297        28.7433 
 215   0.0000       1.067576        29.0502 
 216   0.0000       1.071570        29.1589 
 217   0.0000       1.086323        29.5604 
 218   0.0000       1.092808        29.7368 
 219   0.0000       1.118929        30.4476 
 220   0.0000       1.132801        30.8251 
 221   0.0000       1.153067        31.3765 
 222   0.0000       1.176802        32.0224 
 223   0.0000       1.186784        32.2940 
 224   0.0000       1.199108        32.6294 
 225   0.0000       1.204518        32.7766 
 226   0.0000       1.205683        32.8083 
 227   0.0000       1.209081        32.9008 
 228   0.0000       1.215408        33.0729 
 229   0.0000       1.216955        33.1150 
 230   0.0000       1.217949        33.1421 
 231   0.0000       1.224484        33.3199 
 232   0.0000       1.227111        33.3914 
 233   0.0000       1.232244        33.5311 
 234   0.0000       1.242719        33.8161 
 235   0.0000       1.265283        34.4301 
 236   0.0000       1.286872        35.0176 
 237   0.0000       1.310458        35.6594 
 238   0.0000       1.320234        35.9254 
 239   0.0000       1.323711        36.0200 
 240   0.0000       1.333535        36.2873 
 241   0.0000       1.338058        36.4104 
 242   0.0000       1.343576        36.5606 
 243   0.0000       1.350505        36.7491 
 244   0.0000       1.361118        37.0379 
 245   0.0000       1.378628        37.5144 
 246   0.0000       1.412112        38.4255 
 247   0.0000       1.412797        38.4442 
 248   0.0000       1.425084        38.7785 
 249   0.0000       1.426344        38.8128 
 250   0.0000       1.445187        39.3255 
 251   0.0000       1.455649        39.6102 
 252   0.0000       1.462125        39.7864 
 253   0.0000       1.472296        40.0632 
 254   0.0000       1.473414        40.0936 
 255   0.0000       1.474323        40.1184 
 256   0.0000       1.486642        40.4536 
 257   0.0000       1.498745        40.7829 
 258   0.0000       1.508877        41.0586 
 259   0.0000       1.517353        41.2893 
 260   0.0000       1.526051        41.5259 
 261   0.0000       1.548900        42.1477 
 262   0.0000       1.552315        42.2406 
 263   0.0000       1.558923        42.4204 
 264   0.0000       1.585469        43.1428 
 265   0.0000       1.593755        43.3683 
 266   0.0000       1.595720        43.4218 
 267   0.0000       1.597682        43.4751 
 268   0.0000       1.607772        43.7497 
 269   0.0000       1.613399        43.9028 
 270   0.0000       1.628387        44.3107 
 271   0.0000       1.629293        44.3353 
 272   0.0000       1.629714        44.3468 
 273   0.0000       1.631224        44.3879 
 274   0.0000       1.638985        44.5991 
 275   0.0000       1.641280        44.6615 
 276   0.0000       1.646069        44.7918 
 277   0.0000       1.648055        44.8459 
 278   0.0000       1.651049        44.9273 
 279   0.0000       1.658308        45.1249 
 280   0.0000       1.665710        45.3263 
 281   0.0000       1.673937        45.5501 
 282   0.0000       1.681927        45.7676 
 283   0.0000       1.682346        45.7790 
 284   0.0000       1.689956        45.9860 
 285   0.0000       1.691490        46.0278 
 286   0.0000       1.695416        46.1346 
 287   0.0000       1.701221        46.2926 
 288   0.0000       1.705599        46.4117 
 289   0.0000       1.708249        46.4838 
 290   0.0000       1.709050        46.5056 
 291   0.0000       1.711019        46.5592 
 292   0.0000       1.712488        46.5992 
 293   0.0000       1.717888        46.7461 
 294   0.0000       1.722415        46.8693 
 295   0.0000       1.733769        47.1782 
 296   0.0000       1.739852        47.3438 
 297   0.0000       1.750106        47.6228 
 298   0.0000       1.754504        47.7425 
 299   0.0000       1.760710        47.9114 
 300   0.0000       1.766417        48.0667 
 301   0.0000       1.767758        48.1031 
 302   0.0000       1.776385        48.3379 
 303   0.0000       1.781690        48.4822 
 304   0.0000       1.788026        48.6547 
 305   0.0000       1.792705        48.7820 
 306   0.0000       1.794342        48.8265 
 307   0.0000       1.798853        48.9493 
 308   0.0000       1.804397        49.1001 
 309   0.0000       1.809822        49.2478 
 310   0.0000       1.823460        49.6189 
 311   0.0000       1.833492        49.8919 
 312   0.0000       1.836383        49.9705 
 313   0.0000       1.854897        50.4743 
 314   0.0000       1.866417        50.7878 
 315   0.0000       1.871053        50.9139 
 316   0.0000       1.879038        51.1312 
 317   0.0000       1.899316        51.6830 
 318   0.0000       1.903069        51.7851 
 319   0.0000       1.911630        52.0181 
 320   0.0000       1.918878        52.2153 
 321   0.0000       1.926065        52.4109 
 322   0.0000       1.945206        52.9318 
 323   0.0000       1.955794        53.2199 
 324   0.0000       1.963537        53.4306 
 325   0.0000       1.967354        53.5344 
 326   0.0000       1.981019        53.9063 
 327   0.0000       1.985106        54.0175 
 328   0.0000       1.993050        54.2336 
 329   0.0000       2.010859        54.7183 
[...]
      pz      :     0.040334  p :     0.087208
      px      :     0.024567
      py      :     0.022307
 42 C s       :     2.908245  s :     2.908245
      pz      :     0.982286  p :     3.049417
      px      :     1.085364
      py      :     0.981766
      dz2     :     0.012575  d :     0.099643
      dxz     :     0.024756
      dyz     :     0.000072
      dx2y2   :     0.037609
      dxy     :     0.024631
 43 H s       :     0.884211  s :     0.884211
      pz      :     0.020172  p :     0.094425
      px      :     0.054575
      py      :     0.019678
 44 H s       :     0.896297  s :     0.896297
      pz      :     0.015521  p :     0.076393
      px      :     0.026824
      py      :     0.034049
 45 H s       :     0.896567  s :     0.896567
      pz      :     0.017784  p :     0.079593
      px      :     0.047210
      py      :     0.014598

SPIN
  0 C s       :     0.000000  s :     0.000000
      pz      :     0.000001  p :     0.000002
      px      :     0.000000
      py      :     0.000001
      dz2     :     0.000000  d :    -0.000000
      dxz     :    -0.000000
      dyz     :    -0.000000
      dx2y2   :     0.000000
      dxy     :     0.000000
  1 C s       :    -0.000000  s :    -0.000000
      pz      :     0.000001  p :     0.000001
      px      :     0.000000
      py      :    -0.000000
      dz2     :    -0.000000  d :    -0.000000
      dxz     :    -0.000000
      dyz     :    -0.000000
      dx2y2   :     0.000000
      dxy     :    -0.000000
  2 C s       :     0.000000  s :     0.000000
      pz      :    -0.000003  p :    -0.000004
      px      :    -0.000000
      py      :    -0.000000
      dz2     :     0.000000  d :     0.000000
      dxz     :     0.000000
      dyz     :     0.000000
      dx2y2   :     0.000000
      dxy     :     0.000000
  3 C s       :     0.000001  s :     0.000001
      pz      :     0.000001  p :     0.000005
      px      :     0.000001
      py      :     0.000003
      dz2     :     0.000000  d :     0.000001
      dxz     :    -0.000000
      dyz     :    -0.000000
      dx2y2   :     0.000001
      dxy     :     0.000000
  4 C s       :     0.000004  s :     0.000004
      pz      :    -0.000002  p :     0.000011
      px      :     0.000002
      py      :     0.000011
      dz2     :     0.000001  d :     0.000005
      dxz     :     0.000000
      dyz     :     0.000000
      dx2y2   :     0.000003
      dxy     :     0.000001
  5 C s       :     0.000018  s :     0.000018
      pz      :     0.000008  p :     0.000063
      px      :     0.000012
      py      :     0.000043
      dz2     :     0.000002  d :     0.000014
      dxz     :    -0.000000
      dyz     :     0.000000
      dx2y2   :     0.000010
      dxy     :     0.000002
  6 C s       :     0.000002  s :     0.000002
      pz      :    -0.000004  p :    -0.000003
      px      :    -0.000002
      py      :     0.000002
      dz2     :     0.000000  d :     0.000002
      dxz     :     0.000000
      dyz     :     0.000000
      dx2y2   :     0.000001
      dxy     :     0.000001
  7 H s       :     0.000002  s :     0.000002
      pz      :     0.000000  p :     0.000000
      px      :     0.000000
      py      :     0.000000
  8 H s       :     0.000001  s :     0.000001
      pz      :    -0.000000  p :     0.000001
      px      :    -0.000000
      py      :     0.000001
  9 C s       :     0.000000  s :     0.000000
      pz      :     0.000000  p :     0.000000
      px      :     0.000000
      py      :     0.000000
      dz2     :    -0.000000  d :    -0.000000
      dxz     :    -0.000000
      dyz     :    -0.000000
      dx2y2   :    -0.000000
      dxy     :    -0.000000
 10 H s       :    -0.000000  s :    -0.000000
      pz      :     0.000000  p :     0.000000
      px      :     0.000000
      py      :    -0.000000
 11 H s       :    -0.000000  s :    -0.000000
      pz      :     0.000000  p :     0.000000
      px      :     0.000000
      py      :    -0.000000
 12 C s       :     0.000000  s :     0.000000
      pz      :     0.000000  p :     0.000000
      px      :     0.000000
      py      :     0.000000
      dz2     :     0.000000  d :     0.000000
      dxz     :    -0.000000
      dyz     :     0.000000
      dx2y2   :     0.000000
      dxy     :     0.000000
 13 H s       :     0.000000  s :     0.000000
      pz      :     0.000000  p :     0.000000
      px      :     0.000000
      py      :     0.000000
 14 H s       :     0.000000  s :     0.000000
      pz      :     0.000000  p :     0.000000
      px      :     0.000000
      py      :     0.000000
 15 C s       :     0.000000  s :     0.000000
      pz      :    -0.000000  p :     0.000000
      px      :     0.000000
      py      :     0.000000
      dz2     :    -0.000000  d :    -0.000000
      dxz     :    -0.000000
      dyz     :    -0.000000
      dx2y2   :     0.000000
      dxy     :     0.000000
 16 H s       :    -0.000000  s :    -0.000000
      pz      :     0.000000  p :     0.000000
      px      :     0.000000
      py      :     0.000000
 17 H s       :    -0.000000  s :    -0.000000
      pz      :     0.000000  p :     0.000000
      px      :     0.000000
      py      :     0.000000
 18 C s       :    -0.000000  s :    -0.000000
      pz      :    -0.000000  p :    -0.000000
      px      :    -0.000000
      py      :    -0.000000
      dz2     :     0.000000  d :     0.000000
      dxz     :    -0.000000
      dyz     :    -0.000000
      dx2y2   :     0.000000
      dxy     :     0.000000
 19 H s       :     0.000000  s :     0.000000
      pz      :     0.000000  p :     0.000000
      px      :     0.000000
      py      :    -0.000000
 20 H s       :     0.000000  s :     0.000000
      pz      :     0.000000  p :     0.000000
      px      :     0.000000
      py      :    -0.000000
 21 C s       :     0.000038  s :     0.000038
      pz      :     0.000007  p :     0.000160
      px      :     0.000048
      py      :     0.000105
      dz2     :     0.000008  d :     0.000048
      dxz     :    -0.000001
      dyz     :     0.000001
      dx2y2   :     0.000034
      dxy     :     0.000008
 22 H s       :    -0.000004  s :    -0.000004
      pz      :     0.000000  p :     0.000004
      px      :     0.000001
      py      :     0.000003
 23 H s       :    -0.000004  s :    -0.000004
      pz      :     0.000000  p :     0.000004
      px      :     0.000001
      py      :     0.000003
 24 C s       :     0.000243  s :     0.000243
      pz      :     0.000042  p :     0.000883
      px      :     0.000251
      py      :     0.000589
      dz2     :     0.000016  d :     0.000069
      dxz     :    -0.000009
      dyz     :     0.000001
      dx2y2   :     0.000047
      dxy     :     0.000014
 25 H s       :    -0.000022  s :    -0.000022
      pz      :     0.000002  p :     0.000023
      px      :     0.000009
      py      :     0.000011
 26 H s       :    -0.000022  s :    -0.000022
      pz      :     0.000002  p :     0.000023
      px      :     0.000009
      py      :     0.000011
 27 C s       :     0.000213  s :     0.000213
      pz      :     0.000022  p :     0.000716
      px      :     0.000003
      py      :     0.000691
      dz2     :     0.000077  d :     0.000568
      dxz     :    -0.000001
      dyz     :     0.000005
      dx2y2   :     0.000254
      dxy     :     0.000233
 28 H s       :     0.000041  s :     0.000041
      pz      :     0.000001  p :    -0.000011
      px      :    -0.000001
      py      :    -0.000012
 29 H s       :     0.000042  s :     0.000042
      pz      :     0.000001  p :    -0.000011
      px      :    -0.000001
      py      :    -0.000012
 30 C s       :     0.000539  s :     0.000539
      pz      :     0.000218  p :     0.005947
      px      :     0.002231
      py      :     0.003499
      dz2     :     0.000076  d :     0.000760
      dxz     :    -0.000031
      dyz     :     0.000021
      dx2y2   :     0.000759
      dxy     :    -0.000065
 31 H s       :    -0.000175  s :    -0.000175
      pz      :     0.000036  p :     0.000258
      px      :     0.000013
      py      :     0.000210
 32 H s       :    -0.000176  s :    -0.000176
      pz      :     0.000044  p :     0.000258
      px      :     0.000014
      py      :     0.000201
 33 C s       :     0.013037  s :     0.013037
      pz      :     0.001968  p :     0.037378
      px      :     0.006536
      py      :     0.028874
      dz2     :     0.000207  d :     0.000045
      dxz     :    -0.000365
      dyz     :    -0.000036
      dx2y2   :    -0.000431
      dxy     :     0.000671
 34 H s       :    -0.000141  s :    -0.000141
      pz      :     0.000193  p :     0.001243
      px      :     0.000608
      py      :     0.000441
 35 H s       :    -0.000144  s :    -0.000144
      pz      :     0.000241  p :     0.001243
      px      :     0.000591
      py      :     0.000411
 36 C s       :    -0.004821  s :    -0.004821
      pz      :    -0.003276  p :    -0.021820
      px      :    -0.008277
      py      :    -0.010268
      dz2     :     0.002855  d :     0.037145
      dxz     :     0.000793
      dyz     :     0.000297
      dx2y2   :     0.023580
      dxy     :     0.009620
 37 H s       :     0.010980  s :     0.010980
      pz      :    -0.000234  p :    -0.000766
      px      :     0.000061
      py      :    -0.000593
 38 H s       :     0.010891  s :     0.010891
      pz      :    -0.000238  p :    -0.000765
      px      :     0.000055
      py      :    -0.000581
 39 C s       :     0.030224  s :     0.030224
      pz      :     0.017604  p :     0.872848
      px      :     0.525375
      py      :     0.329870
      dz2     :    -0.001823  d :    -0.004950
      dxz     :    -0.000886
      dyz     :    -0.000654
      dx2y2   :     0.000408
      dxy     :    -0.001996
 40 H s       :    -0.022224  s :    -0.022224
      pz      :     0.002470  p :     0.026142
      px      :     0.013955
      py      :     0.009716
 41 H s       :    -0.022222  s :    -0.022222
      pz      :     0.002544  p :     0.026139
      px      :     0.013992
      py      :     0.009603
 42 C s       :    -0.000000  s :    -0.000000
      pz      :    -0.000002  p :    -0.000003
      px      :    -0.000000
      py      :    -0.000001
      dz2     :     0.000000  d :     0.000000
      dxz     :     0.000000
      dyz     :    -0.000000
      dx2y2   :     0.000000
      dxy     :     0.000000
 43 H s       :     0.000000  s :     0.000000
      pz      :    -0.000000  p :    -0.000000
      px      :    -0.000000
      py      :    -0.000000
 44 H s       :     0.000000  s :     0.000000
      pz      :     0.000000  p :     0.000000
      px      :     0.000000
      py      :    -0.000000
 45 H s       :    -0.000000  s :    -0.000000
      pz      :     0.000000  p :     0.000000
      px      :    -0.000000
      py      :    -0.000000


                      *****************************
                      * MAYER POPULATION ANALYSIS *
                      *****************************

  NA   - Mulliken gross atomic population
  ZA   - Total nuclear charge
  QA   - Mulliken gross atomic charge
  VA   - Mayer's total valence
  BVA  - Mayer's bonded valence
  FA   - Mayer's free valence

  ATOM       NA         ZA         QA         VA         BVA        FA
  0 C      5.3792     6.0000     0.6208     2.9132     2.9132     0.0000
  1 C      5.9708     6.0000     0.0292     3.9582     3.9582     0.0000
  2 C      6.0260     6.0000    -0.0260     4.0859     4.0859     0.0000
  3 C      5.9697     6.0000     0.0303     3.8978     3.8978     0.0000
  4 C      6.0602     6.0000    -0.0602     3.8494     3.8494     0.0000
  5 C      6.0733     6.0000    -0.0733     4.1619     4.1619     0.0000
  6 C      5.9764     6.0000     0.0236     3.9747     3.9747     0.0000
  7 H      1.0554     1.0000    -0.0554     1.0010     1.0010     0.0000
  8 H      1.0444     1.0000    -0.0444     0.9843     0.9843     0.0000
  9 C      5.9661     6.0000     0.0339     4.0148     4.0148     0.0000
 10 H      0.9759     1.0000     0.0241     0.9654     0.9654     0.0000
 11 H      0.9748     1.0000     0.0252     0.9649     0.9649     0.0000
 12 C      6.0390     6.0000    -0.0390     4.1180     4.1180     0.0000
 13 H      0.9837     1.0000     0.0163     0.9641     0.9641     0.0000
 14 H      0.9828     1.0000     0.0172     0.9635     0.9635    -0.0000
 15 C      6.0248     6.0000    -0.0248     4.1160     4.1160     0.0000
 16 H      0.9952     1.0000     0.0048     0.9671     0.9671    -0.0000
 17 H      0.9952     1.0000     0.0048     0.9672     0.9672    -0.0000
 18 C      5.9982     6.0000     0.0018     4.0186     4.0186    -0.0000
 19 H      0.9828     1.0000     0.0172     0.9775     0.9775    -0.0000
 20 H      0.9827     1.0000     0.0173     0.9774     0.9774     0.0000
 21 C      5.9518     6.0000     0.0482     4.0164     4.0164     0.0000
 22 H      0.9695     1.0000     0.0305     0.9695     0.9695     0.0000
 23 H      0.9696     1.0000     0.0304     0.9695     0.9695     0.0000
 24 C      6.0334     6.0000    -0.0334     4.1144     4.1144     0.0000
 25 H      0.9862     1.0000     0.0138     0.9635     0.9635     0.0000
 26 H      0.9863     1.0000     0.0137     0.9636     0.9636     0.0000
 27 C      5.9862     6.0000     0.0138     4.0763     4.0763     0.0000
 28 H      0.9969     1.0000     0.0031     0.9697     0.9697     0.0000
 29 H      0.9969     1.0000     0.0031     0.9697     0.9697     0.0000
 30 C      6.0053     6.0000    -0.0053     4.0841     4.0840     0.0001
 31 H      0.9990     1.0000     0.0010     0.9698     0.9698     0.0000
 32 H      0.9990     1.0000     0.0010     0.9698     0.9698     0.0000
 33 C      5.9997     6.0000     0.0003     4.0592     4.0565     0.0027
 34 H      0.9966     1.0000     0.0034     0.9709     0.9709     0.0000
 35 H      0.9966     1.0000     0.0034     0.9709     0.9709     0.0000
 36 C      6.0008     6.0000    -0.0008     4.1003     4.0978     0.0025
 37 H      0.9899     1.0000     0.0101     0.9656     0.9654     0.0002
 38 H      0.9899     1.0000     0.0101     0.9656     0.9654     0.0002
 39 C      6.0681     6.0000    -0.0681     3.9788     3.1230     0.8558
 40 H      0.9754     1.0000     0.0246     0.9760     0.9737     0.0023
 41 H      0.9754     1.0000     0.0246     0.9760     0.9737     0.0023
 42 C      6.5953     6.0000    -0.5953     3.4052     3.4052     0.0000
 43 H      1.0319     1.0000    -0.0319     1.0298     1.0298     0.0000
 44 H      0.9876     1.0000     0.0124     0.9734     0.9734    -0.0000
 45 H      1.0563     1.0000    -0.0563     0.9793     0.9793     0.0000

  Mayer bond orders larger than 0.100000
B(  0-C ,  4-C ) :   0.9081 B(  0-C , 42-C ) :   2.1398 B(  1-C ,  2-C ) :   1.4217 
B(  1-C ,  6-C ) :   1.4310 B(  1-C , 45-H ) :   0.9332 B(  2-C ,  3-C ) :   1.4263 
B(  2-C ,  9-C ) :   1.0448 B(  3-C ,  4-C ) :   1.3924 B(  3-C ,  7-H ) :   0.9277 
B(  4-C ,  5-C ) :   1.4094 B(  5-C ,  6-C ) :   1.4414 B(  5-C , 21-C ) :   1.0888 
B(  6-C ,  8-H ) :   0.9184 B(  9-C , 10-H ) :   0.9145 B(  9-C , 11-H ) :   0.9138 
B(  9-C , 12-C ) :   1.1039 B( 12-C , 13-H ) :   0.9312 B( 12-C , 14-H ) :   0.9302 
B( 12-C , 15-C ) :   1.0751 B( 15-C , 16-H ) :   0.9414 B( 15-C , 17-H ) :   0.9413 
B( 15-C , 18-C ) :   1.1057 B( 18-C , 19-H ) :   0.9665 B( 18-C , 20-H ) :   0.9666 
B( 18-C , 44-H ) :   0.9621 B( 21-C , 22-H ) :   0.8985 B( 21-C , 23-H ) :   0.8987 
B( 21-C , 24-C ) :   1.0999 B( 24-C , 25-H ) :   0.9274 B( 24-C , 26-H ) :   0.9275 
B( 24-C , 27-C ) :   1.0780 B( 27-C , 28-H ) :   0.9340 B( 27-C , 29-H ) :   0.9340 
B( 27-C , 30-C ) :   1.0777 B( 30-C , 31-H ) :   0.9358 B( 30-C , 32-H ) :   0.9358 
B( 30-C , 33-C ) :   1.0780 B( 33-C , 34-H ) :   0.9401 B( 33-C , 35-H ) :   0.9401 
B( 33-C , 36-C ) :   1.0485 B( 36-C , 37-H ) :   0.9358 B( 36-C , 38-H ) :   0.9359 
B( 36-C , 39-C ) :   1.1365 B( 39-C , 40-H ) :   0.9649 B( 39-C , 41-H ) :   0.9648 
B( 42-C , 43-H ) :   1.1171 

-------
TIMINGS
-------

Total SCF time: 0 days 0 hours 0 min 42 sec 

Total time                  ....      42.048 sec
Sum of individual times     ....      39.216 sec  ( 93.3%)

Fock matrix formation       ....      34.368 sec  ( 81.7%)
  Split-RI-J                ....       2.686 sec  (  7.8% of F)
  Chain of spheres X        ....      21.705 sec  ( 63.2% of F)
  XC integration            ....       7.686 sec  ( 22.4% of F)
    Basis function eval.    ....       0.677 sec  (  8.8% of XC)
    Density eval.           ....       0.748 sec  (  9.7% of XC)
    XC-Functional eval.     ....       0.174 sec  (  2.3% of XC)
    XC-Potential eval.      ....       0.427 sec  (  5.6% of XC)
Diagonalization             ....       0.670 sec  (  1.6%)
Density matrix formation    ....       0.103 sec  (  0.2%)
Population analysis         ....       0.502 sec  (  1.2%)
Initial guess               ....       0.133 sec  (  0.3%)
Orbital Transformation      ....       0.000 sec  (  0.0%)
Orbital Orthonormalization  ....       0.102 sec  (  0.2%)
DIIS solution               ....       0.381 sec  (  0.9%)
Grid generation             ....       3.060 sec  (  7.3%)

Maximum memory used throughout the entire SCF-calculation: 102.4 MB

-------------------------   --------------------
FINAL SINGLE POINT ENERGY      -739.689749861234
-------------------------   --------------------

                                *** OPTIMIZATION RUN DONE ***

                            ***************************************
                            *     ORCA property calculations      *
                            ***************************************

                                    ---------------------
                                    Active property flags
                                    ---------------------
   (+) Dipole Moment


------------------------------------------------------------------------------
                       ORCA ELECTRIC PROPERTIES CALCULATION
------------------------------------------------------------------------------

Dipole Moment Calculation                       ... on
Quadrupole Moment Calculation                   ... off
Polarizability Calculation                      ... off
GBWName                                         ... opt_cc-pVDZ.gbw
Electron density                                ... opt_cc-pVDZ.scfp
The origin for moment calculation is the CENTER OF MASS  = ( 3.770886,  2.681628 -0.265510)

-------------
DIPOLE MOMENT
-------------
                                X             Y             Z
Electronic contribution:      4.33796      -7.76022       0.41834
Nuclear contribution   :     -4.60761       7.61668      -0.41887
                        -----------------------------------------
Total Dipole Moment    :     -0.26965      -0.14354      -0.00053
                        -----------------------------------------
Magnitude (a.u.)       :      0.30548
Magnitude (Debye)      :      0.77646



--------------------
Rotational spectrum 
--------------------
 
Rotational constants in cm-1:     0.036146     0.002970     0.002760 
Rotational constants in MHz :  1083.615941    89.033687    82.745820 

 Dipole components along the rotational axes: 
x,y,z [a.u.] :    -0.190056    -0.239146     0.001844 
x,y,z [Debye]:    -0.483085    -0.607860     0.004688 

 

Timings for individual modules:

Sum of individual times         ...      154.503 sec (=   2.575 min)
GTO integral calculation        ...        6.428 sec (=   0.107 min)   4.2 %
SCF iterations                  ...      130.827 sec (=   2.180 min)  84.7 %
SCF Gradient evaluation         ...       16.230 sec (=   0.271 min)  10.5 %
Geometry relaxation             ...        1.018 sec (=   0.017 min)   0.7 %
                             ****ORCA TERMINATED NORMALLY****
TOTAL RUN TIME: 0 days 0 hours 2 minutes 38 seconds 760 msec
