
                                 *****************
                                 * O   R   C   A *
                                 *****************

                                            #,                                       
                                            ###                                      
                                            ####                                     
                                            #####                                    
                                            ######                                   
                                           ########,                                 
                                     ,,################,,,,,                         
                               ,,#################################,,                 
                          ,,##########################################,,             
                       ,#########################################, ''#####,          
                    ,#############################################,,   '####,        
                  ,##################################################,,,,####,       
                ,###########''''           ''''###############################       
              ,#####''   ,,,,##########,,,,          '''####'''          '####       
            ,##' ,,,,###########################,,,                        '##       
           ' ,,###''''                  '''############,,,                           
         ,,##''                                '''############,,,,        ,,,,,,###''
      ,#''                                            '''#######################'''  
     '                                                          ''''####''''         
             ,#######,   #######,   ,#######,      ##                                
            ,#'     '#,  ##    ##  ,#'     '#,    #''#        ######   ,####,        
            ##       ##  ##   ,#'  ##            #'  '#       #        #'  '#        
            ##       ##  #######   ##           ,######,      #####,   #    #        
            '#,     ,#'  ##    ##  '#,     ,#' ,#      #,         ##   #,  ,#        
             '#######'   ##     ##  '#######'  #'      '#     #####' # '####'        



                  #######################################################
                  #                        -***-                        #
                  #          Department of theory and spectroscopy      #
                  #    Directorship and core code : Frank Neese         #
                  #        Max Planck Institute fuer Kohlenforschung    #
                  #                Kaiser Wilhelm Platz 1               #
                  #                 D-45470 Muelheim/Ruhr               #
                  #                      Germany                        #
                  #                                                     #
                  #                  All rights reserved                #
                  #                        -***-                        #
                  #######################################################


                         Program Version 5.0.4 -  RELEASE  -


 With contributions from (in alphabetic order):
   Daniel Aravena         : Magnetic Suceptibility
   Michael Atanasov       : Ab Initio Ligand Field Theory (pilot matlab implementation)
   Alexander A. Auer      : GIAO ZORA, VPT2 properties, NMR spectrum
   Ute Becker             : Parallelization
   Giovanni Bistoni       : ED, misc. LED, open-shell LED, HFLD
   Martin Brehm           : Molecular dynamics
   Dmytro Bykov           : SCF Hessian
   Vijay G. Chilkuri      : MRCI spin determinant printing, contributions to CSF-ICE
   Dipayan Datta          : RHF DLPNO-CCSD density
   Achintya Kumar Dutta   : EOM-CC, STEOM-CC
   Dmitry Ganyushin       : Spin-Orbit,Spin-Spin,Magnetic field MRCI
   Miquel Garcia          : C-PCM and meta-GGA Hessian, CC/C-PCM, Gaussian charge scheme
   Yang Guo               : DLPNO-NEVPT2, F12-NEVPT2, CIM, IAO-localization
   Andreas Hansen         : Spin unrestricted coupled pair/coupled cluster methods
   Benjamin Helmich-Paris : MC-RPA, TRAH-SCF, COSX integrals
   Lee Huntington         : MR-EOM, pCC
   Robert Izsak           : Overlap fitted RIJCOSX, COSX-SCS-MP3, EOM
   Marcus Kettner         : VPT2
   Christian Kollmar      : KDIIS, OOCD, Brueckner-CCSD(T), CCSD density, CASPT2, CASPT2-K
   Simone Kossmann        : Meta GGA functionals, TD-DFT gradient, OOMP2, MP2 Hessian
   Martin Krupicka        : Initial AUTO-CI
   Lucas Lang             : DCDCAS
   Marvin Lechner         : AUTO-CI (C++ implementation), FIC-MRCC
   Dagmar Lenk            : GEPOL surface, SMD
   Dimitrios Liakos       : Extrapolation schemes; Compound Job, initial MDCI parallelization
   Dimitrios Manganas     : Further ROCIS development; embedding schemes
   Dimitrios Pantazis     : SARC Basis sets
   Anastasios Papadopoulos: AUTO-CI, single reference methods and gradients
   Taras Petrenko         : DFT Hessian,TD-DFT gradient, ASA, ECA, R-Raman, ABS, FL, XAS/XES, NRVS
   Peter Pinski           : DLPNO-MP2, DLPNO-MP2 Gradient
   Christoph Reimann      : Effective Core Potentials
   Marius Retegan         : Local ZFS, SOC
   Christoph Riplinger    : Optimizer, TS searches, QM/MM, DLPNO-CCSD(T), (RO)-DLPNO pert. Triples
   Tobias Risthaus        : Range-separated hybrids, TD-DFT gradient, RPA, STAB
   Michael Roemelt        : Original ROCIS implementation
   Masaaki Saitow         : Open-shell DLPNO-CCSD energy and density
   Barbara Sandhoefer     : DKH picture change effects
   Avijit Sen             : IP-ROCIS
   Kantharuban Sivalingam : CASSCF convergence, NEVPT2, FIC-MRCI
   Bernardo de Souza      : ESD, SOC TD-DFT
   Georgi Stoychev        : AutoAux, RI-MP2 NMR, DLPNO-MP2 response
   Willem Van den Heuvel  : Paramagnetic NMR
   Boris Wezisla          : Elementary symmetry handling
   Frank Wennmohs         : Technical directorship


 We gratefully acknowledge several colleagues who have allowed us to
 interface, adapt or use parts of their codes:
   Stefan Grimme, W. Hujo, H. Kruse, P. Pracht,  : VdW corrections, initial TS optimization,
                  C. Bannwarth, S. Ehlert          DFT functionals, gCP, sTDA/sTD-DF
   Ed Valeev, F. Pavosevic, A. Kumar             : LibInt (2-el integral package), F12 methods
   Garnet Chan, S. Sharma, J. Yang, R. Olivares  : DMRG
   Ulf Ekstrom                                   : XCFun DFT Library
   Mihaly Kallay                                 : mrcc  (arbitrary order and MRCC methods)
   Jiri Pittner, Ondrej Demel                    : Mk-CCSD
   Frank Weinhold                                : gennbo (NPA and NBO analysis)
   Christopher J. Cramer and Donald G. Truhlar   : smd solvation model
   Lars Goerigk                                  : TD-DFT with DH, B97 family of functionals
   V. Asgeirsson, H. Jonsson                     : NEB implementation
   FAccTs GmbH                                   : IRC, NEB, NEB-TS, DLPNO-Multilevel, CI-OPT
                                                   MM, QMMM, 2- and 3-layer-ONIOM, Crystal-QMMM,
                                                   LR-CPCM, SF, NACMEs, symmetry and pop. for TD-DFT,
                                                   nearIR, NL-DFT gradient (VV10), updates on ESD,
                                                   ML-optimized integration grids
   S Lehtola, MJT Oliveira, MAL Marques          : LibXC Library
   Liviu Ungur et al                             : ANISO software


 Your calculation uses the libint2 library for the computation of 2-el integrals
 For citations please refer to: http://libint.valeyev.net

 Your ORCA version has been built with support for libXC version: 5.1.0
 For citations please refer to: https://tddft.org/programs/libxc/

 This ORCA versions uses:
   CBLAS   interface :  Fast vector & matrix operations
   LAPACKE interface :  Fast linear algebra routines
   SCALAPACK package :  Parallel linear algebra routines
   Shared memory     :  Shared parallel matrices
   BLAS/LAPACK       :  OpenBLAS 0.3.15  USE64BITINT DYNAMIC_ARCH NO_AFFINITY SkylakeX SINGLE_THREADED
        Core in use  :  SkylakeX
   Copyright (c) 2011-2014, The OpenBLAS Project




***************************************
The coordinates will be read from file: model.xyz
***************************************


================================================================================

----- Orbital basis set information -----
Your calculation utilizes the basis: EPR-II
   V. Barone, in Recent Advances in Density Functional Methods, Part 1 (ed. D. P. Chong), World Scientific, Singapore, 1995, p. 287.

----- AuxJ basis set information -----
Your calculation utilizes the auxiliary basis: def2/J
   F. Weigend, Phys. Chem. Chem. Phys. 8, 1057 (2006).

================================================================================
                                        WARNINGS
                       Please study these warnings very carefully!
================================================================================


WARNING: your system is open-shell and RHF/RKS was chosen
  ===> : WILL SWITCH to UHF/UKS


WARNING: Geometry Optimization
  ===> : Switching off AutoStart
         For restart on a previous wavefunction, please use MOREAD

INFO   : the flag for use of the SHARK integral package has been found!

================================================================================
                                       INPUT FILE
================================================================================
NAME = opt_EPRII.inp
|  1> ! B3LYP EPR-II OPT
|  2> %pal nprocs 16 end
|  3> *XYZFile 0 2 model.xyz
|  4> 
|  5>                          ****END OF INPUT****
================================================================================

                       *****************************
                       * Geometry Optimization Run *
                       *****************************

Geometry optimization settings:
Update method            Update   .... BFGS
Choice of coordinates    CoordSys .... Z-matrix Internals
Initial Hessian          InHess   .... Almoef's Model

Convergence Tolerances:
Energy Change            TolE     ....  5.0000e-06 Eh
Max. Gradient            TolMAXG  ....  3.0000e-04 Eh/bohr
RMS Gradient             TolRMSG  ....  1.0000e-04 Eh/bohr
Max. Displacement        TolMAXD  ....  4.0000e-03 bohr
RMS Displacement         TolRMSD  ....  2.0000e-03 bohr
Strict Convergence                ....  False
------------------------------------------------------------------------------
                        ORCA OPTIMIZATION COORDINATE SETUP
------------------------------------------------------------------------------

The optimization will be done in new redundant internal coordinates
Making redundant internal coordinates   ...  (new redundants) done
Evaluating the initial hessian          ...  (Almloef) done
Evaluating the coordinates              ...  done
Calculating the B-matrix                .... done
Calculating the G-matrix                .... done
Diagonalizing the G-matrix              .... done
Small eigenvalue found = 9.350e-04
Small eigenvalue found = 4.225e-03
Small eigenvalue found = 4.382e-03
Small eigenvalue found = 1.058e-02
Small eigenvalue found = 1.252e-02
Small eigenvalue found = 2.247e-02
Small eigenvalue found = 2.761e-02
Small eigenvalue found = 2.821e-02
The first mode is                       ....  113
The number of degrees of freedom        ....  132

    -----------------------------------------------------------------
                    Redundant Internal Coordinates


    -----------------------------------------------------------------
         Definition                    Initial Value    Approx d2E/dq
    -----------------------------------------------------------------
      1. B(C   2,C   1)                  1.4043         0.592826   
      2. B(C   3,C   2)                  1.3976         0.607650   
      3. B(C   4,C   0)                  1.4342         0.531060   
      4. B(C   4,C   3)                  1.4105         0.579460   
      5. B(C   5,C   4)                  1.4174         0.564953   
      6. B(C   6,C   5)                  1.4015         0.598952   
      7. B(C   6,C   1)                  1.3958         0.611559   
      8. B(H   7,C   3)                  1.0902         0.359773   
      9. B(H   8,C   6)                  1.0909         0.358900   
     10. B(C   9,C   2)                  1.5201         0.387419   
     11. B(H  10,C   9)                  1.1062         0.339254   
     12. B(H  11,C   9)                  1.1064         0.339019   
     13. B(C  12,C   9)                  1.5310         0.372205   
     14. B(H  13,C  12)                  1.1057         0.339948   
     15. B(H  14,C  12)                  1.1056         0.340016   
     16. B(C  15,C  12)                  1.5333         0.369092   
     17. B(H  16,C  15)                  1.1060         0.339503   
     18. B(H  17,C  15)                  1.1060         0.339520   
     19. B(C  18,C  15)                  1.5308         0.372461   
     20. B(H  19,C  18)                  1.1037         0.342385   
     21. B(H  20,C  18)                  1.1037         0.342400   
     22. B(C  21,C   5)                  1.5170         0.391836   
     23. B(H  22,C  21)                  1.1057         0.339922   
     24. B(H  23,C  21)                  1.1056         0.340015   
     25. B(C  24,C  21)                  1.5312         0.371957   
     26. B(H  25,C  24)                  1.1056         0.340091   
     27. B(H  26,C  24)                  1.1056         0.340060   
     28. B(C  27,C  24)                  1.5336         0.368660   
     29. B(H  28,C  27)                  1.1064         0.339035   
     30. B(H  29,C  27)                  1.1064         0.339021   
     31. B(C  30,C  27)                  1.5328         0.369694   
     32. B(H  31,C  30)                  1.1068         0.338576   
     33. B(H  32,C  30)                  1.1068         0.338573   
     34. B(C  33,C  30)                  1.5328         0.369806   
     35. B(H  34,C  33)                  1.1055         0.340123   
     36. B(H  35,C  33)                  1.1055         0.340135   
     37. B(C  36,C  33)                  1.5502         0.346822   
     38. B(H  37,C  36)                  1.1063         0.339206   
     39. B(H  38,C  36)                  1.1062         0.339253   
     40. B(C  39,C  36)                  1.4923         0.428991   
     41. B(H  40,C  39)                  1.0938         0.355157   
     42. B(H  41,C  39)                  1.0938         0.355135   
     43. B(C  42,C   0)                  1.2161         1.183657   
     44. B(H  43,C  42)                  1.0723         0.384250   
     45. B(H  44,C  18)                  1.1021         0.344400   
     46. B(H  45,C   1)                  1.0943         0.354447   
     47. L(C   4,C   0,C  42,C   3, 1) 179.5798         0.474696   
     48. L(C   4,C   0,C  42,C   3, 2) 179.8672         0.474696   
     49. A(C   6,C   1,H  45)          119.1360         0.351151   
     50. A(C   2,C   1,C   6)          121.5049         0.429525   
     51. A(C   2,C   1,H  45)          119.3592         0.349312   
     52. A(C   1,C   2,C   9)          119.4852         0.396097   
     53. A(C   1,C   2,C   3)          117.3108         0.429031   
     54. A(C   3,C   2,C   9)          123.2039         0.397819   
     55. A(C   2,C   3,H   7)          120.6165         0.351656   
     56. A(C   4,C   3,H   7)          117.6951         0.348847   
     57. A(C   2,C   3,C   4)          121.6884         0.427281   
     58. A(C   0,C   4,C   5)          120.5472         0.415244   
     59. A(C   3,C   4,C   5)          120.6220         0.421748   
     60. A(C   0,C   4,C   3)          118.8308         0.417121   
     61. A(C   4,C   5,C  21)          119.8635         0.393549   
     62. A(C   4,C   5,C   6)          117.1415         0.424249   
     63. A(C   6,C   5,C  21)          122.9949         0.397604   
     64. A(C   1,C   6,C   5)          121.7324         0.430319   
     65. A(C   5,C   6,H   8)          119.6077         0.350656   
     66. A(C   1,C   6,H   8)          118.6599         0.351893   
     67. A(C   2,C   9,H  11)          108.2405         0.323047   
     68. A(C   2,C   9,H  10)          108.2099         0.323084   
     69. A(C   2,C   9,C  12)          116.9114         0.365390   
     70. A(H  10,C   9,C  12)          108.8967         0.320971   
     71. A(H  10,C   9,H  11)          105.0765         0.285433   
     72. A(H  11,C   9,C  12)          108.8666         0.320935   
     73. A(H  14,C  12,C  15)          109.0568         0.320648   
     74. A(H  13,C  12,C  15)          109.1202         0.320638   
     75. A(C   9,C  12,C  15)          112.8417         0.362376   
     76. A(H  13,C  12,H  14)          106.1525         0.285654   
     77. A(C   9,C  12,H  14)          109.7460         0.321089   
     78. A(C   9,C  12,H  13)          109.7000         0.321078   
     79. A(H  16,C  15,C  18)          109.5382         0.321046   
     80. A(C  12,C  15,C  18)          113.1765         0.362418   
     81. A(H  16,C  15,H  17)          105.8540         0.285531   
     82. A(C  12,C  15,H  17)          109.2271         0.320572   
     83. A(C  12,C  15,H  16)          109.2375         0.320569   
     84. A(H  17,C  15,C  18)          109.5453         0.321048   
     85. A(H  20,C  18,H  44)          107.6062         0.286547   
     86. A(H  19,C  18,H  44)          107.6014         0.286545   
     87. A(C  15,C  18,H  44)          111.5153         0.321799   
     88. A(H  19,C  18,H  20)          107.3748         0.286284   
     89. A(C  15,C  18,H  20)          111.2690         0.321492   
     90. A(C  15,C  18,H  19)          111.2688         0.321490   
     91. A(H  23,C  21,C  24)          109.1992         0.321054   
     92. A(H  22,C  21,C  24)          109.1626         0.321039   
     93. A(C   5,C  21,C  24)          116.7840         0.366059   
     94. A(H  22,C  21,H  23)          104.4134         0.285651   
     95. A(C   5,C  21,H  23)          108.2906         0.323804   
     96. A(C   5,C  21,H  22)          108.2791         0.323790   
     97. A(H  26,C  24,C  27)          109.0600         0.320594   
     98. A(H  25,C  24,C  27)          109.0400         0.320598   
     99. A(C  21,C  24,C  27)          112.6423         0.362262   
    100. A(H  25,C  24,H  26)          106.1971         0.285679   
    101. A(C  21,C  24,H  26)          109.8291         0.321061   
    102. A(C  21,C  24,H  25)          109.8617         0.321065   
    103. A(H  29,C  27,C  30)          109.3320         0.320580   
    104. A(H  28,C  27,C  30)          109.3455         0.320582   
    105. A(C  24,C  27,C  30)          113.4535         0.361885   
    106. A(H  28,C  27,H  29)          105.8168         0.285405   
    107. A(C  24,C  27,H  29)          109.3020         0.320433   
    108. A(C  24,C  27,H  28)          109.3082         0.320435   
    109. A(H  32,C  30,C  33)          109.2637         0.320527   
    110. A(H  31,C  30,C  33)          109.2827         0.320527   
    111. A(C  27,C  30,C  33)          113.6134         0.362076   
    112. A(H  31,C  30,H  32)          105.8281         0.285286   
    113. A(C  27,C  30,H  32)          109.2891         0.320511   
    114. A(C  27,C  30,H  31)          109.2707         0.320511   
    115. A(C  30,C  33,H  35)          109.6804         0.320768   
    116. A(C  30,C  33,H  34)          109.6823         0.320766   
    117. A(H  35,C  33,C  36)          109.0816         0.317426   
    118. A(H  34,C  33,C  36)          109.0639         0.317424   
    119. A(C  30,C  33,C  36)          113.0274         0.358158   
    120. A(H  34,C  33,H  35)          106.0646         0.285693   
    121. A(H  38,C  36,C  39)          110.0090         0.328547   
    122. A(H  37,C  36,C  39)          109.9929         0.328540   
    123. A(C  33,C  36,C  39)          113.8902         0.367355   
    124. A(H  37,C  36,H  38)          106.5039         0.285457   
    125. A(C  33,C  36,H  38)          108.0768         0.317292   
    126. A(C  33,C  36,H  37)          108.0791         0.317285   
    127. A(H  40,C  39,H  41)          117.5538         0.289578   
    128. A(C  36,C  39,H  41)          120.8432         0.331041   
    129. A(C  36,C  39,H  40)          120.8502         0.331044   
    130. L(C   0,C  42,H  43, 2)       180.0765         0.399026   
    131. L(C   0,C  42,H  43, 1)       180.0045         0.399026   
    132. D(C   3,C   2,C   1,H  45)    179.9640         0.024197   
    133. D(C   9,C   2,C   1,C   6)    179.8745         0.024197   
    134. D(C   9,C   2,C   1,H  45)     -0.1273         0.024197   
    135. D(C   3,C   2,C   1,C   6)     -0.0342         0.024197   
    136. D(H   7,C   3,C   2,C   9)      0.1309         0.025490   
    137. D(C   4,C   3,C   2,C   1)      0.0296         0.025490   
    138. D(C   4,C   3,C   2,C   9)   -179.8755         0.025490   
    139. D(H   7,C   3,C   2,C   1)   -179.9641         0.025490   
    140. D(C   0,C   4,C   3,H   7)     -0.0508         0.023067   
    141. D(C   5,C   4,C   3,H   7)    179.9821         0.023067   
    142. D(C   0,C   4,C   3,C   2)    179.9553         0.023067   
    143. D(C   5,C   4,C   3,C   2)     -0.0117         0.023067   
    144. D(C   6,C   5,C   4,C   3)     -0.0027         0.021878   
    145. D(C   6,C   5,C   4,C   0)   -179.9692         0.021878   
    146. D(C  21,C   5,C   4,C   0)      0.0200         0.021878   
    147. D(C  21,C   5,C   4,C   3)    179.9865         0.021878   
    148. D(C   1,C   6,C   5,C  21)   -179.9907         0.024726   
    149. D(H   8,C   6,C   5,C  21)      0.0222         0.024726   
    150. D(C   5,C   6,C   1,H  45)   -179.9771         0.025838   
    151. D(C   5,C   6,C   1,C   2)      0.0211         0.025838   
    152. D(H   8,C   6,C   5,C   4)   -179.9889         0.024726   
    153. D(C   1,C   6,C   5,C   4)     -0.0019         0.024726   
    154. D(H   8,C   6,C   1,H  45)      0.0100         0.025838   
    155. D(H   8,C   6,C   1,C   2)   -179.9918         0.025838   
    156. D(C  12,C   9,C   2,C   3)     -1.5264         0.011175   
    157. D(C  12,C   9,C   2,C   1)    178.5705         0.011175   
    158. D(H  11,C   9,C   2,C   3)    121.7793         0.011175   
    159. D(H  10,C   9,C   2,C   3)   -124.8469         0.011175   
    160. D(H  10,C   9,C   2,C   1)     55.2500         0.011175   
    161. D(H  11,C   9,C   2,C   1)    -58.1238         0.011175   
    162. D(H  13,C  12,C   9,C   2)    -57.7014         0.011067   
    163. D(C  15,C  12,C   9,H  10)    -56.6270         0.011067   
    164. D(C  15,C  12,C   9,C   2)   -179.5945         0.011067   
    165. D(H  14,C  12,C   9,H  11)    -64.4232         0.011067   
    166. D(H  14,C  12,C   9,H  10)   -178.4719         0.011067   
    167. D(H  14,C  12,C   9,C   2)     58.5606         0.011067   
    168. D(H  13,C  12,C   9,H  11)    179.3148         0.011067   
    169. D(C  15,C  12,C   9,H  11)     57.4217         0.011067   
    170. D(H  13,C  12,C   9,H  10)     65.2662         0.011067   
    171. D(C  18,C  15,C  12,H  14)    -57.6738         0.010893   
    172. D(C  18,C  15,C  12,C   9)   -179.9066         0.010893   
    173. D(H  17,C  15,C  12,H  14)   -179.9996         0.010893   
    174. D(H  17,C  15,C  12,H  13)    -64.4517         0.010893   
    175. D(H  17,C  15,C  12,C   9)     57.7677         0.010893   
    176. D(H  16,C  15,C  12,H  14)     64.6504         0.010893   
    177. D(C  18,C  15,C  12,H  13)     57.8740         0.010893   
    178. D(H  16,C  15,C  12,H  13)   -179.8017         0.010893   
    179. D(H  16,C  15,C  12,C   9)    -57.5823         0.010893   
    180. D(H  44,C  18,C  15,H  17)    -57.8551         0.011081   
    181. D(H  44,C  18,C  15,H  16)     57.8402         0.011081   
    182. D(H  44,C  18,C  15,C  12)    179.9967         0.011081   
    183. D(H  20,C  18,C  15,H  17)     62.3002         0.011081   
    184. D(H  20,C  18,C  15,H  16)    177.9955         0.011081   
    185. D(H  20,C  18,C  15,C  12)    -59.8480         0.011081   
    186. D(H  19,C  18,C  15,H  17)   -178.0042         0.011081   
    187. D(H  19,C  18,C  15,H  16)    -62.3089         0.011081   
    188. D(H  19,C  18,C  15,C  12)     59.8476         0.011081   
    189. D(C  24,C  21,C   5,C   4)    179.9419         0.011417   
    190. D(H  23,C  21,C   5,C   6)   -123.7685         0.011417   
    191. D(H  23,C  21,C   5,C   4)     56.2430         0.011417   
    192. D(H  22,C  21,C   5,C   6)    123.5708         0.011417   
    193. D(C  24,C  21,C   5,C   6)     -0.0696         0.011417   
    194. D(H  22,C  21,C   5,C   4)    -56.4177         0.011417   
    195. D(C  27,C  24,C  21,H  23)    -56.6076         0.011053   
    196. D(C  27,C  24,C  21,C   5)   -179.8400         0.011053   
    197. D(H  26,C  24,C  21,H  23)   -178.3799         0.011053   
    198. D(H  26,C  24,C  21,H  22)    -64.7988         0.011053   
    199. D(H  26,C  24,C  21,C   5)     58.3877         0.011053   
    200. D(H  25,C  24,C  21,H  23)     65.1623         0.011053   
    201. D(C  27,C  24,C  21,H  22)     56.9734         0.011053   
    202. D(H  25,C  24,C  21,H  22)    178.7433         0.011053   
    203. D(H  25,C  24,C  21,C   5)    -58.0701         0.011053   
    204. D(C  30,C  27,C  24,H  26)    -57.4997         0.010870   
    205. D(C  30,C  27,C  24,H  25)     58.0591         0.010870   
    206. D(C  30,C  27,C  24,C  21)   -179.7066         0.010870   
    207. D(H  29,C  27,C  24,H  26)   -179.7957         0.010870   
    208. D(H  29,C  27,C  24,H  25)    -64.2369         0.010870   
    209. D(H  29,C  27,C  24,C  21)     57.9973         0.010870   
    210. D(H  28,C  27,C  24,H  26)     64.8183         0.010870   
    211. D(H  28,C  27,C  24,H  25)   -179.6229         0.010870   
    212. D(H  28,C  27,C  24,C  21)    -57.3886         0.010870   
    213. D(C  33,C  30,C  27,H  29)    -57.6215         0.010927   
    214. D(C  33,C  30,C  27,H  28)     57.8019         0.010927   
    215. D(C  33,C  30,C  27,C  24)   -179.9008         0.010927   
    216. D(H  32,C  30,C  27,H  29)     64.6873         0.010927   
    217. D(H  32,C  30,C  27,H  28)   -179.8894         0.010927   
    218. D(H  32,C  30,C  27,C  24)    -57.5921         0.010927   
    219. D(H  31,C  30,C  27,H  29)   -179.9411         0.010927   
    220. D(H  31,C  30,C  27,H  28)    -64.5178         0.010927   
    221. D(H  31,C  30,C  27,C  24)     57.7795         0.010927   
    222. D(C  36,C  33,C  30,H  32)     57.7857         0.010933   
    223. D(C  36,C  33,C  30,H  31)    -57.5785         0.010933   
    224. D(C  36,C  33,C  30,C  27)   -179.8915         0.010933   
    225. D(H  35,C  33,C  30,H  32)    179.7425         0.010933   
    226. D(H  35,C  33,C  30,H  31)     64.3783         0.010933   
    227. D(H  35,C  33,C  30,C  27)    -57.9347         0.010933   
    228. D(H  34,C  33,C  30,H  32)    -64.1496         0.010933   
    229. D(H  34,C  33,C  30,H  31)   -179.5138         0.010933   
    230. D(H  34,C  33,C  30,C  27)     58.1732         0.010933   
    231. D(C  39,C  36,C  33,H  35)     57.7630         0.009706   
    232. D(C  39,C  36,C  33,C  30)   -179.9447         0.009706   
    233. D(H  38,C  36,C  33,H  35)    -64.8006         0.009706   
    234. D(H  38,C  36,C  33,H  34)    179.7735         0.009706   
    235. D(H  38,C  36,C  33,C  30)     57.4917         0.009706   
    236. D(H  37,C  36,C  33,H  35)   -179.6922         0.009706   
    237. D(C  39,C  36,C  33,H  34)    -57.6628         0.009706   
    238. D(H  37,C  36,C  33,H  34)     64.8819         0.009706   
    239. D(H  37,C  36,C  33,C  30)    -57.4000         0.009706   
    240. D(H  41,C  39,C  36,H  38)   -153.6575         0.013593   
    241. D(H  41,C  39,C  36,H  37)    -36.6436         0.013593   
    242. D(H  41,C  39,C  36,C  33)     84.8450         0.013593   
    243. D(H  40,C  39,C  36,H  38)     36.5243         0.013593   
    244. D(H  40,C  39,C  36,H  37)    153.5382         0.013593   
    245. D(H  40,C  39,C  36,C  33)    -84.9732         0.013593   
    -----------------------------------------------------------------

Number of atoms                         .... 46
Number of degrees of freedom            .... 245

         *************************************************************
         *                GEOMETRY OPTIMIZATION CYCLE   1            *
         *************************************************************
---------------------------------
CARTESIAN COORDINATES (ANGSTROEM)
---------------------------------
  C      4.260893   -0.079127   -0.043591
  C      0.045387   -0.014079   -0.133807
  C      0.704757   -1.253015   -0.085632
  C      2.101931   -1.235147   -0.057350
  C      2.827985   -0.025998   -0.075534
  C      2.154195    1.220084   -0.123807
  C      0.753332    1.188758   -0.152097
  H      2.668495   -2.165884   -0.020281
  H      0.193946    2.124579   -0.189644
  C     -0.111949   -2.534903   -0.064556
  H     -0.786166   -2.529706   -0.941570
  H     -0.783040   -2.503561    0.814548
  C      0.667170   -3.852699   -0.045898
  H      1.334018   -3.903925   -0.926359
  H      1.326150   -3.884500    0.841308
  C     -0.246311   -5.084124   -0.035413
  H     -0.916771   -5.033046    0.842757
  H     -0.906915   -5.055142   -0.922002
  C      0.524988   -6.406261   -0.014444
  H      1.168051   -6.480501    0.879526
  H      1.177898   -6.502965   -0.899066
  C      2.952208    2.510100   -0.142411
  H      3.610046    2.523794    0.746200
  H      3.648976    2.474747   -1.000122
  C      2.153064    3.815083   -0.196314
  H      1.507351    3.823318   -1.093673
  H      1.473136    3.874674    0.673437
  C      3.051950    5.057494   -0.215340
  H      3.705089    5.050199    0.677686
  H      3.731774    5.003740   -1.086612
  C      2.270402    6.375297   -0.262074
  H      1.591515    6.428490    0.610416
  H      1.615926    6.380765   -1.154594
  C      3.165360    7.619459   -0.283638
  H      3.840573    7.577327   -1.158008
  H      3.819142    7.623303    0.607847
  C      2.361317    8.944123   -0.328166
  H      1.709747    8.920359   -1.221882
  H      1.689242    8.967418    0.550198
  C      3.214355   10.168422   -0.351043
  H      3.591753   10.606491    0.577387
  H      3.614830   10.555345   -1.292458
  C      5.475492   -0.133120   -0.017706
  H      6.546487   -0.180814    0.006549
  H     -0.157012   -7.272012   -0.007233
  H     -1.048373    0.011018   -0.157638

----------------------------
CARTESIAN COORDINATES (A.U.)
----------------------------
  NO LB      ZA    FRAG     MASS         X           Y           Z
   0 C     6.0000    0    12.011    8.051921   -0.149527   -0.082375
   1 C     6.0000    0    12.011    0.085769   -0.026606   -0.252858
   2 C     6.0000    0    12.011    1.331798   -2.367856   -0.161822
   3 C     6.0000    0    12.011    3.972075   -2.334090   -0.108376
   4 C     6.0000    0    12.011    5.344118   -0.049130   -0.142739
   5 C     6.0000    0    12.011    4.070839    2.305624   -0.233961
   6 C     6.0000    0    12.011    1.423591    2.246428   -0.287422
   7 H     1.0000    0     1.008    5.042724   -4.092928   -0.038325
   8 H     1.0000    0     1.008    0.366505    4.014872   -0.358375
   9 C     6.0000    0    12.011   -0.211552   -4.790273   -0.121992
  10 H     1.0000    0     1.008   -1.485639   -4.780452   -1.779310
  11 H     1.0000    0     1.008   -1.479730   -4.731045    1.539273
  12 C     6.0000    0    12.011    1.260769   -7.280546   -0.086736
  13 H     1.0000    0     1.008    2.520928   -7.377350   -1.750565
  14 H     1.0000    0     1.008    2.506061   -7.340641    1.589841
  15 C     6.0000    0    12.011   -0.465461   -9.607602   -0.066921
  16 H     1.0000    0     1.008   -1.732446   -9.511078    1.592581
  17 H     1.0000    0     1.008   -1.713821   -9.552835   -1.742332
  18 C     6.0000    0    12.011    0.992083  -12.106079   -0.027295
  19 H     1.0000    0     1.008    2.207296  -12.246371    1.662064
  20 H     1.0000    0     1.008    2.225904  -12.288822   -1.698988
  21 C     6.0000    0    12.011    5.578866    4.743402   -0.269117
  22 H     1.0000    0     1.008    6.821997    4.769279    1.410114
  23 H     1.0000    0     1.008    6.895565    4.676594   -1.889956
  24 C     6.0000    0    12.011    4.068702    7.209462   -0.370980
  25 H     1.0000    0     1.008    2.848481    7.225024   -2.066743
  26 H     1.0000    0     1.008    2.783823    7.322072    1.272612
  27 C     6.0000    0    12.011    5.767350    9.557279   -0.406934
  28 H     1.0000    0     1.008    7.001603    9.543493    1.280641
  29 H     1.0000    0     1.008    7.052031    9.455698   -2.053399
  30 C     6.0000    0    12.011    4.290438   12.047566   -0.495248
  31 H     1.0000    0     1.008    3.007528   12.148085    1.153519
  32 H     1.0000    0     1.008    3.053658   12.057898   -2.181866
  33 C     6.0000    0    12.011    5.981664   14.398691   -0.535997
  34 H     1.0000    0     1.008    7.257631   14.319073   -2.188318
  35 H     1.0000    0     1.008    7.217132   14.405955    1.148665
  36 C     6.0000    0    12.011    4.462243   16.901943   -0.620145
  37 H     1.0000    0     1.008    3.230954   16.857035   -2.309022
  38 H     1.0000    0     1.008    3.192205   16.945964    1.039723
  39 C     6.0000    0    12.011    6.074251   19.215532   -0.663375
  40 H     1.0000    0     1.008    6.787430   20.043363    1.091103
  41 H     1.0000    0     1.008    6.831038   19.946710   -2.442393
  42 C     6.0000    0    12.011   10.347180   -0.251561   -0.033459
  43 H     1.0000    0     1.008   12.371067   -0.341690    0.012376
  44 H     1.0000    0     1.008   -0.296710  -13.742112   -0.013668
  45 H     1.0000    0     1.008   -1.981137    0.020820   -0.297893

--------------------------------
INTERNAL COORDINATES (ANGSTROEM)
--------------------------------
 C      0   0   0     0.000000000000     0.00000000     0.00000000
 C      1   0   0     4.216973050903     0.00000000     0.00000000
 C      2   1   0     1.404297663835    61.07157903     0.00000000
 C      3   2   1     1.397574938989   117.31081954   359.97574981
 C      4   3   2     1.410505485863   121.68836685     0.02957880
 C      5   4   3     1.417407170048   120.62203779     0.00000000
 C      2   1   3     1.395829163165    60.43327217   179.99025674
 H      4   3   2     1.090247485185   120.61650907   180.03591054
 H      7   2   1     1.090908691622   118.65991718   179.99821819
 C      3   2   1     1.520094892272   119.48523502   179.88447569
 H     10   3   2     1.106232804804   108.20987074    55.25002497
 H     10   3   2     1.106421646020   108.24053344   301.87619314
 C     10   3   2     1.530999771383   116.91141135   178.57054599
 H     13  10   3     1.105676426908   109.70002962   302.29864521
 H     13  10   3     1.105622267263   109.74601720    58.56061334
 C     13  10   3     1.533286186949   112.84168152   180.40549086
 H     16  13  10     1.106032877553   109.23749204   302.41768295
 H     16  13  10     1.106018995976   109.22712235    57.76765630
 C     16  13  10     1.530812900751   113.17649123   180.09341718
 H     19  16  13     1.103732092454   111.26880495    59.84756998
 H     19  16  13     1.103720125842   111.26903915   300.15197974
 C      6   5   4     1.517008437075   119.86353544   179.98649276
 H     22   6   5     1.105697286815   108.27913343   303.58225359
 H     22   6   5     1.105623015192   108.29062918    56.24301330
 C     22   6   5     1.531181618759   116.78396571   179.94186029
 H     25  22   6     1.105561635964   109.86168126   301.92989220
 H     25  22   6     1.105586778046   109.82910333    58.38772567
 C     25  22   6     1.533604625879   112.64225838   180.15998477
 H     28  25  22     1.106408163561   109.30815499   302.61138614
 H     28  25  22     1.106419619242   109.30198175    57.99734098
 C     28  25  22     1.532842714433   113.45350966   180.29336405
 H     31  28  25     1.106777006556   109.27074348    57.77947014
 H     31  28  25     1.106779430495   109.28913699   302.40788865
 C     31  28  25     1.532760128398   113.61337066   180.09916100
 H     34  31  28     1.105536344064   109.68231869    58.17317324
 H     34  31  28     1.105527048041   109.68044540   302.06525954
 C     34  31  28     1.550226867025   113.02738246   180.10848276
 H     37  34  31     1.106271241842   108.07910415   302.60001569
 H     37  34  31     1.106233160989   108.07679053    57.49168387
 C     37  34  31     1.492348336213   113.89018819   180.05530061
 H     40  37  34     1.093762176410   120.85021729   275.02677486
 H     40  37  34     1.093779008390   120.84323892    84.84498082
 C      1   2   3     1.216074245338   178.33904773     1.76439299
 H     43   1   5     1.072330402508   179.92346806   265.72951072
 H     19  16  13     1.102134827954   111.51533622   179.99665919
 H      2   1   3     1.094306812644   179.56910554   181.36193359

---------------------------
INTERNAL COORDINATES (A.U.)
---------------------------
 C      0   0   0     0.000000000000     0.00000000     0.00000000
 C      1   0   0     7.968924180334     0.00000000     0.00000000
 C      2   1   0     2.653737995154    61.07157903     0.00000000
 C      3   2   1     2.641033886321   117.31081954   359.97574981
 C      4   3   2     2.665469078675   121.68836685     0.02957880
 C      5   4   3     2.678511371647   120.62203779     0.00000000
 C      2   1   3     2.637734848122    60.43327217   179.99025674
 H      4   3   2     2.060269165196   120.61650907   180.03591054
 H      7   2   1     2.061518664279   118.65991718   179.99821819
 C      3   2   1     2.872563043966   119.48523502   179.88447569
 H     10   3   2     2.090477041439   108.20987074    55.25002497
 H     10   3   2     2.090833899621   108.24053344   301.87619314
 C     10   3   2     2.893170279010   116.91141135   178.57054599
 H     13  10   3     2.089425639588   109.70002962   302.29864521
 H     13  10   3     2.089323292692   109.74601720    58.56061334
 C     13  10   3     2.897490978258   112.84168152   180.40549086
 H     16  13  10     2.090099233689   109.23749204   302.41768295
 H     16  13  10     2.090073001309   109.22712235    57.76765630
 C     16  13  10     2.892817144693   113.17649123   180.09341718
 H     19  16  13     2.085751379957   111.26880495    59.84756998
 H     19  16  13     2.085728766339   111.26903915   300.15197974
 C      6   5   4     2.866730488921   119.86353544   179.98649276
 H     22   6   5     2.089465059100   108.27913343   303.58225359
 H     22   6   5     2.089324706072   108.29062918    56.24301330
 C     22   6   5     2.893513920748   116.78396571   179.94186029
 H     25  22   6     2.089208716142   109.86168126   301.92989220
 H     25  22   6     2.089256227791   109.82910333    58.38772567
 C     25  22   6     2.898092740626   112.64225838   180.15998477
 H     28  25  22     2.090808421465   109.30815499   302.61138614
 H     28  25  22     2.090830069566   109.30198175    57.99734098
 C     28  25  22     2.896652936654   113.45350966   180.29336405
 H     31  28  25     2.091505433712   109.27074348    57.77947014
 H     31  28  25     2.091510014293   109.28913699   302.40788865
 C     31  28  25     2.896496871666   113.61337066   180.09916100
 H     34  31  28     2.089160921378   109.68231869    58.17317324
 H     34  31  28     2.089143354440   109.68044540   302.06525954
 C     34  31  28     2.929504224124   113.02738246   180.10848276
 H     37  34  31     2.090549676915   108.07910415   302.60001569
 H     37  34  31     2.090477714531   108.07679053    57.49168387
 C     37  34  31     2.820129651856   113.89018819   180.05530061
 H     40  37  34     2.066910969057   120.85021729   275.02677486
 H     40  37  34     2.066942776888   120.84323892    84.84498082
 C      1   2   3     2.298047282204   178.33904773     1.76439299
 H     43   1   5     2.026410785818   179.92346806   265.72951072
 H     19  16  13     2.082732987490   111.51533622   179.99665919
 H      2   1   3     2.067940182381   179.56910554   181.36193359

---------------------
BASIS SET INFORMATION
---------------------
There are 2 groups of distinct atoms

 Group   1 Type C   : 10s5p1d contracted to 6s2p1d pattern {511111/41/1}
 Group   2 Type H   : 6s1p contracted to 4s1p pattern {3111/1}

Atom   0C    basis set group =>   1
Atom   1C    basis set group =>   1
Atom   2C    basis set group =>   1
Atom   3C    basis set group =>   1
Atom   4C    basis set group =>   1
Atom   5C    basis set group =>   1
Atom   6C    basis set group =>   1
Atom   7H    basis set group =>   2
Atom   8H    basis set group =>   2
Atom   9C    basis set group =>   1
Atom  10H    basis set group =>   2
Atom  11H    basis set group =>   2
Atom  12C    basis set group =>   1
Atom  13H    basis set group =>   2
Atom  14H    basis set group =>   2
Atom  15C    basis set group =>   1
Atom  16H    basis set group =>   2
Atom  17H    basis set group =>   2
Atom  18C    basis set group =>   1
Atom  19H    basis set group =>   2
Atom  20H    basis set group =>   2
Atom  21C    basis set group =>   1
Atom  22H    basis set group =>   2
Atom  23H    basis set group =>   2
Atom  24C    basis set group =>   1
Atom  25H    basis set group =>   2
Atom  26H    basis set group =>   2
Atom  27C    basis set group =>   1
Atom  28H    basis set group =>   2
Atom  29H    basis set group =>   2
Atom  30C    basis set group =>   1
Atom  31H    basis set group =>   2
Atom  32H    basis set group =>   2
Atom  33C    basis set group =>   1
Atom  34H    basis set group =>   2
Atom  35H    basis set group =>   2
Atom  36C    basis set group =>   1
Atom  37H    basis set group =>   2
Atom  38H    basis set group =>   2
Atom  39C    basis set group =>   1
Atom  40H    basis set group =>   2
Atom  41H    basis set group =>   2
Atom  42C    basis set group =>   1
Atom  43H    basis set group =>   2
Atom  44H    basis set group =>   2
Atom  45H    basis set group =>   2
---------------------------------
AUXILIARY/J BASIS SET INFORMATION
---------------------------------
There are 2 groups of distinct atoms

 Group   1 Type C   : 12s5p4d2f1g contracted to 6s4p3d1f1g pattern {711111/2111/211/2/1}
 Group   2 Type H   : 5s2p1d contracted to 3s1p1d pattern {311/2/1}

Atom   0C    basis set group =>   1
Atom   1C    basis set group =>   1
Atom   2C    basis set group =>   1
Atom   3C    basis set group =>   1
Atom   4C    basis set group =>   1
Atom   5C    basis set group =>   1
Atom   6C    basis set group =>   1
Atom   7H    basis set group =>   2
Atom   8H    basis set group =>   2
Atom   9C    basis set group =>   1
Atom  10H    basis set group =>   2
Atom  11H    basis set group =>   2
Atom  12C    basis set group =>   1
Atom  13H    basis set group =>   2
Atom  14H    basis set group =>   2
Atom  15C    basis set group =>   1
Atom  16H    basis set group =>   2
Atom  17H    basis set group =>   2
Atom  18C    basis set group =>   1
Atom  19H    basis set group =>   2
Atom  20H    basis set group =>   2
Atom  21C    basis set group =>   1
Atom  22H    basis set group =>   2
Atom  23H    basis set group =>   2
Atom  24C    basis set group =>   1
Atom  25H    basis set group =>   2
Atom  26H    basis set group =>   2
Atom  27C    basis set group =>   1
Atom  28H    basis set group =>   2
Atom  29H    basis set group =>   2
Atom  30C    basis set group =>   1
Atom  31H    basis set group =>   2
Atom  32H    basis set group =>   2
Atom  33C    basis set group =>   1
Atom  34H    basis set group =>   2
Atom  35H    basis set group =>   2
Atom  36C    basis set group =>   1
Atom  37H    basis set group =>   2
Atom  38H    basis set group =>   2
Atom  39C    basis set group =>   1
Atom  40H    basis set group =>   2
Atom  41H    basis set group =>   2
Atom  42C    basis set group =>   1
Atom  43H    basis set group =>   2
Atom  44H    basis set group =>   2
Atom  45H    basis set group =>   2


           ************************************************************
           *        Program running with 16 parallel MPI-processes    *
           *              working on a common directory               *
           ************************************************************
------------------------------------------------------------------------------
                           ORCA GTO INTEGRAL CALCULATION
                           -- RI-GTO INTEGRALS CHOSEN --
------------------------------------------------------------------------------
------------------------------------------------------------------------------
                   ___                                                        
                  /   \      - P O W E R E D   B Y -                         
                 /     \                                                     
                 |  |  |   _    _      __       _____    __    __             
                 |  |  |  | |  | |    /  \     |  _  \  |  |  /  |          
                  \  \/   | |  | |   /    \    | | | |  |  | /  /          
                 / \  \   | |__| |  /  /\  \   | |_| |  |  |/  /          
                |  |  |   |  __  | /  /__\  \  |    /   |      \           
                |  |  |   | |  | | |   __   |  |    \   |  |\   \          
                \     /   | |  | | |  |  |  |  | |\  \  |  | \   \       
                 \___/    |_|  |_| |__|  |__|  |_| \__\ |__|  \__/        
                                                                              
                      - O R C A' S   B I G   F R I E N D -                    
                                      &                                       
                       - I N T E G R A L  F E E D E R -                       
                                                                              
 v1 FN, 2020, v2 2021                                                         
------------------------------------------------------------------------------


Reading SHARK input file opt_EPRII.SHARKINP.tmp ... ok
----------------------
SHARK INTEGRAL PACKAGE
----------------------

Number of atoms                             ...     46
Number of basis functions                   ...    512
Number of shells                            ...    306
Maximum angular momentum                    ...      2
Integral batch strategy                     ... SHARK/LIBINT Hybrid
RI-J (if used) integral strategy            ... SPLIT-RIJ (Revised 2003 algorithm where possible)
Printlevel                                  ...      1
Contraction scheme used                     ... SEGMENTED contraction
Coulomb Range Separation                    ... NOT USED
Exchange Range Separation                   ... NOT USED
Finite Nucleus Model                        ... NOT USED
Auxiliary Coulomb fitting basis             ... AVAILABLE
   # of basis functions in Aux-J            ...   1228
   # of shells in Aux-J                     ...    420
   Maximum angular momentum in Aux-J        ...      4
Auxiliary J/K fitting basis                 ... NOT available
Auxiliary Correlation fitting basis         ... NOT available
Auxiliary 'external' fitting basis          ... NOT available
Integral threshold                          ...     2.500000e-11
Primitive cut-off                           ...     2.500000e-12
Primitive pair pre-selection threshold      ...     2.500000e-12

Calculating pre-screening integrals         ... done (  0.0 sec) Dimension = 306
Organizing shell pair data                  ... done (  0.2 sec)
Shell pair information
Total number of shell pairs                 ...     46971
Shell pairs after pre-screening             ...     24052
Total number of primitive shell pairs       ...    122156
Primitive shell pairs kept                  ...     45038
          la=0 lb=0:  11322 shell pairs
          la=1 lb=0:   8252 shell pairs
          la=1 lb=1:   1419 shell pairs
          la=2 lb=0:   2182 shell pairs
          la=2 lb=1:    764 shell pairs
          la=2 lb=2:    113 shell pairs

Calculating one electron integrals          ... done (  0.0 sec)
Calculating RI/J V-Matrix + Cholesky decomp.... done (  0.2 sec)
Calculating Nuclear repulsion               ... done (  0.0 sec) ENN=   1249.871733714571 Eh

SHARK setup successfully completed in   1.0 seconds

Maximum memory used throughout the entire GTOINT-calculation: 33.6 MB


           ************************************************************
           *        Program running with 16 parallel MPI-processes    *
           *              working on a common directory               *
           ************************************************************
-------------------------------------------------------------------------------
                                 ORCA SCF
-------------------------------------------------------------------------------

------------
SCF SETTINGS
------------
Hamiltonian:
 Density Functional     Method          .... DFT(GTOs)
 Exchange Functional    Exchange        .... B88
   X-Alpha parameter    XAlpha          ....  0.666667
   Becke's b parameter  XBeta           ....  0.004200
 Correlation Functional Correlation     .... LYP
 LDA part of GGA corr.  LDAOpt          .... VWN-5
 Gradients option       PostSCFGGA      .... off
 Hybrid DFT is turned on
   Fraction HF Exchange ScalHFX         ....  0.200000
   Scaling of DF-GGA-X  ScalDFX         ....  0.720000
   Scaling of DF-GGA-C  ScalDFC         ....  0.810000
   Scaling of DF-LDA-C  ScalLDAC        ....  1.000000
   Perturbative correction              ....  0.000000
   Density functional embedding theory  .... OFF
   NL short-range parameter             ....  4.800000
 RI-approximation to the Coulomb term is turned on
   Number of AuxJ basis functions       .... 1228
   RIJ-COSX (HFX calculated with COS-X)).... on


General Settings:
 Integral files         IntName         .... opt_EPRII
 Hartree-Fock type      HFTyp           .... UHF
 Total Charge           Charge          ....    0
 Multiplicity           Mult            ....    2
 Number of Electrons    NEL             ....  141
 Basis Dimension        Dim             ....  512
 Nuclear Repulsion      ENuc            ....   1249.8717337146 Eh

Convergence Acceleration:
 DIIS                   CNVDIIS         .... on
   Start iteration      DIISMaxIt       ....    12
   Startup error        DIISStart       ....  0.200000
   # of expansion vecs  DIISMaxEq       ....     5
   Bias factor          DIISBfac        ....   1.050
   Max. coefficient     DIISMaxC        ....  10.000
 Trust-Rad. Augm. Hess. CNVTRAH         .... auto
   Auto Start mean grad. ratio tolernc. ....  1.125000
   Auto Start start iteration           ....    20
   Auto Start num. interpolation iter.  ....    10
   Max. Number of Micro iterations      ....    16
   Max. Number of Macro iterations      .... Maxiter - #DIIS iter
   Number of Davidson start vectors     ....     2
   Converg. threshold I  (grad. norm)   ....   1.000e-05
   Converg. threshold II (energy diff.) ....   1.000e-08
   Grad. Scal. Fac. for Micro threshold ....   0.100
   Minimum threshold for Micro iter.    ....   0.010
   NR start threshold (gradient norm)   ....   0.001
   Initial trust radius                 ....   0.400
   Minimum AH scaling param. (alpha)    ....   1.000
   Maximum AH scaling param. (alpha)    .... 1000.000
   Orbital update algorithm             .... Taylor
   White noise on init. David. guess    .... on
   Maximum white noise                  ....   0.010
   Quad. conv. algorithm                .... NR
 SOSCF                  CNVSOSCF        .... off
 Level Shifting         CNVShift        .... on
   Level shift para.    LevelShift      ....    0.2500
   Turn off err/grad.   ShiftErr        ....    0.0010
 Zerner damping         CNVZerner       .... off
 Static damping         CNVDamp         .... on
   Fraction old density DampFac         ....    0.7000
   Max. Damping (<1)    DampMax         ....    0.9800
   Min. Damping (>=0)   DampMin         ....    0.0000
   Turn off err/grad.   DampErr         ....    0.1000
 Fernandez-Rico         CNVRico         .... off

SCF Procedure:
 Maximum # iterations   MaxIter         ....   125
 SCF integral mode      SCFMode         .... Direct
   Integral package                     .... SHARK and LIBINT hybrid scheme
 Reset frequency        DirectResetFreq ....    20
 Integral Threshold     Thresh          ....  2.500e-11 Eh
 Primitive CutOff       TCut            ....  2.500e-12 Eh

Convergence Tolerance:
 Convergence Check Mode ConvCheckMode   .... Total+1el-Energy
 Convergence forced     ConvForced      .... 0
 Energy Change          TolE            ....  1.000e-08 Eh
 1-El. energy change                    ....  1.000e-05 Eh
 DIIS Error             TolErr          ....  5.000e-07


Diagonalization of the overlap matrix:
Smallest eigenvalue                        ... 1.506e-04
Time for diagonalization                   ...    0.107 sec
Threshold for overlap eigenvalues          ... 1.000e-08
Number of eigenvalues below threshold      ... 0
Time for construction of square roots      ...    0.053 sec
Total time needed                          ...    0.162 sec

Time for model grid setup =    0.277 sec

------------------------------
INITIAL GUESS: MODEL POTENTIAL
------------------------------
Loading Hartree-Fock densities                     ... done
Calculating cut-offs                               ... done
Initializing the effective Hamiltonian             ... done
Setting up the integral package (SHARK)            ... done
Starting the Coulomb interaction                   ... done (   0.3 sec)
Reading the grid                                   ... done
Mapping shells                                     ... done
Starting the XC term evaluation                    ... done (   0.1 sec)
  promolecular density results
     # of electrons  =    140.999847700
     EX              =   -105.601134210
     EC              =     -4.582645387
     EX+EC           =   -110.183779597
Transforming the Hamiltonian                       ... done (   0.0 sec)
Diagonalizing the Hamiltonian                      ... done (   0.0 sec)
Back transforming the eigenvectors                 ... done (   0.0 sec)
Now organizing SCF variables                       ... done
                      ------------------
                      INITIAL GUESS DONE (   1.0 sec)
                      ------------------
-------------------
DFT GRID GENERATION
-------------------

General Integration Accuracy     IntAcc      ... 4.388
Radial Grid Type                 RadialGrid  ... OptM3 with GC (2021)
Angular Grid (max. ang.)         AngularGrid ... 4 (Lebedev-302)
Angular grid pruning method      GridPruning ... 4 (adaptive)
Weight generation scheme         WeightScheme... Becke
Basis function cutoff            BFCut       ... 1.0000e-11
Integration weight cutoff        WCut        ... 1.0000e-14
Angular grids for H and He will be reduced by one unit
Partially contracted basis set               ... off
Rotationally invariant grid construction     ... off

Total number of grid points                  ...   199575
Total number of batches                      ...     3141
Average number of points per batch           ...       63
Average number of grid points per atom       ...     4339
Time for grid setup =    1.106 sec

--------------------
COSX GRID GENERATION
--------------------

GRIDX 1
-------
General Integration Accuracy     IntAcc      ... 3.816
Radial Grid Type                 RadialGrid  ... OptM3 with GC (2021)
Angular Grid (max. ang.)         AngularGrid ... 1 (Lebedev-50)
Angular grid pruning method      GridPruning ... 4 (adaptive)
Weight generation scheme         WeightScheme... Becke
Basis function cutoff            BFCut       ... 1.0000e-11
Integration weight cutoff        WCut        ... 1.0000e-14
Angular grids for H and He will be reduced by one unit
Partially contracted basis set               ... on
Rotationally invariant grid construction     ... off

Total number of grid points                  ...    25466
Total number of batches                      ...      424
Average number of points per batch           ...       60
Average number of grid points per atom       ...      554
UseSFitting                                  ... on

GRIDX 2
-------
General Integration Accuracy     IntAcc      ... 4.020
Radial Grid Type                 RadialGrid  ... OptM3 with GC (2021)
Angular Grid (max. ang.)         AngularGrid ... 2 (Lebedev-110)
Angular grid pruning method      GridPruning ... 4 (adaptive)
Weight generation scheme         WeightScheme... Becke
Basis function cutoff            BFCut       ... 1.0000e-11
Integration weight cutoff        WCut        ... 1.0000e-14
Angular grids for H and He will be reduced by one unit
Partially contracted basis set               ... on
Rotationally invariant grid construction     ... off

Total number of grid points                  ...    53462
Total number of batches                      ...      857
Average number of points per batch           ...       62
Average number of grid points per atom       ...     1162
UseSFitting                                  ... on

GRIDX 3
-------
General Integration Accuracy     IntAcc      ... 4.338
Radial Grid Type                 RadialGrid  ... OptM3 with GC (2021)
Angular Grid (max. ang.)         AngularGrid ... 3 (Lebedev-194)
Angular grid pruning method      GridPruning ... 4 (adaptive)
Weight generation scheme         WeightScheme... Becke
Basis function cutoff            BFCut       ... 1.0000e-11
Integration weight cutoff        WCut        ... 1.0000e-14
Angular grids for H and He will be reduced by one unit
Partially contracted basis set               ... on
Rotationally invariant grid construction     ... off

Total number of grid points                  ...   116756
Total number of batches                      ...     1850
Average number of points per batch           ...       63
Average number of grid points per atom       ...     2538
UseSFitting                                  ... on

Time for X-Grid setup             =    2.010 sec

--------------
SCF ITERATIONS
--------------
ITER       Energy         Delta-E        Max-DP      RMS-DP      [F,P]     Damp
               ***  Starting incremental Fock matrix formation  ***
  0   -739.2688751760   0.000000000000 0.04726167  0.00070586  0.0796128 0.7000
  1   -739.4933021573  -0.224426981381 0.03255762  0.00053648  0.0426408 0.7000
                               ***Turning on DIIS***
  2   -739.5921345283  -0.098832370915 0.11338574  0.00109791  0.0177129 0.0000
  3   -739.7277166148  -0.135582086535 0.02499038  0.00032865  0.0233786 0.0000
  4   -739.7676244512  -0.039907836434 0.02907039  0.00016082  0.0052686 0.0000
  5   -739.7692516565  -0.001627205309 0.01671353  0.00008058  0.0015113 0.0000
  6   -739.7693969423  -0.000145285816 0.00995127  0.00005179  0.0006774 0.0000
               *** Restarting incremental Fock matrix formation ***
                                   *** Resetting DIIS ***
  7   -739.7697642089  -0.000367266514 0.00273282  0.00001595  0.0011686 0.0000
  8   -739.7697623823   0.000001826516 0.00057462  0.00000441  0.0014052 0.0000
  9   -739.7697713503  -0.000008967952 0.00043751  0.00000291  0.0004590 0.0000
 10   -739.7697725328  -0.000001182507 0.00010333  0.00000082  0.0000593 0.0000
 11   -739.7697725597  -0.000000026909 0.00004877  0.00000042  0.0000460 0.0000
 12   -739.7697726015  -0.000000041793 0.00002108  0.00000018  0.0000102 0.0000
 13   -739.7697725897   0.000000011783 0.00000781  0.00000008  0.0000077 0.0000
 14   -739.7697726144  -0.000000024665 0.00002141  0.00000010  0.0000011 0.0000
 15   -739.7697726018   0.000000012591 0.00000836  0.00000004  0.0000036 0.0000
 16   -739.7697726207  -0.000000018923 0.00000501  0.00000004  0.0000014 0.0000
                            ***DIIS convergence achieved***

               *****************************************************
               *                     SUCCESS                       *
               *           SCF CONVERGED AFTER  17 CYCLES          *
               *****************************************************

Old exchange energy                            =    -21.584219886 Eh
New exchange energy                            =    -21.584138053 Eh
Exchange energy change after final integration =      0.000081833 Eh
Total energy after final integration           =   -739.769690811 Eh
Final COS-X integration done in                =     9.393 sec

----------------
TOTAL SCF ENERGY
----------------

Total Energy       :         -739.76969081 Eh          -20130.15668 eV

Components:
Nuclear Repulsion  :         1249.87173371 Eh           34010.73895 eV
Electronic Energy  :        -1989.64142453 Eh          -54140.89563 eV
One Electron Energy:        -3477.57024186 Eh          -94629.49715 eV
Two Electron Energy:         1487.92881734 Eh           40488.60152 eV
Max COSX asymmetry :            0.00000295 Eh               0.00008 eV

Virial components:
Potential Energy   :        -1473.62272953 Eh          -40099.31308 eV
Kinetic Energy     :          733.85303872 Eh           19969.15640 eV
Virial Ratio       :            2.00806245


DFT components:
N(Alpha)           :       71.000119829762 electrons
N(Beta)            :       70.000130710349 electrons
N(Total)           :      141.000250540112 electrons
E(X)               :      -85.551229693831 Eh       
E(C)               :       -5.416729812276 Eh       
E(XC)              :      -90.967959506107 Eh       
DFET-embed. en.    :        0.000000000000 Eh       

---------------
SCF CONVERGENCE
---------------

  Last Energy change         ...   -2.3918e-08  Tolerance :   1.0000e-08
  Last MAX-Density change    ...    0.0000e+00  Tolerance :   1.0000e-07
  Last RMS-Density change    ...    0.0000e+00  Tolerance :   5.0000e-09
  Last DIIS Error            ...    2.2293e-07  Tolerance :   5.0000e-07

             **** THE GBW FILE WAS UPDATED (opt_EPRII.gbw) ****
             **** DENSITY opt_EPRII.scfp WAS UPDATED ****
             **** ENERGY FILE WAS UPDATED (opt_EPRII.en.tmp) ****
----------------------
UHF SPIN CONTAMINATION
----------------------

Warning: in a DFT calculation there is little theoretical justification to 
         calculate <S**2> as in Hartree-Fock theory. We will do it anyways
         but you should keep in mind that the values have only limited relevance

Expectation value of <S**2>     :     0.753831
Ideal value S*(S+1) for S=0.5   :     0.750000
Deviation                       :     0.003831

             **** THE GBW FILE WAS UPDATED (opt_EPRII.gbw) ****
             **** DENSITY opt_EPRII.scfp WAS UPDATED ****
----------------
ORBITAL ENERGIES
----------------
                 SPIN UP ORBITALS
  NO   OCC          E(Eh)            E(eV) 
   0   1.0000     -10.215661      -277.9823 
   1   1.0000     -10.205242      -277.6987 
   2   1.0000     -10.201728      -277.6031 
   3   1.0000     -10.201024      -277.5840 
   4   1.0000     -10.193679      -277.3841 
   5   1.0000     -10.192771      -277.3594 
   6   1.0000     -10.192121      -277.3417 
   7   1.0000     -10.191499      -277.3248 
   8   1.0000     -10.188815      -277.2518 
   9   1.0000     -10.188505      -277.2433 
  10   1.0000     -10.185418      -277.1593 
  11   1.0000     -10.184495      -277.1342 
  12   1.0000     -10.182778      -277.0875 
  13   1.0000     -10.182135      -277.0700 
  14   1.0000     -10.181717      -277.0586 
  15   1.0000     -10.181221      -277.0451 
  16   1.0000     -10.179500      -276.9983 
  17   1.0000     -10.179275      -276.9921 
  18   1.0000     -10.173267      -276.8287 
  19   1.0000      -0.863236       -23.4898 
  20   1.0000      -0.811259       -22.0755 
  21   1.0000      -0.801940       -21.8219 
  22   1.0000      -0.782749       -21.2997 
  23   1.0000      -0.776707       -21.1353 
  24   1.0000      -0.757223       -20.6051 
  25   1.0000      -0.730509       -19.8782 
  26   1.0000      -0.722614       -19.6633 
  27   1.0000      -0.702841       -19.1253 
  28   1.0000      -0.666499       -18.1364 
  29   1.0000      -0.636486       -17.3197 
  30   1.0000      -0.617915       -16.8143 
  31   1.0000      -0.607550       -16.5323 
  32   1.0000      -0.582514       -15.8510 
  33   1.0000      -0.575565       -15.6619 
  34   1.0000      -0.569885       -15.5074 
  35   1.0000      -0.558799       -15.2057 
  36   1.0000      -0.526641       -14.3306 
  37   1.0000      -0.493736       -13.4352 
  38   1.0000      -0.479479       -13.0473 
  39   1.0000      -0.469952       -12.7880 
  40   1.0000      -0.467380       -12.7181 
  41   1.0000      -0.459673       -12.5083 
  42   1.0000      -0.458609       -12.4794 
  43   1.0000      -0.426004       -11.5922 
  44   1.0000      -0.425569       -11.5803 
  45   1.0000      -0.421341       -11.4653 
  46   1.0000      -0.418286       -11.3821 
  47   1.0000      -0.417491       -11.3605 
  48   1.0000      -0.410252       -11.1635 
  49   1.0000      -0.397495       -10.8164 
  50   1.0000      -0.388707       -10.5773 
  51   1.0000      -0.379659       -10.3310 
  52   1.0000      -0.369613       -10.0577 
  53   1.0000      -0.365778        -9.9533 
  54   1.0000      -0.357140        -9.7183 
  55   1.0000      -0.352897        -9.6028 
  56   1.0000      -0.352362        -9.5883 
  57   1.0000      -0.337668        -9.1884 
  58   1.0000      -0.336374        -9.1532 
  59   1.0000      -0.327976        -8.9247 
  60   1.0000      -0.323628        -8.8064 
  61   1.0000      -0.323527        -8.8036 
  62   1.0000      -0.321985        -8.7617 
  63   1.0000      -0.320878        -8.7315 
  64   1.0000      -0.317666        -8.6441 
  65   1.0000      -0.312970        -8.5164 
  66   1.0000      -0.299346        -8.1456 
  67   1.0000      -0.272164        -7.4060 
  68   1.0000      -0.241176        -6.5627 
  69   1.0000      -0.223383        -6.0786 
  70   1.0000      -0.198611        -5.4045 
  71   0.0000      -0.032663        -0.8888 
  72   0.0000       0.000375         0.0102 
  73   0.0000       0.020333         0.5533 
  74   0.0000       0.023821         0.6482 
  75   0.0000       0.025168         0.6849 
  76   0.0000       0.030232         0.8227 
  77   0.0000       0.032625         0.8878 
  78   0.0000       0.039395         1.0720 
  79   0.0000       0.043920         1.1951 
  80   0.0000       0.045126         1.2279 
  81   0.0000       0.050900         1.3850 
  82   0.0000       0.056707         1.5431 
  83   0.0000       0.063316         1.7229 
  84   0.0000       0.077816         2.1175 
  85   0.0000       0.081806         2.2261 
  86   0.0000       0.084794         2.3074 
  87   0.0000       0.089631         2.4390 
  88   0.0000       0.111041         3.0216 
  89   0.0000       0.116531         3.1710 
  90   0.0000       0.120397         3.2762 
  91   0.0000       0.146536         3.9874 
  92   0.0000       0.148068         4.0291 
  93   0.0000       0.155394         4.2285 
  94   0.0000       0.160080         4.3560 
  95   0.0000       0.165347         4.4993 
  96   0.0000       0.165925         4.5150 
  97   0.0000       0.173235         4.7140 
  98   0.0000       0.179756         4.8914 
  99   0.0000       0.183936         5.0052 
 100   0.0000       0.189364         5.1528 
 101   0.0000       0.192967         5.2509 
 102   0.0000       0.194019         5.2795 
 103   0.0000       0.197823         5.3830 
 104   0.0000       0.198403         5.3988 
 105   0.0000       0.206646         5.6231 
 106   0.0000       0.207013         5.6331 
 107   0.0000       0.216249         5.8844 
 108   0.0000       0.217488         5.9181 
 109   0.0000       0.217884         5.9289 
 110   0.0000       0.220418         5.9979 
 111   0.0000       0.229947         6.2572 
 112   0.0000       0.235332         6.4037 
 113   0.0000       0.239043         6.5047 
 114   0.0000       0.248636         6.7657 
 115   0.0000       0.251079         6.8322 
 116   0.0000       0.252493         6.8707 
 117   0.0000       0.253602         6.9009 
 118   0.0000       0.255118         6.9421 
 119   0.0000       0.257948         7.0191 
 120   0.0000       0.268968         7.3190 
 121   0.0000       0.273902         7.4533 
 122   0.0000       0.278033         7.5657 
 123   0.0000       0.279156         7.5962 
 124   0.0000       0.280098         7.6218 
 125   0.0000       0.284103         7.7308 
 126   0.0000       0.289472         7.8769 
 127   0.0000       0.293188         7.9781 
 128   0.0000       0.296177         8.0594 
 129   0.0000       0.299487         8.1495 
 130   0.0000       0.306932         8.3520 
 131   0.0000       0.310223         8.4416 
 132   0.0000       0.310502         8.4492 
 133   0.0000       0.312513         8.5039 
 134   0.0000       0.319527         8.6948 
 135   0.0000       0.320732         8.7276 
 136   0.0000       0.322118         8.7653 
 137   0.0000       0.325125         8.8471 
 138   0.0000       0.329288         8.9604 
 139   0.0000       0.332001         9.0342 
 140   0.0000       0.340926         9.2771 
 141   0.0000       0.345544         9.4027 
 142   0.0000       0.351115         9.5543 
 143   0.0000       0.356336         9.6964 
 144   0.0000       0.366185         9.9644 
 145   0.0000       0.370254        10.0751 
 146   0.0000       0.371521        10.1096 
 147   0.0000       0.375669        10.2225 
 148   0.0000       0.380905        10.3649 
 149   0.0000       0.384328        10.4581 
 150   0.0000       0.390811        10.6345 
 151   0.0000       0.399492        10.8707 
 152   0.0000       0.402511        10.9529 
 153   0.0000       0.408583        11.1181 
 154   0.0000       0.417305        11.3554 
 155   0.0000       0.421487        11.4692 
 156   0.0000       0.425420        11.5763 
 157   0.0000       0.427280        11.6269 
 158   0.0000       0.429853        11.6969 
 159   0.0000       0.441342        12.0095 
 160   0.0000       0.450087        12.2475 
 161   0.0000       0.456076        12.4105 
 162   0.0000       0.457581        12.4514 
 163   0.0000       0.466082        12.6827 
 164   0.0000       0.476556        12.9677 
 165   0.0000       0.477333        12.9889 
 166   0.0000       0.480880        13.0854 
 167   0.0000       0.485588        13.2135 
 168   0.0000       0.490398        13.3444 
 169   0.0000       0.505617        13.7585 
 170   0.0000       0.508911        13.8482 
 171   0.0000       0.512070        13.9341 
 172   0.0000       0.513483        13.9726 
 173   0.0000       0.517914        14.0932 
 174   0.0000       0.529995        14.4219 
 175   0.0000       0.535930        14.5834 
 176   0.0000       0.546329        14.8664 
 177   0.0000       0.547774        14.9057 
 178   0.0000       0.553639        15.0653 
 179   0.0000       0.560743        15.2586 
 180   0.0000       0.574629        15.6364 
 181   0.0000       0.584727        15.9112 
 182   0.0000       0.589033        16.0284 
 183   0.0000       0.589495        16.0410 
 184   0.0000       0.598619        16.2893 
 185   0.0000       0.606872        16.5138 
 186   0.0000       0.622049        16.9268 
 187   0.0000       0.644725        17.5439 
 188   0.0000       0.655608        17.8400 
 189   0.0000       0.675272        18.3751 
 190   0.0000       0.687816        18.7164 
 191   0.0000       0.694945        18.9104 
 192   0.0000       0.714673        19.4472 
 193   0.0000       0.742597        20.2071 
 194   0.0000       0.759029        20.6542 
 195   0.0000       0.772270        21.0145 
 196   0.0000       0.777023        21.1439 
 197   0.0000       0.783592        21.3226 
 198   0.0000       0.812191        22.1008 
 199   0.0000       0.815323        22.1861 
 200   0.0000       0.836239        22.7552 
 201   0.0000       0.845284        23.0013 
 202   0.0000       0.846166        23.0253 
 203   0.0000       0.848471        23.0881 
 204   0.0000       0.859460        23.3871 
 205   0.0000       0.863221        23.4894 
 206   0.0000       0.867526        23.6066 
 207   0.0000       0.879626        23.9358 
 208   0.0000       0.882167        24.0050 
 209   0.0000       0.887408        24.1476 
 210   0.0000       0.898108        24.4387 
 211   0.0000       0.901307        24.5258 
 212   0.0000       0.910949        24.7882 
 213   0.0000       0.918400        24.9909 
 214   0.0000       0.920464        25.0471 
 215   0.0000       0.924119        25.1466 
 216   0.0000       0.924392        25.1540 
 217   0.0000       0.928065        25.2539 
 218   0.0000       0.934248        25.4222 
 219   0.0000       0.942020        25.6337 
 220   0.0000       0.944493        25.7010 
 221   0.0000       0.948636        25.8137 
 222   0.0000       0.953483        25.9456 
 223   0.0000       0.963406        26.2156 
 224   0.0000       0.969070        26.3697 
 225   0.0000       0.972820        26.4718 
 226   0.0000       0.987071        26.8596 
 227   0.0000       0.990306        26.9476 
 228   0.0000       0.994588        27.0641 
 229   0.0000       0.997224        27.1359 
 230   0.0000       0.999146        27.1881 
 231   0.0000       1.000151        27.2155 
 232   0.0000       1.015878        27.6434 
 233   0.0000       1.018981        27.7279 
 234   0.0000       1.031008        28.0551 
 235   0.0000       1.033332        28.1184 
 236   0.0000       1.036060        28.1926 
 237   0.0000       1.039238        28.2791 
 238   0.0000       1.050837        28.5947 
 239   0.0000       1.056441        28.7472 
 240   0.0000       1.062913        28.9233 
 241   0.0000       1.079724        29.3808 
 242   0.0000       1.087705        29.5980 
 243   0.0000       1.089481        29.6463 
 244   0.0000       1.106770        30.1167 
 245   0.0000       1.109326        30.1863 
 246   0.0000       1.109760        30.1981 
 247   0.0000       1.126420        30.6514 
 248   0.0000       1.135529        30.8993 
 249   0.0000       1.157719        31.5031 
 250   0.0000       1.159105        31.5408 
 251   0.0000       1.178694        32.0739 
 252   0.0000       1.180053        32.1109 
 253   0.0000       1.184253        32.2252 
 254   0.0000       1.191731        32.4287 
 255   0.0000       1.195306        32.5259 
 256   0.0000       1.202237        32.7145 
 257   0.0000       1.205321        32.7985 
 258   0.0000       1.209013        32.8989 
 259   0.0000       1.211334        32.9621 
 260   0.0000       1.221042        33.2263 
 261   0.0000       1.240329        33.7511 
 262   0.0000       1.248572        33.9754 
 263   0.0000       1.268832        34.5267 
 264   0.0000       1.279436        34.8152 
 265   0.0000       1.285420        34.9780 
 266   0.0000       1.291794        35.1515 
 267   0.0000       1.300188        35.3799 
 268   0.0000       1.302050        35.4306 
 269   0.0000       1.321850        35.9694 
 270   0.0000       1.340322        36.4720 
 271   0.0000       1.346794        36.6481 
 272   0.0000       1.362877        37.0858 
 273   0.0000       1.369598        37.2687 
 274   0.0000       1.378587        37.5133 
 275   0.0000       1.379717        37.5440 
 276   0.0000       1.388535        37.7840 
 277   0.0000       1.392483        37.8914 
 278   0.0000       1.408639        38.3310 
 279   0.0000       1.411323        38.4040 
 280   0.0000       1.425955        38.8022 
 281   0.0000       1.432681        38.9852 
 282   0.0000       1.447307        39.3832 
 283   0.0000       1.449838        39.4521 
 284   0.0000       1.462794        39.8047 
 285   0.0000       1.483309        40.3629 
 286   0.0000       1.492441        40.6114 
 287   0.0000       1.502149        40.8755 
 288   0.0000       1.506219        40.9863 
 289   0.0000       1.510695        41.1081 
 290   0.0000       1.522230        41.4220 
 291   0.0000       1.528241        41.5855 
 292   0.0000       1.542272        41.9674 
 293   0.0000       1.547205        42.1016 
 294   0.0000       1.554691        42.3053 
 295   0.0000       1.558253        42.4022 
 296   0.0000       1.573948        42.8293 
 297   0.0000       1.580336        43.0031 
 298   0.0000       1.584963        43.1290 
 299   0.0000       1.586249        43.1640 
 300   0.0000       1.589049        43.2402 
 301   0.0000       1.597732        43.4765 
 302   0.0000       1.604354        43.6567 
 303   0.0000       1.605451        43.6865 
 304   0.0000       1.607587        43.7447 
 305   0.0000       1.610464        43.8229 
 306   0.0000       1.617205        44.0064 
 307   0.0000       1.619215        44.0611 
 308   0.0000       1.629692        44.3462 
 309   0.0000       1.639663        44.6175 
 310   0.0000       1.652912        44.9780 
 311   0.0000       1.661169        45.2027 
 312   0.0000       1.674883        45.5759 
 313   0.0000       1.676771        45.6272 
 314   0.0000       1.681419        45.7537 
 315   0.0000       1.691303        46.0227 
 316   0.0000       1.697962        46.2039 
 317   0.0000       1.702133        46.3174 
 318   0.0000       1.710015        46.5319 
 319   0.0000       1.717021        46.7225 
 320   0.0000       1.719524        46.7906 
 321   0.0000       1.724632        46.9296 
 322   0.0000       1.731552        47.1179 
 323   0.0000       1.742949        47.4280 
 324   0.0000       1.753387        47.7121 
 325   0.0000       1.754793        47.7504 
 326   0.0000       1.758468        47.8504 
 327   0.0000       1.764102        48.0037 
 328   0.0000       1.773135        48.2494 
 329   0.0000       1.776236        48.3339 
 330   0.0000       1.780798        48.4580 
 331   0.0000       1.787816        48.6489 
 332   0.0000       1.792224        48.7689 
 333   0.0000       1.798806        48.9480 
 334   0.0000       1.808698        49.2172 
 335   0.0000       1.822007        49.5793 
 336   0.0000       1.828023        49.7430 
 337   0.0000       1.831027        49.8248 
 338   0.0000       1.836044        49.9613 
 339   0.0000       1.856429        50.5160 
 340   0.0000       1.869777        50.8792 
 341   0.0000       1.899782        51.6957 
 342   0.0000       1.905619        51.8545 
 343   0.0000       1.920326        52.2547 
 344   0.0000       1.922919        52.3253 
 345   0.0000       1.936370        52.6913 
 346   0.0000       1.945065        52.9279 
 347   0.0000       1.954702        53.1902 
 348   0.0000       1.961750        53.3819 
 349   0.0000       1.969000        53.5792 
 350   0.0000       1.989147        54.1274 
 351   0.0000       2.009939        54.6932 
 352   0.0000       2.010720        54.7145 
 353   0.0000       2.044070        55.6220 
 354   0.0000       2.056063        55.9483 
 355   0.0000       2.070357        56.3373 
 356   0.0000       2.074551        56.4514 
 357   0.0000       2.075861        56.4870 
 358   0.0000       2.100599        57.1602 
 359   0.0000       2.114584        57.5408 
 360   0.0000       2.129211        57.9388 
 361   0.0000       2.149306        58.4856 
 362   0.0000       2.155959        58.6666 
 363   0.0000       2.187658        59.5292 
 364   0.0000       2.194796        59.7234 
[...]
 42 C s       :     2.958315  s :     2.958315
      pz      :     0.986011  p :     3.029846
      px      :     1.062134
      py      :     0.981701
      dz2     :     0.007228  d :     0.079823
      dxz     :     0.025781
      dyz     :     0.000065
      dx2y2   :     0.021464
      dxy     :     0.025284
 43 H s       :     0.857347  s :     0.857347
      pz      :     0.021416  p :     0.098222
      px      :     0.056041
      py      :     0.020766
 44 H s       :     0.888385  s :     0.888385
      pz      :     0.017097  p :     0.080265
      px      :     0.027882
      py      :     0.035286
 45 H s       :     0.865617  s :     0.865617
      pz      :     0.018526  p :     0.082541
      px      :     0.048609
      py      :     0.015406

SPIN
  0 C s       :     0.000000  s :     0.000000
      pz      :     0.000001  p :     0.000002
      px      :     0.000000
      py      :     0.000002
      dz2     :     0.000000  d :    -0.000000
      dxz     :    -0.000000
      dyz     :    -0.000000
      dx2y2   :     0.000000
      dxy     :    -0.000000
  1 C s       :    -0.000000  s :    -0.000000
      pz      :     0.000001  p :     0.000001
      px      :     0.000000
      py      :    -0.000000
      dz2     :    -0.000000  d :    -0.000000
      dxz     :    -0.000000
      dyz     :    -0.000000
      dx2y2   :    -0.000000
      dxy     :    -0.000000
  2 C s       :     0.000000  s :     0.000000
      pz      :    -0.000003  p :    -0.000003
      px      :    -0.000000
      py      :     0.000000
      dz2     :     0.000000  d :     0.000000
      dxz     :     0.000000
      dyz     :     0.000000
      dx2y2   :     0.000000
      dxy     :     0.000000
  3 C s       :     0.000001  s :     0.000001
      pz      :     0.000001  p :     0.000004
      px      :     0.000001
      py      :     0.000002
      dz2     :     0.000000  d :     0.000001
      dxz     :    -0.000000
      dyz     :    -0.000000
      dx2y2   :     0.000001
      dxy     :     0.000000
  4 C s       :     0.000005  s :     0.000005
      pz      :    -0.000002  p :     0.000010
      px      :     0.000002
      py      :     0.000010
      dz2     :     0.000001  d :     0.000005
      dxz     :     0.000000
      dyz     :     0.000000
      dx2y2   :     0.000003
      dxy     :     0.000001
  5 C s       :     0.000022  s :     0.000022
      pz      :     0.000008  p :     0.000063
      px      :     0.000013
      py      :     0.000042
      dz2     :     0.000001  d :     0.000014
      dxz     :    -0.000000
      dyz     :    -0.000000
      dx2y2   :     0.000010
      dxy     :     0.000002
  6 C s       :     0.000002  s :     0.000002
      pz      :    -0.000004  p :    -0.000003
      px      :    -0.000001
      py      :     0.000002
      dz2     :     0.000000  d :     0.000002
      dxz     :     0.000000
      dyz     :     0.000000
      dx2y2   :     0.000001
      dxy     :     0.000000
  7 H s       :     0.000002  s :     0.000002
      pz      :     0.000000  p :     0.000000
      px      :     0.000000
      py      :     0.000000
  8 H s       :    -0.000000  s :    -0.000000
      pz      :    -0.000000  p :     0.000001
      px      :    -0.000000
      py      :     0.000002
  9 C s       :     0.000000  s :     0.000000
      pz      :     0.000000  p :     0.000000
      px      :     0.000000
      py      :     0.000000
      dz2     :    -0.000000  d :    -0.000000
      dxz     :    -0.000000
      dyz     :    -0.000000
      dx2y2   :    -0.000000
      dxy     :    -0.000000
 10 H s       :    -0.000000  s :    -0.000000
      pz      :     0.000000  p :     0.000000
      px      :     0.000000
      py      :    -0.000000
 11 H s       :    -0.000000  s :    -0.000000
      pz      :     0.000000  p :     0.000000
      px      :     0.000000
      py      :    -0.000000
 12 C s       :     0.000000  s :     0.000000
      pz      :     0.000000  p :     0.000000
      px      :     0.000000
      py      :     0.000000
      dz2     :     0.000000  d :     0.000000
      dxz     :    -0.000000
      dyz     :     0.000000
      dx2y2   :     0.000000
      dxy     :     0.000000
 13 H s       :     0.000000  s :     0.000000
      pz      :     0.000000  p :     0.000000
      px      :     0.000000
      py      :     0.000000
 14 H s       :     0.000000  s :     0.000000
      pz      :     0.000000  p :     0.000000
      px      :     0.000000
      py      :     0.000000
 15 C s       :     0.000000  s :     0.000000
      pz      :    -0.000000  p :     0.000000
      px      :     0.000000
      py      :     0.000000
      dz2     :    -0.000000  d :    -0.000000
      dxz     :    -0.000000
      dyz     :    -0.000000
      dx2y2   :    -0.000000
      dxy     :    -0.000000
 16 H s       :    -0.000000  s :    -0.000000
      pz      :     0.000000  p :     0.000000
      px      :    -0.000000
      py      :     0.000000
 17 H s       :     0.000000  s :     0.000000
      pz      :     0.000000  p :     0.000000
      px      :    -0.000000
      py      :     0.000000
 18 C s       :    -0.000000  s :    -0.000000
      pz      :    -0.000000  p :     0.000000
      px      :    -0.000000
      py      :     0.000000
      dz2     :     0.000000  d :     0.000000
      dxz     :    -0.000000
      dyz     :    -0.000000
      dx2y2   :     0.000000
      dxy     :     0.000000
 19 H s       :     0.000000  s :     0.000000
      pz      :     0.000000  p :     0.000000
      px      :     0.000000
      py      :     0.000000
 20 H s       :     0.000000  s :     0.000000
      pz      :     0.000000  p :     0.000000
      px      :     0.000000
      py      :     0.000000
 21 C s       :     0.000037  s :     0.000037
      pz      :     0.000007  p :     0.000152
      px      :     0.000046
      py      :     0.000099
      dz2     :     0.000007  d :     0.000046
      dxz     :    -0.000001
      dyz     :     0.000001
      dx2y2   :     0.000032
      dxy     :     0.000008
 22 H s       :    -0.000003  s :    -0.000003
      pz      :     0.000000  p :     0.000004
      px      :     0.000001
      py      :     0.000003
 23 H s       :    -0.000003  s :    -0.000003
      pz      :     0.000000  p :     0.000004
      px      :     0.000001
      py      :     0.000003
 24 C s       :     0.000234  s :     0.000234
      pz      :     0.000039  p :     0.000956
      px      :     0.000271
      py      :     0.000645
      dz2     :     0.000015  d :     0.000064
      dxz     :    -0.000007
      dyz     :     0.000001
      dx2y2   :     0.000041
      dxy     :     0.000015
 25 H s       :    -0.000030  s :    -0.000030
      pz      :     0.000003  p :     0.000021
      px      :     0.000010
      py      :     0.000008
 26 H s       :    -0.000030  s :    -0.000030
      pz      :     0.000003  p :     0.000021
      px      :     0.000011
      py      :     0.000007
 27 C s       :     0.000155  s :     0.000155
      pz      :     0.000017  p :     0.000694
      px      :     0.000011
      py      :     0.000666
      dz2     :     0.000079  d :     0.000558
      dxz     :    -0.000001
      dyz     :     0.000004
      dx2y2   :     0.000237
      dxy     :     0.000238
 28 H s       :     0.000065  s :     0.000065
      pz      :     0.000001  p :    -0.000011
      px      :     0.000000
      py      :    -0.000011
 29 H s       :     0.000066  s :     0.000066
      pz      :     0.000000  p :    -0.000011
      px      :     0.000000
      py      :    -0.000011
 30 C s       :     0.000775  s :     0.000775
      pz      :     0.000203  p :     0.005695
      px      :     0.002191
      py      :     0.003301
      dz2     :     0.000066  d :     0.000735
      dxz     :    -0.000025
      dyz     :     0.000017
      dx2y2   :     0.000726
      dxy     :    -0.000050
 31 H s       :    -0.000213  s :    -0.000213
      pz      :     0.000035  p :     0.000233
      px      :     0.000011
      py      :     0.000187
 32 H s       :    -0.000212  s :    -0.000212
      pz      :     0.000041  p :     0.000233
      px      :     0.000011
      py      :     0.000181
 33 C s       :     0.017695  s :     0.017695
      pz      :     0.001810  p :     0.040611
      px      :     0.007347
      py      :     0.031454
      dz2     :     0.000199  d :     0.000184
      dxz     :    -0.000277
      dyz     :    -0.000026
      dx2y2   :    -0.000399
      dxy     :     0.000687
 34 H s       :    -0.001207  s :    -0.001207
      pz      :     0.000199  p :     0.001302
      px      :     0.000611
      py      :     0.000493
 35 H s       :    -0.001210  s :    -0.001210
      pz      :     0.000243  p :     0.001302
      px      :     0.000593
      py      :     0.000467
 36 C s       :    -0.004167  s :    -0.004167
      pz      :    -0.003016  p :    -0.019350
      px      :    -0.008008
      py      :    -0.008325
      dz2     :     0.002520  d :     0.034884
      dxz     :     0.000562
      dyz     :     0.000221
      dx2y2   :     0.022032
      dxy     :     0.009549
 37 H s       :     0.010311  s :     0.010311
      pz      :    -0.000231  p :    -0.000765
      px      :     0.000058
      py      :    -0.000592
 38 H s       :     0.010263  s :     0.010263
      pz      :    -0.000230  p :    -0.000764
      px      :     0.000049
      py      :    -0.000582
 39 C s       :     0.027493  s :     0.027493
      pz      :     0.015364  p :     0.863413
      px      :     0.524393
      py      :     0.323656
      dz2     :    -0.001236  d :    -0.003598
      dxz     :    -0.000583
      dyz     :    -0.000454
      dx2y2   :     0.000514
      dxy     :    -0.001840
 40 H s       :    -0.020359  s :    -0.020359
      pz      :     0.002671  p :     0.026980
      px      :     0.014456
      py      :     0.009853
 41 H s       :    -0.020358  s :    -0.020358
      pz      :     0.002742  p :     0.026979
      px      :     0.014492
      py      :     0.009745
 42 C s       :    -0.000000  s :    -0.000000
      pz      :    -0.000002  p :    -0.000003
      px      :    -0.000000
      py      :    -0.000001
      dz2     :     0.000000  d :     0.000000
      dxz     :     0.000000
      dyz     :     0.000000
      dx2y2   :     0.000000
      dxy     :     0.000000
 43 H s       :     0.000000  s :     0.000000
      pz      :    -0.000000  p :    -0.000000
      px      :    -0.000000
      py      :    -0.000000
 44 H s       :     0.000000  s :     0.000000
      pz      :     0.000000  p :     0.000000
      px      :     0.000000
      py      :     0.000000
 45 H s       :    -0.000000  s :    -0.000000
      pz      :     0.000000  p :     0.000000
      px      :     0.000000
      py      :     0.000000


                      *****************************
                      * MAYER POPULATION ANALYSIS *
                      *****************************

  NA   - Mulliken gross atomic population
  ZA   - Total nuclear charge
  QA   - Mulliken gross atomic charge
  VA   - Mayer's total valence
  BVA  - Mayer's bonded valence
  FA   - Mayer's free valence

  ATOM       NA         ZA         QA         VA         BVA        FA
  0 C      6.0040     6.0000    -0.0040     3.8163     3.8163     0.0000
  1 C      6.3308     6.0000    -0.3308     4.2390     4.2390     0.0000
  2 C      5.5002     6.0000     0.4998     3.7531     3.7531     0.0000
  3 C      6.4382     6.0000    -0.4382     4.3182     4.3182     0.0000
  4 C      5.5796     6.0000     0.4204     3.9253     3.9253     0.0000
  5 C      5.7244     6.0000     0.2756     3.8534     3.8534     0.0000
  6 C      6.2404     6.0000    -0.2404     4.1894     4.1894     0.0000
  7 H      0.8694     1.0000     0.1306     0.9646     0.9646    -0.0000
  8 H      0.8845     1.0000     0.1155     0.9692     0.9692     0.0000
  9 C      6.3975     6.0000    -0.3975     4.0088     4.0088     0.0000
 10 H      0.8524     1.0000     0.1476     0.9643     0.9643     0.0000
 11 H      0.8505     1.0000     0.1495     0.9638     0.9638     0.0000
 12 C      6.2657     6.0000    -0.2657     4.0108     4.0108     0.0000
 13 H      0.8552     1.0000     0.1448     0.9659     0.9659     0.0000
 14 H      0.8572     1.0000     0.1428     0.9664     0.9664     0.0000
 15 C      6.2646     6.0000    -0.2646     3.8910     3.8910     0.0000
 16 H      0.8569     1.0000     0.1431     0.9673     0.9673    -0.0000
 17 H      0.8567     1.0000     0.1433     0.9671     0.9671     0.0000
 18 C      6.5100     6.0000    -0.5100     3.8997     3.8997    -0.0000
 19 H      0.8400     1.0000     0.1600     0.9652     0.9652     0.0000
 20 H      0.8399     1.0000     0.1601     0.9651     0.9651     0.0000
 21 C      6.3899     6.0000    -0.3899     4.0368     4.0368    -0.0000
 22 H      0.8422     1.0000     0.1578     0.9620     0.9620     0.0000
 23 H      0.8419     1.0000     0.1581     0.9618     0.9618     0.0000
 24 C      6.2757     6.0000    -0.2757     3.9764     3.9764     0.0000
 25 H      0.8562     1.0000     0.1438     0.9674     0.9674     0.0000
 26 H      0.8558     1.0000     0.1442     0.9673     0.9673     0.0000
 27 C      6.2921     6.0000    -0.2921     3.9428     3.9428    -0.0000
 28 H      0.8543     1.0000     0.1457     0.9686     0.9686     0.0000
 29 H      0.8540     1.0000     0.1460     0.9686     0.9686     0.0000
 30 C      6.2877     6.0000    -0.2877     3.9303     3.9302     0.0001
 31 H      0.8526     1.0000     0.1474     0.9692     0.9692     0.0000
 32 H      0.8526     1.0000     0.1474     0.9693     0.9693     0.0000
 33 C      6.3080     6.0000    -0.3080     3.9067     3.9019     0.0048
 34 H      0.8412     1.0000     0.1588     0.9661     0.9661     0.0000
 35 H      0.8412     1.0000     0.1588     0.9661     0.9661     0.0000
 36 C      6.2303     6.0000    -0.2303     3.8789     3.8769     0.0020
 37 H      0.8502     1.0000     0.1498     0.9680     0.9679     0.0001
 38 H      0.8502     1.0000     0.1498     0.9681     0.9679     0.0001
 39 C      6.4350     6.0000    -0.4350     3.8503     2.9887     0.8616
 40 H      0.8322     1.0000     0.1678     0.9700     0.9680     0.0020
 41 H      0.8322     1.0000     0.1678     0.9700     0.9680     0.0020
 42 C      6.5367     6.0000    -0.5367     3.8961     3.8961     0.0000
 43 H      0.8187     1.0000     0.1813     0.9773     0.9773     0.0000
 44 H      0.8554     1.0000     0.1446     0.9666     0.9666    -0.0000
 45 H      0.8956     1.0000     0.1044     0.9597     0.9597     0.0000

  Mayer bond orders larger than 0.100000
B(  0-C ,  4-C ) :   0.9118 B(  0-C , 42-C ) :   2.7017 B(  1-C ,  2-C ) :   1.3713 
B(  1-C ,  3-C ) :   0.1187 B(  1-C ,  5-C ) :   0.1018 B(  1-C ,  6-C ) :   1.4835 
B(  1-C , 45-H ) :   0.9822 B(  2-C ,  3-C ) :   1.4470 B(  2-C ,  4-C ) :   0.1035 
B(  2-C ,  9-C ) :   0.8993 B(  3-C ,  4-C ) :   1.4223 B(  3-C ,  7-H ) :   0.9808 
B(  4-C ,  5-C ) :   1.3799 B(  4-C ,  6-C ) :   0.1067 B(  5-C ,  6-C ) :   1.4247 
B(  5-C , 21-C ) :   0.9449 B(  6-C ,  8-H ) :   0.9776 B(  9-C , 10-H ) :   0.9693 
B(  9-C , 11-H ) :   0.9679 B(  9-C , 12-C ) :   1.0190 B( 12-C , 13-H ) :   0.9639 
B( 12-C , 14-H ) :   0.9620 B( 12-C , 15-C ) :   0.9825 B( 15-C , 16-H ) :   0.9730 
B( 15-C , 17-H ) :   0.9726 B( 15-C , 18-C ) :   0.9565 B( 18-C , 19-H ) :   0.9721 
B( 18-C , 20-H ) :   0.9719 B( 18-C , 44-H ) :   0.9687 B( 21-C , 22-H ) :   0.9584 
B( 21-C , 23-H ) :   0.9589 B( 21-C , 24-C ) :   1.0018 B( 24-C , 25-H ) :   0.9629 
B( 24-C , 26-H ) :   0.9632 B( 24-C , 27-C ) :   0.9721 B( 27-C , 28-H ) :   0.9765 
B( 27-C , 29-H ) :   0.9768 B( 27-C , 30-C ) :   0.9685 B( 30-C , 31-H ) :   0.9809 
B( 30-C , 32-H ) :   0.9809 B( 30-C , 33-C ) :   0.9549 B( 33-C , 34-H ) :   0.9792 
B( 33-C , 35-H ) :   0.9791 B( 33-C , 36-C ) :   0.9351 B( 36-C , 37-H ) :   0.9781 
B( 36-C , 38-H ) :   0.9782 B( 36-C , 39-C ) :   0.9737 B( 39-C , 40-H ) :   0.9738 
B( 39-C , 41-H ) :   0.9738 B( 42-C , 43-H ) :   0.9833 

-------
TIMINGS
-------

Total SCF time: 0 days 0 hours 0 min 55 sec 

Total time                  ....      55.835 sec
Sum of individual times     ....      52.274 sec  ( 93.6%)

Fock matrix formation       ....      46.312 sec  ( 82.9%)
  Split-RI-J                ....       3.725 sec  (  8.0% of F)
  Chain of spheres X        ....      29.780 sec  ( 64.3% of F)
  XC integration            ....       9.645 sec  ( 20.8% of F)
    Basis function eval.    ....       0.730 sec  (  7.6% of XC)
    Density eval.           ....       1.112 sec  ( 11.5% of XC)
    XC-Functional eval.     ....       0.198 sec  (  2.1% of XC)
    XC-Potential eval.      ....       0.690 sec  (  7.2% of XC)
Diagonalization             ....       1.360 sec  (  2.4%)
Density matrix formation    ....       0.116 sec  (  0.2%)
Population analysis         ....       0.387 sec  (  0.7%)
Initial guess               ....       0.226 sec  (  0.4%)
Orbital Transformation      ....       0.000 sec  (  0.0%)
Orbital Orthonormalization  ....       0.172 sec  (  0.3%)
DIIS solution               ....       0.803 sec  (  1.4%)
Grid generation             ....       3.070 sec  (  5.5%)

Maximum memory used throughout the entire SCF-calculation: 112.1 MB

-------------------------   --------------------
FINAL SINGLE POINT ENERGY      -739.770865961164
-------------------------   --------------------

                                *** OPTIMIZATION RUN DONE ***

                            ***************************************
                            *     ORCA property calculations      *
                            ***************************************

                                    ---------------------
                                    Active property flags
                                    ---------------------
   (+) Dipole Moment


------------------------------------------------------------------------------
                       ORCA ELECTRIC PROPERTIES CALCULATION
------------------------------------------------------------------------------

Dipole Moment Calculation                       ... on
Quadrupole Moment Calculation                   ... off
Polarizability Calculation                      ... off
GBWName                                         ... opt_EPRII.gbw
Electron density                                ... opt_EPRII.scfp
The origin for moment calculation is the CENTER OF MASS  = ( 3.771296,  2.679669 -0.268737)

-------------
DIPOLE MOMENT
-------------
                                X             Y             Z
Electronic contribution:      4.29147      -7.80919       0.33610
Nuclear contribution   :     -4.61784       7.66551      -0.33843
                        -----------------------------------------
Total Dipole Moment    :     -0.32637      -0.14368      -0.00234
                        -----------------------------------------
Magnitude (a.u.)       :      0.35661
Magnitude (Debye)      :      0.90642



--------------------
Rotational spectrum 
--------------------
 
Rotational constants in cm-1:     0.035987     0.002958     0.002749 
Rotational constants in MHz :  1078.855266    88.673583    82.402355 

 Dipole components along the rotational axes: 
x,y,z [a.u.] :    -0.200454    -0.294930     0.001344 
x,y,z [Debye]:    -0.509513    -0.749653     0.003416 

 

Timings for individual modules:

Sum of individual times         ...      554.650 sec (=   9.244 min)
GTO integral calculation        ...       17.811 sec (=   0.297 min)   3.2 %
SCF iterations                  ...      428.212 sec (=   7.137 min)  77.2 %
SCF Gradient evaluation         ...      106.755 sec (=   1.779 min)  19.2 %
Geometry relaxation             ...        1.872 sec (=   0.031 min)   0.3 %
                             ****ORCA TERMINATED NORMALLY****
TOTAL RUN TIME: 0 days 0 hours 9 minutes 33 seconds 433 msec
