 Entering Gaussian System, Link 0=g09
 Input=g09BDE.com
 Output=g09BDE.log
 Initial command:
 /hits/basement/its/doserbd/software/gaussian/g09d1/g09/l1.exe "/hits/basement/mbm/sucerquia/gaussian_scratch/Gau-2489072.inp" -scrdir="/hits/basement/mbm/sucerquia/gaussian_scratch/"
 Entering Link 1 = /hits/basement/its/doserbd/software/gaussian/g09d1/g09/l1.exe PID=   2489074.
  
 Copyright (c) 1988,1990,1992,1993,1995,1998,2003,2009,2013,
            Gaussian, Inc.  All Rights Reserved.
  
 This is part of the Gaussian(R) 09 program.  It is based on
 the Gaussian(R) 03 system (copyright 2003, Gaussian, Inc.),
 the Gaussian(R) 98 system (copyright 1998, Gaussian, Inc.),
 the Gaussian(R) 94 system (copyright 1995, Gaussian, Inc.),
 the Gaussian 92(TM) system (copyright 1992, Gaussian, Inc.),
 the Gaussian 90(TM) system (copyright 1990, Gaussian, Inc.),
 the Gaussian 88(TM) system (copyright 1988, Gaussian, Inc.),
 the Gaussian 86(TM) system (copyright 1986, Carnegie Mellon
 University), and the Gaussian 82(TM) system (copyright 1983,
 Carnegie Mellon University). Gaussian is a federally registered
 trademark of Gaussian, Inc.
  
 This software contains proprietary and confidential information,
 including trade secrets, belonging to Gaussian, Inc.
  
 This software is provided under written license and may be
 used, copied, transmitted, or stored only in accord with that
 written license.
  
 The following legend is applicable only to US Government
 contracts under FAR:
  
                    RESTRICTED RIGHTS LEGEND
  
 Use, reproduction and disclosure by the US Government is
 subject to restrictions as set forth in subparagraphs (a)
 and (c) of the Commercial Computer Software - Restricted
 Rights clause in FAR 52.227-19.
  
 Gaussian, Inc.
 340 Quinnipiac St., Bldg. 40, Wallingford CT 06492
  
  
 ---------------------------------------------------------------
 Warning -- This program may not be used in any manner that
 competes with the business of Gaussian, Inc. or will provide
 assistance to any competitor of Gaussian, Inc.  The licensee
 of this program is prohibited from giving any competitor of
 Gaussian, Inc. access to this program.  By using this program,
 the user acknowledges that Gaussian, Inc. is engaged in the
 business of creating and licensing software in the field of
 computational chemistry and represents and warrants to the
 licensee that it is not a competitor of Gaussian, Inc. and that
 it will not use this program in any manner prohibited above.
 ---------------------------------------------------------------
  

 Cite this work as:
 Gaussian 09, Revision D.01,
 M. J. Frisch, G. W. Trucks, H. B. Schlegel, G. E. Scuseria, 
 M. A. Robb, J. R. Cheeseman, G. Scalmani, V. Barone, B. Mennucci, 
 G. A. Petersson, H. Nakatsuji, M. Caricato, X. Li, H. P. Hratchian, 
 A. F. Izmaylov, J. Bloino, G. Zheng, J. L. Sonnenberg, M. Hada, 
 M. Ehara, K. Toyota, R. Fukuda, J. Hasegawa, M. Ishida, T. Nakajima, 
 Y. Honda, O. Kitao, H. Nakai, T. Vreven, J. A. Montgomery, Jr., 
 J. E. Peralta, F. Ogliaro, M. Bearpark, J. J. Heyd, E. Brothers, 
 K. N. Kudin, V. N. Staroverov, T. Keith, R. Kobayashi, J. Normand, 
 K. Raghavachari, A. Rendell, J. C. Burant, S. S. Iyengar, J. Tomasi, 
 M. Cossi, N. Rega, J. M. Millam, M. Klene, J. E. Knox, J. B. Cross, 
 V. Bakken, C. Adamo, J. Jaramillo, R. Gomperts, R. E. Stratmann, 
 O. Yazyev, A. J. Austin, R. Cammi, C. Pomelli, J. W. Ochterski, 
 R. L. Martin, K. Morokuma, V. G. Zakrzewski, G. A. Voth, 
 P. Salvador, J. J. Dannenberg, S. Dapprich, A. D. Daniels, 
 O. Farkas, J. B. Foresman, J. V. Ortiz, J. Cioslowski, 
 and D. J. Fox, Gaussian, Inc., Wallingford CT, 2013.
 
 ******************************************
 Gaussian 09:  ES64L-G09RevD.01 24-Apr-2013
                10-May-2024 
 ******************************************
 %chk=g09BDE
 %NProcShared=8
 Will use up to    8 processors via shared memory.
 ---------------------------------------
 #P bmk/6-31+g opt(modredun,calcfc) freq
 ---------------------------------------
 1/10=4,14=-1,18=120,19=15,26=3,38=1/1,3;
 2/9=110,12=2,17=6,18=5,40=1/2;
 3/5=1,6=6,7=10,11=2,16=1,25=1,30=1,71=2,74=-34,140=1/1,2,3;
 4//1;
 5/5=2,38=5/2;
 8/6=4,10=90,11=11/1;
 11/6=1,8=1,9=11,15=111,16=1/1,2,10;
 10/6=1,13=1/2;
 6/7=2,8=2,9=2,10=2,28=1/1;
 7/10=1,18=20,25=1/1,2,3,16;
 1/10=4,14=-1,18=20,19=15,26=3/3(2);
 2/9=110/2;
 99//99;
 2/9=110/2;
 3/5=1,6=6,7=10,11=2,16=1,25=1,30=1,71=1,74=-34/1,2,3;
 4/5=5,16=3,69=1/1;
 5/5=2,38=5/2;
 7//1,2,3,16;
 1/14=-1,18=20,19=15,26=3/3(-5);
 2/9=110/2;
 6/7=2,8=2,9=2,10=2,19=2,28=1/1;
 99/9=1/99;
 Leave Link    1 at Fri May 10 15:44:18 2024, MaxMem=           0 cpu:         0.6
 (Enter /hits/basement/its/doserbd/software/gaussian/g09d1/g09/l101.exe)
 ------------------------------
 Gaussian input prepared by ASE
 ------------------------------
 Symbolic Z-matrix:
 Charge =  0 Multiplicity = 2
 C                     1.31437   0.00275  -0.00008 
 C                     0.71891   1.25853  -0.00372 
 C                    -0.69654   1.21502  -0.00379 
 C                    -1.39113  -0.00468  -0.00041 
 C                    -0.72808  -1.24825   0.00324 
 C                     0.68898  -1.23127   0.00337 
 H                    -1.26165   2.14358  -0.00649 
 H                     1.26317  -2.15268   0.00608 
 C                     1.54308   2.54093  -0.00738 
 H                     2.20545   2.52049  -0.883 
 H                     2.2074    2.52419   0.86683 
 C                     0.74606   3.855    -0.0093 
 H                     0.08955   3.89016  -0.88905 
 H                     0.0915    3.89386   0.87175 
 C                     1.65516   5.09703  -0.01298 
 H                     2.31419   5.06563   0.8649 
 H                     2.31213   5.06191  -0.89226 
 C                     0.8673    6.41858  -0.01489 
 H                     0.22572   6.49584   0.87019 
 H                     0.22325   6.49179  -0.89851 
 C                    -1.54143  -2.53894   0.00693 
 H                    -2.20439  -2.52508   0.88327 
 H                    -2.20546  -2.52938  -0.86866 
 C                    -0.7433   -3.8522    0.00968 
 H                    -0.08845  -3.89006  -0.87113 
 H                    -0.08719  -3.88564   0.88973 
 C                    -1.64923  -5.0966    0.0135 
 H                    -2.30659  -5.06298   0.89263 
 H                    -2.30799  -5.06737  -0.86474 
 C                    -0.85789  -6.41604   0.0162 
 H                    -0.21394  -6.48713   0.90003 
 H                    -0.21577  -6.49188  -0.86856 
 H                     1.53883   7.28341  -0.0178 
 H                    -1.52713  -7.28264   0.01922 
 H                    -2.47949   0.0118   -0.00062 
 
 The following ModRedundant input section has been read:
 
 NAtoms=     35 NQM=       35 NQMF=       0 NMMI=      0 NMMIF=      0
                NMic=       0 NMicF=      0.
                    Isotopes and Nuclear Properties:
 (Nuclear quadrupole moments (NQMom) in fm**2, nuclear magnetic moments (NMagM)
  in nuclear magnetons)

  Atom         1           2           3           4           5           6           7           8           9          10
 IAtWgt=          12          12          12          12          12          12           1           1          12           1
 AtmWgt=  12.0000000  12.0000000  12.0000000  12.0000000  12.0000000  12.0000000   1.0078250   1.0078250  12.0000000   1.0078250
 NucSpn=           0           0           0           0           0           0           1           1           0           1
 AtZEff=   0.0000000   0.0000000   0.0000000   0.0000000   0.0000000   0.0000000   0.0000000   0.0000000   0.0000000   0.0000000
 NQMom=    0.0000000   0.0000000   0.0000000   0.0000000   0.0000000   0.0000000   0.0000000   0.0000000   0.0000000   0.0000000
 NMagM=    0.0000000   0.0000000   0.0000000   0.0000000   0.0000000   0.0000000   2.7928460   2.7928460   0.0000000   2.7928460
 AtZNuc=   6.0000000   6.0000000   6.0000000   6.0000000   6.0000000   6.0000000   1.0000000   1.0000000   6.0000000   1.0000000

  Atom        11          12          13          14          15          16          17          18          19          20
 IAtWgt=           1          12           1           1          12           1           1          12           1           1
 AtmWgt=   1.0078250  12.0000000   1.0078250   1.0078250  12.0000000   1.0078250   1.0078250  12.0000000   1.0078250   1.0078250
 NucSpn=           1           0           1           1           0           1           1           0           1           1
 AtZEff=   0.0000000   0.0000000   0.0000000   0.0000000   0.0000000   0.0000000   0.0000000   0.0000000   0.0000000   0.0000000
 NQMom=    0.0000000   0.0000000   0.0000000   0.0000000   0.0000000   0.0000000   0.0000000   0.0000000   0.0000000   0.0000000
 NMagM=    2.7928460   0.0000000   2.7928460   2.7928460   0.0000000   2.7928460   2.7928460   0.0000000   2.7928460   2.7928460
 AtZNuc=   1.0000000   6.0000000   1.0000000   1.0000000   6.0000000   1.0000000   1.0000000   6.0000000   1.0000000   1.0000000

  Atom        21          22          23          24          25          26          27          28          29          30
 IAtWgt=          12           1           1          12           1           1          12           1           1          12
 AtmWgt=  12.0000000   1.0078250   1.0078250  12.0000000   1.0078250   1.0078250  12.0000000   1.0078250   1.0078250  12.0000000
 NucSpn=           0           1           1           0           1           1           0           1           1           0
 AtZEff=   0.0000000   0.0000000   0.0000000   0.0000000   0.0000000   0.0000000   0.0000000   0.0000000   0.0000000   0.0000000
 NQMom=    0.0000000   0.0000000   0.0000000   0.0000000   0.0000000   0.0000000   0.0000000   0.0000000   0.0000000   0.0000000
 NMagM=    0.0000000   2.7928460   2.7928460   0.0000000   2.7928460   2.7928460   0.0000000   2.7928460   2.7928460   0.0000000
 AtZNuc=   6.0000000   1.0000000   1.0000000   6.0000000   1.0000000   1.0000000   6.0000000   1.0000000   1.0000000   6.0000000

  Atom        31          32          33          34          35
 IAtWgt=           1           1           1           1           1
 AtmWgt=   1.0078250   1.0078250   1.0078250   1.0078250   1.0078250
 NucSpn=           1           1           1           1           1
 AtZEff=   0.0000000   0.0000000   0.0000000   0.0000000   0.0000000
 NQMom=    0.0000000   0.0000000   0.0000000   0.0000000   0.0000000
 NMagM=    2.7928460   2.7928460   2.7928460   2.7928460   2.7928460
 AtZNuc=   1.0000000   1.0000000   1.0000000   1.0000000   1.0000000
 Leave Link  101 at Fri May 10 15:44:19 2024, MaxMem=    33554432 cpu:         0.4
 (Enter /hits/basement/its/doserbd/software/gaussian/g09d1/g09/l103.exe)

 GradGradGradGradGradGradGradGradGradGradGradGradGradGradGradGradGradGrad
 Berny optimization.
 Initialization pass.
                           ----------------------------
                           !    Initial Parameters    !
                           ! (Angstroms and Degrees)  !
 --------------------------                            --------------------------
 ! Name  Definition              Value          Derivative Info.                !
 --------------------------------------------------------------------------------
 ! R1    R(1,2)                  1.3898         calculate D2E/DX2 analytically  !
 ! R2    R(1,6)                  1.3834         calculate D2E/DX2 analytically  !
 ! R3    R(2,3)                  1.4161         calculate D2E/DX2 analytically  !
 ! R4    R(2,9)                  1.5244         calculate D2E/DX2 analytically  !
 ! R5    R(3,4)                  1.4036         calculate D2E/DX2 analytically  !
 ! R6    R(3,7)                  1.087          calculate D2E/DX2 analytically  !
 ! R7    R(4,5)                  1.4093         calculate D2E/DX2 analytically  !
 ! R8    R(4,35)                 1.0885         calculate D2E/DX2 analytically  !
 ! R9    R(5,6)                  1.4172         calculate D2E/DX2 analytically  !
 ! R10   R(5,21)                 1.5256         calculate D2E/DX2 analytically  !
 ! R11   R(6,8)                  1.0857         calculate D2E/DX2 analytically  !
 ! R12   R(9,10)                 1.0981         calculate D2E/DX2 analytically  !
 ! R13   R(9,11)                 1.0981         calculate D2E/DX2 analytically  !
 ! R14   R(9,12)                 1.5369         calculate D2E/DX2 analytically  !
 ! R15   R(12,13)                1.0983         calculate D2E/DX2 analytically  !
 ! R16   R(12,14)                1.0983         calculate D2E/DX2 analytically  !
 ! R17   R(12,15)                1.5392         calculate D2E/DX2 analytically  !
 ! R18   R(15,16)                1.0982         calculate D2E/DX2 analytically  !
 ! R19   R(15,17)                1.0982         calculate D2E/DX2 analytically  !
 ! R20   R(15,18)                1.5386         calculate D2E/DX2 analytically  !
 ! R21   R(18,19)                1.0959         calculate D2E/DX2 analytically  !
 ! R22   R(18,20)                1.0959         calculate D2E/DX2 analytically  !
 ! R23   R(18,33)                1.0949         calculate D2E/DX2 analytically  !
 ! R24   R(21,22)                1.0989         calculate D2E/DX2 analytically  !
 ! R25   R(21,23)                1.0989         calculate D2E/DX2 analytically  !
 ! R26   R(21,24)                1.5368         calculate D2E/DX2 analytically  !
 ! R27   R(24,25)                1.0982         calculate D2E/DX2 analytically  !
 ! R28   R(24,26)                1.0982         calculate D2E/DX2 analytically  !
 ! R29   R(24,27)                1.5392         calculate D2E/DX2 analytically  !
 ! R30   R(27,28)                1.0982         calculate D2E/DX2 analytically  !
 ! R31   R(27,29)                1.0982         calculate D2E/DX2 analytically  !
 ! R32   R(27,30)                1.5386         calculate D2E/DX2 analytically  !
 ! R33   R(30,31)                1.0958         calculate D2E/DX2 analytically  !
 ! R34   R(30,32)                1.0958         calculate D2E/DX2 analytically  !
 ! R35   R(30,34)                1.0949         calculate D2E/DX2 analytically  !
 ! A1    A(2,1,6)              127.7549         calculate D2E/DX2 analytically  !
 ! A2    A(1,2,3)              113.609          calculate D2E/DX2 analytically  !
 ! A3    A(1,2,9)              121.9027         calculate D2E/DX2 analytically  !
 ! A4    A(3,2,9)              124.4883         calculate D2E/DX2 analytically  !
 ! A5    A(2,3,4)              121.4209         calculate D2E/DX2 analytically  !
 ! A6    A(2,3,7)              119.5635         calculate D2E/DX2 analytically  !
 ! A7    A(4,3,7)              119.0156         calculate D2E/DX2 analytically  !
 ! A8    A(3,4,5)              122.2738         calculate D2E/DX2 analytically  !
 ! A9    A(3,4,35)             118.7929         calculate D2E/DX2 analytically  !
 ! A10   A(5,4,35)             118.9334         calculate D2E/DX2 analytically  !
 ! A11   A(4,5,6)              117.3793         calculate D2E/DX2 analytically  !
 ! A12   A(4,5,21)             119.7166         calculate D2E/DX2 analytically  !
 ! A13   A(6,5,21)             122.9041         calculate D2E/DX2 analytically  !
 ! A14   A(1,6,5)              117.5622         calculate D2E/DX2 analytically  !
 ! A15   A(1,6,8)              121.1951         calculate D2E/DX2 analytically  !
 ! A16   A(5,6,8)              121.2428         calculate D2E/DX2 analytically  !
 ! A17   A(2,9,10)             108.2019         calculate D2E/DX2 analytically  !
 ! A18   A(2,9,11)             108.2008         calculate D2E/DX2 analytically  !
 ! A19   A(2,9,12)             116.0345         calculate D2E/DX2 analytically  !
 ! A20   A(10,9,11)            105.6405         calculate D2E/DX2 analytically  !
 ! A21   A(10,9,12)            109.1309         calculate D2E/DX2 analytically  !
 ! A22   A(11,9,12)            109.1326         calculate D2E/DX2 analytically  !
 ! A23   A(9,12,13)            109.7775         calculate D2E/DX2 analytically  !
 ! A24   A(9,12,14)            109.7745         calculate D2E/DX2 analytically  !
 ! A25   A(9,12,15)            112.5602         calculate D2E/DX2 analytically  !
 ! A26   A(13,12,14)           106.5712         calculate D2E/DX2 analytically  !
 ! A27   A(13,12,15)           108.9846         calculate D2E/DX2 analytically  !
 ! A28   A(14,12,15)           108.9887         calculate D2E/DX2 analytically  !
 ! A29   A(12,15,16)           109.2359         calculate D2E/DX2 analytically  !
 ! A30   A(12,15,17)           109.2351         calculate D2E/DX2 analytically  !
 ! A31   A(12,15,18)           112.9959         calculate D2E/DX2 analytically  !
 ! A32   A(16,15,17)           106.2683         calculate D2E/DX2 analytically  !
 ! A33   A(16,15,18)           109.4424         calculate D2E/DX2 analytically  !
 ! A34   A(17,15,18)           109.4404         calculate D2E/DX2 analytically  !
 ! A35   A(15,18,19)           111.0601         calculate D2E/DX2 analytically  !
 ! A36   A(15,18,20)           111.0585         calculate D2E/DX2 analytically  !
 ! A37   A(15,18,33)           111.3691         calculate D2E/DX2 analytically  !
 ! A38   A(19,18,20)           107.6043         calculate D2E/DX2 analytically  !
 ! A39   A(19,18,33)           107.7895         calculate D2E/DX2 analytically  !
 ! A40   A(20,18,33)           107.7899         calculate D2E/DX2 analytically  !
 ! A41   A(5,21,22)            108.2329         calculate D2E/DX2 analytically  !
 ! A42   A(5,21,23)            108.2318         calculate D2E/DX2 analytically  !
 ! A43   A(5,21,24)            116.4933         calculate D2E/DX2 analytically  !
 ! A44   A(22,21,23)           105.7079         calculate D2E/DX2 analytically  !
 ! A45   A(22,21,24)           108.8239         calculate D2E/DX2 analytically  !
 ! A46   A(23,21,24)           108.8248         calculate D2E/DX2 analytically  !
 ! A47   A(21,24,25)           109.7372         calculate D2E/DX2 analytically  !
 ! A48   A(21,24,26)           109.7395         calculate D2E/DX2 analytically  !
 ! A49   A(21,24,27)           112.6561         calculate D2E/DX2 analytically  !
 ! A50   A(25,24,26)           106.5839         calculate D2E/DX2 analytically  !
 ! A51   A(25,24,27)           108.9694         calculate D2E/DX2 analytically  !
 ! A52   A(26,24,27)           108.9662         calculate D2E/DX2 analytically  !
 ! A53   A(24,27,28)           109.2399         calculate D2E/DX2 analytically  !
 ! A54   A(24,27,29)           109.2403         calculate D2E/DX2 analytically  !
 ! A55   A(24,27,30)           112.9918         calculate D2E/DX2 analytically  !
 ! A56   A(28,27,29)           106.2777         calculate D2E/DX2 analytically  !
 ! A57   A(28,27,30)           109.4335         calculate D2E/DX2 analytically  !
 ! A58   A(29,27,30)           109.4356         calculate D2E/DX2 analytically  !
 ! A59   A(27,30,31)           111.0564         calculate D2E/DX2 analytically  !
 ! A60   A(27,30,32)           111.0579         calculate D2E/DX2 analytically  !
 ! A61   A(27,30,34)           111.3693         calculate D2E/DX2 analytically  !
 ! A62   A(31,30,32)           107.5993         calculate D2E/DX2 analytically  !
 ! A63   A(31,30,34)           107.7944         calculate D2E/DX2 analytically  !
 ! A64   A(32,30,34)           107.7943         calculate D2E/DX2 analytically  !
 ! D1    D(6,1,2,3)             -0.0017         calculate D2E/DX2 analytically  !
 ! D2    D(6,1,2,9)           -179.9963         calculate D2E/DX2 analytically  !
 ! D3    D(2,1,6,5)              0.0013         calculate D2E/DX2 analytically  !
 ! D4    D(2,1,6,8)           -179.9989         calculate D2E/DX2 analytically  !
 ! D5    D(1,2,3,4)              0.0006         calculate D2E/DX2 analytically  !
 ! D6    D(1,2,3,7)            179.9993         calculate D2E/DX2 analytically  !
 ! D7    D(9,2,3,4)            179.9949         calculate D2E/DX2 analytically  !
 ! D8    D(9,2,3,7)             -0.0063         calculate D2E/DX2 analytically  !
 ! D9    D(1,2,9,10)            57.0836         calculate D2E/DX2 analytically  !
 ! D10   D(1,2,9,11)           -56.9243         calculate D2E/DX2 analytically  !
 ! D11   D(1,2,9,12)          -179.921          calculate D2E/DX2 analytically  !
 ! D12   D(3,2,9,10)          -122.9103         calculate D2E/DX2 analytically  !
 ! D13   D(3,2,9,11)           123.0818         calculate D2E/DX2 analytically  !
 ! D14   D(3,2,9,12)             0.0851         calculate D2E/DX2 analytically  !
 ! D15   D(2,3,4,5)              0.0009         calculate D2E/DX2 analytically  !
 ! D16   D(2,3,4,35)          -179.999          calculate D2E/DX2 analytically  !
 ! D17   D(7,3,4,5)           -179.9979         calculate D2E/DX2 analytically  !
 ! D18   D(7,3,4,35)             0.0023         calculate D2E/DX2 analytically  !
 ! D19   D(3,4,5,6)             -0.0013         calculate D2E/DX2 analytically  !
 ! D20   D(3,4,5,21)           179.9948         calculate D2E/DX2 analytically  !
 ! D21   D(35,4,5,6)           179.9985         calculate D2E/DX2 analytically  !
 ! D22   D(35,4,5,21)           -0.0053         calculate D2E/DX2 analytically  !
 ! D23   D(4,5,6,1)              0.0003         calculate D2E/DX2 analytically  !
 ! D24   D(4,5,6,8)           -179.9995         calculate D2E/DX2 analytically  !
 ! D25   D(21,5,6,1)          -179.9957         calculate D2E/DX2 analytically  !
 ! D26   D(21,5,6,8)             0.0045         calculate D2E/DX2 analytically  !
 ! D27   D(4,5,21,22)          -57.1053         calculate D2E/DX2 analytically  !
 ! D28   D(4,5,21,23)           57.0129         calculate D2E/DX2 analytically  !
 ! D29   D(4,5,21,24)          179.9539         calculate D2E/DX2 analytically  !
 ! D30   D(6,5,21,22)          122.8906         calculate D2E/DX2 analytically  !
 ! D31   D(6,5,21,23)         -122.9912         calculate D2E/DX2 analytically  !
 ! D32   D(6,5,21,24)           -0.0502         calculate D2E/DX2 analytically  !
 ! D33   D(2,9,12,13)          -58.4159         calculate D2E/DX2 analytically  !
 ! D34   D(2,9,12,14)           58.4145         calculate D2E/DX2 analytically  !
 ! D35   D(2,9,12,15)         -179.9992         calculate D2E/DX2 analytically  !
 ! D36   D(10,9,12,13)          64.0915         calculate D2E/DX2 analytically  !
 ! D37   D(10,9,12,14)        -179.0781         calculate D2E/DX2 analytically  !
 ! D38   D(10,9,12,15)         -57.4917         calculate D2E/DX2 analytically  !
 ! D39   D(11,9,12,13)         179.0767         calculate D2E/DX2 analytically  !
 ! D40   D(11,9,12,14)         -64.0928         calculate D2E/DX2 analytically  !
 ! D41   D(11,9,12,15)          57.4935         calculate D2E/DX2 analytically  !
 ! D42   D(9,12,15,16)         -57.9211         calculate D2E/DX2 analytically  !
 ! D43   D(9,12,15,17)          57.9276         calculate D2E/DX2 analytically  !
 ! D44   D(9,12,15,18)        -179.9983         calculate D2E/DX2 analytically  !
 ! D45   D(13,12,15,16)       -179.9541         calculate D2E/DX2 analytically  !
 ! D46   D(13,12,15,17)        -64.1054         calculate D2E/DX2 analytically  !
 ! D47   D(13,12,15,18)         57.9687         calculate D2E/DX2 analytically  !
 ! D48   D(14,12,15,16)         64.1109         calculate D2E/DX2 analytically  !
 ! D49   D(14,12,15,17)        179.9596         calculate D2E/DX2 analytically  !
 ! D50   D(14,12,15,18)        -57.9663         calculate D2E/DX2 analytically  !
 ! D51   D(12,15,18,19)         59.8699         calculate D2E/DX2 analytically  !
 ! D52   D(12,15,18,20)        -59.836          calculate D2E/DX2 analytically  !
 ! D53   D(12,15,18,33)       -179.9827         calculate D2E/DX2 analytically  !
 ! D54   D(16,15,18,19)        -62.0914         calculate D2E/DX2 analytically  !
 ! D55   D(16,15,18,20)        178.2027         calculate D2E/DX2 analytically  !
 ! D56   D(16,15,18,33)         58.056          calculate D2E/DX2 analytically  !
 ! D57   D(17,15,18,19)       -178.1712         calculate D2E/DX2 analytically  !
 ! D58   D(17,15,18,20)         62.1229         calculate D2E/DX2 analytically  !
 ! D59   D(17,15,18,33)        -58.0239         calculate D2E/DX2 analytically  !
 ! D60   D(5,21,24,25)         -58.4075         calculate D2E/DX2 analytically  !
 ! D61   D(5,21,24,26)          58.3945         calculate D2E/DX2 analytically  !
 ! D62   D(5,21,24,27)         179.9923         calculate D2E/DX2 analytically  !
 ! D63   D(22,21,24,25)        178.9593         calculate D2E/DX2 analytically  !
 ! D64   D(22,21,24,26)        -64.2388         calculate D2E/DX2 analytically  !
 ! D65   D(22,21,24,27)         57.3591         calculate D2E/DX2 analytically  !
 ! D66   D(23,21,24,25)         64.2251         calculate D2E/DX2 analytically  !
 ! D67   D(23,21,24,26)       -178.973          calculate D2E/DX2 analytically  !
 ! D68   D(23,21,24,27)        -57.3751         calculate D2E/DX2 analytically  !
 ! D69   D(21,24,27,28)        -57.9371         calculate D2E/DX2 analytically  !
 ! D70   D(21,24,27,29)         57.928          calculate D2E/DX2 analytically  !
 ! D71   D(21,24,27,30)        179.9969         calculate D2E/DX2 analytically  !
 ! D72   D(25,24,27,28)       -179.972          calculate D2E/DX2 analytically  !
 ! D73   D(25,24,27,29)        -64.1069         calculate D2E/DX2 analytically  !
 ! D74   D(25,24,27,30)         57.9621         calculate D2E/DX2 analytically  !
 ! D75   D(26,24,27,28)         64.0985         calculate D2E/DX2 analytically  !
 ! D76   D(26,24,27,29)        179.9636         calculate D2E/DX2 analytically  !
 ! D77   D(26,24,27,30)        -57.9674         calculate D2E/DX2 analytically  !
 ! D78   D(24,27,30,31)         59.8303         calculate D2E/DX2 analytically  !
 ! D79   D(24,27,30,32)        -59.8665         calculate D2E/DX2 analytically  !
 ! D80   D(24,27,30,34)        179.9815         calculate D2E/DX2 analytically  !
 ! D81   D(28,27,30,31)        -62.127          calculate D2E/DX2 analytically  !
 ! D82   D(28,27,30,32)        178.1762         calculate D2E/DX2 analytically  !
 ! D83   D(28,27,30,34)         58.0242         calculate D2E/DX2 analytically  !
 ! D84   D(29,27,30,31)       -178.2104         calculate D2E/DX2 analytically  !
 ! D85   D(29,27,30,32)         62.0928         calculate D2E/DX2 analytically  !
 ! D86   D(29,27,30,34)        -58.0592         calculate D2E/DX2 analytically  !
 --------------------------------------------------------------------------------
 Trust Radius=3.00D-01 FncErr=1.00D-07 GrdErr=1.00D-06
 Number of steps in this run=    195 maximum allowed number of steps=    210.
 GradGradGradGradGradGradGradGradGradGradGradGradGradGradGradGradGradGrad

 Leave Link  103 at Fri May 10 15:44:19 2024, MaxMem=    33554432 cpu:         0.1
 (Enter /hits/basement/its/doserbd/software/gaussian/g09d1/g09/l202.exe)
                          Input orientation:                          
 ---------------------------------------------------------------------
 Center     Atomic      Atomic             Coordinates (Angstroms)
 Number     Number       Type             X           Y           Z
 ---------------------------------------------------------------------
      1          6           0        1.314375    0.002750   -0.000078
      2          6           0        0.718906    1.258525   -0.003724
      3          6           0       -0.696542    1.215019   -0.003792
      4          6           0       -1.391134   -0.004682   -0.000411
      5          6           0       -0.728083   -1.248246    0.003241
      6          6           0        0.688980   -1.231266    0.003375
      7          1           0       -1.261652    2.143582   -0.006495
      8          1           0        1.263168   -2.152683    0.006084
      9          6           0        1.543075    2.540928   -0.007378
     10          1           0        2.205455    2.520488   -0.883000
     11          1           0        2.207400    2.524194    0.866833
     12          6           0        0.746060    3.855004   -0.009298
     13          1           0        0.089550    3.890163   -0.889047
     14          1           0        0.091504    3.893859    0.871754
     15          6           0        1.655161    5.097033   -0.012981
     16          1           0        2.314188    5.065625    0.864896
     17          1           0        2.312128    5.061905   -0.892259
     18          6           0        0.867298    6.418580   -0.014886
     19          1           0        0.225720    6.495842    0.870192
     20          1           0        0.223253    6.491787   -0.898515
     21          6           0       -1.541431   -2.538937    0.006927
     22          1           0       -2.204393   -2.525076    0.883271
     23          1           0       -2.205457   -2.529384   -0.868661
     24          6           0       -0.743296   -3.852196    0.009684
     25          1           0       -0.088448   -3.890059   -0.871128
     26          1           0       -0.087188   -3.885645    0.889734
     27          6           0       -1.649233   -5.096601    0.013502
     28          1           0       -2.306595   -5.062980    0.892632
     29          1           0       -2.307986   -5.067369   -0.864742
     30          6           0       -0.857890   -6.416044    0.016204
     31          1           0       -0.213941   -6.487129    0.900031
     32          1           0       -0.215771   -6.491880   -0.868558
     33          1           0        1.538833    7.283414   -0.017802
     34          1           0       -1.527126   -7.282638    0.019223
     35          1           0       -2.479488    0.011798   -0.000623
 ---------------------------------------------------------------------
                    Distance matrix (angstroms):
                    1          2          3          4          5
     1  C    0.000000
     2  C    1.389809   0.000000
     3  C    2.348063   1.416117   0.000000
     4  C    2.705520   2.459263   1.403617   0.000000
     5  C    2.395128   2.894431   2.463478   1.409291   0.000000
     6  C    1.383447   2.489981   2.811412   2.414829   1.417165
     7  H    3.349495   2.169318   1.087007   2.152171   3.433553
     8  H    2.156050   3.454368   3.896406   3.414568   2.187029
     9  C    2.548471   1.524410   2.602678   3.884555   4.417705
    10  H    2.812931   2.139042   3.301339   4.482287   4.857409
    11  H    2.811887   2.139019   3.302243   4.482943   4.857382
    12  C    3.893961   2.596627   3.008430   4.411899   5.311913
    13  H    4.171623   2.846998   2.925407   4.260507   5.279010
    14  H    4.170879   2.846942   2.926394   4.261163   5.278947
    15  C    5.105685   3.951050   4.538791   5.942017   6.778103
    16  H    5.232639   4.218226   4.964502   6.339257   7.061362
    17  H    5.233216   4.218240   4.963870   6.338758   7.061361
    18  C    6.431405   5.162200   5.433485   6.808746   7.831079
    19  H    6.640993   5.332583   5.431529   6.754923   7.850621
    20  H    6.641185   5.332293   5.430546   6.754032   7.850243
    21  C    3.823068   4.419271   3.847875   2.538718   1.525592
    22  H    4.421756   4.862928   4.129020   2.791893   2.141082
    23  H    4.422144   4.862948   4.128605   2.791254   2.141065
    24  C    4.369750   5.315796   5.067449   3.901686   2.604002
    25  H    4.228546   5.283193   5.213816   4.189427   2.855316
    26  H    4.227973   5.283043   5.214065   4.189810   2.855256
    27  C    5.898011   6.782036   6.383139   5.098475   3.957076
    28  H    6.290467   7.065305   6.542868   5.217468   4.223140
    29  H    6.290886   7.065434   6.542659   5.217133   4.223172
    30  C    6.776424   7.834903   7.632796   6.433521   5.169444
    31  H    6.727888   7.853798   7.770000   6.649715   5.339894
    32  H    6.728731   7.854320   7.770152   6.649729   5.340243
    33  H    7.284145   6.080441   6.467033   7.855021   8.827717
    34  H    7.819934   8.831571   8.538184   7.279253   6.087085
    35  H    3.793874   3.432792   2.150964   1.088478   2.157578
                    6          7          8          9         10
     6  C    0.000000
     7  H    3.898033   0.000000
     8  H    1.085683   4.983248   0.000000
     9  C    3.867692   2.832734   4.701969   0.000000
    10  H    4.142585   3.595991   4.849422   1.098125   0.000000
    11  H    4.141815   3.597484   4.848261   1.098113   1.749838
    12  C    5.086606   2.638159   6.029921   1.536891   2.161972
    13  H    5.233045   2.378065   6.220500   2.170371   2.520535
    14  H    5.232396   2.380299   6.219554   2.170335   3.071498
    15  C    6.401651   4.150990   7.260331   2.558567   2.774589
    16  H    6.560057   4.699393   7.344806   2.780211   3.089448
    17  H    6.560547   4.698202   7.345585   2.780249   2.543672
    18  C    7.651946   4.775784   8.580426   3.936104   4.211818
    19  H    7.789363   4.682203   8.753283   4.259918   4.774565
    20  H    7.789470   4.680548   8.753661   4.259735   4.438534
    21  C    2.585488   4.690889   2.831072   5.943013   6.358372
    22  H    3.289341   4.845286   3.596124   6.364052   6.929948
    23  H    3.289882   4.844657   3.597004   6.364068   6.705039
    24  C    2.986759   6.018164   2.629497   6.789685   7.078355
    25  H    2.904881   6.207159   2.369566   6.690705   6.808615
    26  H    2.904100   6.207589   2.368007   6.690546   7.031169
    27  C    4.517539   7.250576   4.141109   8.277869   8.583844
    28  H    4.944318   7.337225   4.690310   8.570262   9.001136
    29  H    4.944807   7.336839   4.691148   8.570410   8.828762
    30  C    5.410629   8.569174   4.761853   9.273217   9.489692
    31  H    5.407713   8.741205   4.665664   9.242095   9.495780
    32  H    5.408595   8.741179   4.667000   9.242661   9.331951
    33  H    8.557013   5.853267   9.440153   4.742500   4.886555
    34  H    6.444415   9.429992   5.839722  10.292195  10.528411
    35  H    3.403588   2.455129   4.323482   4.751585   5.387096
                   11         12         13         14         15
    11  H    0.000000
    12  C    2.161985   0.000000
    13  H    3.071527   1.098270   0.000000
    14  H    2.520521   1.098275   1.760806   0.000000
    15  C    2.774625   1.539193   2.162213   2.162269   0.000000
    16  H    2.543675   2.165374   3.067090   2.512650   1.098167
    17  H    3.089556   2.165364   2.512537   3.067124   1.098167
    18  C    4.211834   2.566447   2.786026   2.786073   1.538577
    19  H    4.438588   2.831657   3.146908   2.605443   2.186312
    20  H    4.774421   2.831370   2.605075   3.146496   2.186291
    21  C    6.358338   6.790829   6.692996   6.692926   8.278081
    22  H    6.705170   7.085709   7.039784   6.817184   8.590457
    23  H    6.929927   7.085927   6.817481   7.040108   8.590622
    24  C    7.078111   7.849807   7.838716   7.838458   9.265085
    25  H    7.030936   7.837420   7.782278   7.978684   9.194804
    26  H    6.808208   7.837105   7.978626   7.781577   9.194519
    27  C    8.583606   9.266562   9.197819   9.197561  10.715871
    28  H    8.828478   9.469035   9.437937   9.272339  10.942646
    29  H    9.001049   9.469304   9.272871   9.438038  10.942901
    30  C    9.489332  10.395564  10.389178  10.388812  11.784194
    31  H    9.331020  10.426323  10.534757  10.385520  11.769450
    32  H    9.495942  10.426958  10.386551  10.535021  11.770102
    33  H    4.886691   3.518886   3.791259   3.791459   2.189479
    34  H   10.528014  11.367289  11.325638  11.325231  12.782184
    35  H    5.388092   5.017416   4.736134   4.737239   6.554013
                   16         17         18         19         20
    16  H    0.000000
    17  H    1.757160   0.000000
    18  C    2.167485   2.167460   0.000000
    19  H    2.531254   3.084721   1.095881   0.000000
    20  H    3.084731   2.531403   1.095880   1.768713   0.000000
    21  C    8.569204   8.569204   9.275751   9.246366   9.245967
    22  H    8.833835   9.006317   9.498997   9.342514   9.506420
    23  H    9.006474   8.833844   9.499306   9.507309   9.342432
    24  C    9.466104   9.466273  10.396319  10.428871  10.428663
    25  H    9.433489   9.268273  10.388197  10.535551  10.386560
    26  H    9.267818   9.433497  10.387802  10.386220  10.534956
    27  C   10.940951  10.941117  11.786990  11.774298  11.774069
    28  H   11.132881  11.270836  11.946690  11.832983  11.963318
    29  H   11.270923  11.133212  11.947037  11.964009  11.833105
    30  C   11.941989  11.942263  12.950090  12.985389  12.985287
    31  H   11.826192  11.957154  12.983200  12.990448  13.110232
    32  H   11.957486  11.827121  12.983904  13.111029  12.991121
    33  H    2.509765   2.509534   1.094946   1.770048   1.770051
    34  H   12.959570  12.959877  13.908911  13.915571  13.915489
    35  H    7.019232   7.018418   7.228280   7.079498   7.078225
                   21         22         23         24         25
    21  C    0.000000
    22  H    1.098949   0.000000
    23  H    1.098943   1.751937   0.000000
    24  C    1.536774   2.158519   2.158526   0.000000
    25  H    2.169717   3.068928   2.516579   1.098222   0.000000
    26  H    2.169744   2.516693   3.068950   1.098218   1.760868
    27  C    2.559943   2.770820   2.770957   1.539246   2.162028
    28  H    2.782219   2.539979   3.087311   2.165525   3.067046
    29  H    2.782154   3.086994   2.540058   2.165530   2.512459
    30  C    3.936912   4.207673   4.207737   2.566417   2.785678
    31  H    4.260057   4.433965   4.770551   2.831221   3.146034
    32  H    4.260236   4.770645   4.433985   2.831523   2.604935
    33  H   10.294038  10.537084  10.537299  11.367088  11.323547
    34  H    4.743738   4.882588   4.882816   3.518865   3.791056
    35  H    2.717767   2.700495   2.699294   4.236144   4.658255
                   26         27         28         29         30
    26  H    0.000000
    27  C    2.161985   0.000000
    28  H    2.512348   1.098237   0.000000
    29  H    3.067018   1.098237   1.757381   0.000000
    30  C    2.785670   1.538558   2.167407   2.167435   0.000000
    31  H    2.604591   2.186221   2.531295   3.084667   1.095843
    32  H    3.146519   2.186241   3.084654   2.531129   1.095844
    33  H   11.323226  12.783956  12.963397  12.963687  13.907574
    34  H    3.790880   2.189452   2.509442   2.509692   1.094929
    35  H    4.658958   5.175448   5.155693   5.155002   6.629255
                   31         32         33         34         35
    31  H    0.000000
    32  H    1.768597   0.000000
    33  H   13.911956  13.912626   0.000000
    34  H    1.770059   1.770058  14.885273   0.000000
    35  H    6.941177   6.940861   8.308045   7.356370   0.000000
 Stoichiometry    C14H21(2)
 Framework group  C1[X(C14H21)]
 Deg. of freedom    99
 Full point group                 C1      NOp   1
 Largest Abelian subgroup         C1      NOp   1
 Largest concise Abelian subgroup C1      NOp   1
                         Standard orientation:                         
 ---------------------------------------------------------------------
 Center     Atomic      Atomic             Coordinates (Angstroms)
 Number     Number       Type             X           Y           Z
 ---------------------------------------------------------------------
      1          6           0        0.304521   -1.306690    0.000118
      2          6           0        1.394106   -0.443919   -0.000529
      3          6           0        1.033215    0.925440   -0.000966
      4          6           0       -0.311507    1.327763   -0.000733
      5          6           0       -1.373986    0.401891   -0.000037
      6          6           0       -1.038577   -0.975010    0.000400
      7          1           0        1.810808    1.685001   -0.001474
      8          1           0       -1.807166   -1.741809    0.000933
      9          6           0        2.829079   -0.958388   -0.000856
     10          1           0        2.960359   -1.608049   -0.876404
     11          1           0        2.960113   -1.609772    0.873434
     12          6           0        3.930113    0.113879    0.000330
     13          1           0        3.818802    0.761795   -0.879450
     14          1           0        3.818522    0.760059    0.881356
     15          6           0        5.344859   -0.492428   -0.000109
     16          1           0        5.460395   -1.141953    0.877808
     17          1           0        5.460619   -1.140120   -0.879351
     18          6           0        6.455232    0.572601    0.001112
     19          1           0        6.383974    1.214777    0.886260
     20          1           0        6.383807    1.216936   -0.882452
     21          6           0       -2.814599    0.903951    0.000303
     22          1           0       -2.952422    1.552699    0.876556
     23          1           0       -2.952560    1.553428   -0.875381
     24          6           0       -3.914587   -0.169223   -0.000044
     25          1           0       -3.801966   -0.815465   -0.880827
     26          1           0       -3.801702   -0.816363    0.880041
     27          6           0       -5.330937    0.433466    0.000526
     28          1           0       -5.448254    1.081203    0.879615
     29          1           0       -5.448530    1.082235   -0.877765
     30          6           0       -6.438479   -0.634481    0.000107
     31          1           0       -6.365010   -1.278244    0.883874
     32          1           0       -6.365710   -1.276864   -0.884722
     33          1           0        7.448999    0.112892    0.000462
     34          1           0       -7.433443   -0.177408    0.000856
     35          1           0       -0.540348    2.391914   -0.001105
 ---------------------------------------------------------------------
 Rotational constants (GHZ):      3.3491201      0.1789464      0.1713072
 Leave Link  202 at Fri May 10 15:44:19 2024, MaxMem=    33554432 cpu:         0.1
 (Enter /hits/basement/its/doserbd/software/gaussian/g09d1/g09/l301.exe)
 Standard basis: 6-31+G (6D, 7F)
 Ernie: Thresh=  0.10000D-02 Tol=  0.10000D-05 Strict=F.
 There are   224 symmetry adapted cartesian basis functions of A   symmetry.
 There are   224 symmetry adapted basis functions of A   symmetry.
   224 basis functions,   448 primitive gaussians,   224 cartesian basis functions
    53 alpha electrons       52 beta electrons
       nuclear repulsion energy       801.9767853751 Hartrees.
 IExCor= 3226 DFT=T Ex+Corr=BMK ExCW=0 ScaHFX=  0.420000
 ScaDFX=  1.000000  1.000000  1.000000  1.000000 ScalE2=  1.000000  1.000000
 IRadAn=      0 IRanWt=     -1 IRanGd=            0 ICorTp=0 IEmpDi=  4
 NAtoms=   35 NActive=   35 NUniq=   35 SFac= 1.00D+00 NAtFMM=   60 NAOKFM=F Big=F
 Integral buffers will be    131072 words long.
 Raffenetti 2 integral format.
 Two-electron integral symmetry is turned on.
 Leave Link  301 at Fri May 10 15:44:19 2024, MaxMem=    33554432 cpu:         0.3
 (Enter /hits/basement/its/doserbd/software/gaussian/g09d1/g09/l302.exe)
 NPDir=0 NMtPBC=     1 NCelOv=     1 NCel=       1 NClECP=     1 NCelD=      1
         NCelK=      1 NCelE2=     1 NClLst=     1 CellRange=     0.0.
 One-electron integrals computed using PRISM.
 NBasis=   224 RedAO= T EigKep=  2.54D-06  NBF=   224
 NBsUse=   221 1.00D-06 EigRej=  8.22D-07 NBFU=   221
 Precomputing XC quadrature grid using
 IXCGrd= 4 IRadAn=           0 IRanWt=          -1 IRanGd=           0 AccXCQ= 0.00D+00.
 Generated NRdTot=       0 NPtTot=           0 NUsed=           0 NTot=          32
 NSgBfM=   219   219   219   219   219 MxSgAt=    35 MxSgA2=    35.
 Leave Link  302 at Fri May 10 15:44:20 2024, MaxMem=    33554432 cpu:         2.2
 (Enter /hits/basement/its/doserbd/software/gaussian/g09d1/g09/l303.exe)
 DipDrv:  MaxL=1.
 Leave Link  303 at Fri May 10 15:44:20 2024, MaxMem=    33554432 cpu:         0.2
 (Enter /hits/basement/its/doserbd/software/gaussian/g09d1/g09/l401.exe)
 ExpMin= 4.38D-02 ExpMax= 3.05D+03 ExpMxC= 4.57D+02 IAcc=2 IRadAn=         4 AccDes= 0.00D+00
 Harris functional with IExCor= 1009 and IRadAn=       4 diagonalized for initial guess.
 HarFok:  IExCor= 1009 AccDes= 0.00D+00 IRadAn=         4 IDoV= 1 UseB2=F ITyADJ=14
 ICtDFT=  3500011 ScaDFX=  1.000000  1.000000  1.000000  1.000000
 FoFCou: FMM=F IPFlag=           0 FMFlag=      100000 FMFlg1=           0
         NFxFlg=           0 DoJE=T BraDBF=F KetDBF=T FulRan=T
         wScrn=  0.000000 ICntrl=     500 IOpCl=  0 I1Cent=   200000004 NGrid=           0
         NMat0=    1 NMatS0=      1 NMatT0=    0 NMatD0=    1 NMtDS0=    0 NMtDT0=    0
 Petite list used in FoFCou.
 Harris En= -545.481149780276    
 JPrj=0 DoOrth=F DoCkMO=F.
 Initial guess <Sx>= 0.0000 <Sy>= 0.0000 <Sz>= 0.5000 <S**2>= 0.7500 S= 0.5000
 Leave Link  401 at Fri May 10 15:44:21 2024, MaxMem=    33554432 cpu:         5.4
 (Enter /hits/basement/its/doserbd/software/gaussian/g09d1/g09/l502.exe)
 UHF open shell SCF:
 Using DIIS extrapolation, IDIIS=  1040.
 Integral symmetry usage will be decided dynamically.
 IVT=      172606 IEndB=      172606 NGot=    33554432 MDV=    33448867
 LenX=    33448867 LenY=    33398250
 Requested convergence on RMS density matrix=1.00D-08 within 128 cycles.
 Requested convergence on MAX density matrix=1.00D-06.
 Requested convergence on             energy=1.00D-06.
 No special actions if energy rises.
 Fock matrices will be formed incrementally for  20 cycles.

 Cycle   1  Pass 1  IDiag  1:
 FoFJK:  IHMeth= 1 ICntrl=       0 DoSepK=F KAlg= 0 I1Cent=   0 FoldK=F
 IRaf= 780000000 NMat=   1 IRICut=       1 DoRegI=T DoRafI=F ISym2E= 0.
 FoFCou: FMM=F IPFlag=           0 FMFlag=      100000 FMFlg1=           0
         NFxFlg=           0 DoJE=F BraDBF=F KetDBF=F FulRan=T
         wScrn=  0.000000 ICntrl=       0 IOpCl=  1 I1Cent=           0 NGrid=           0
         NMat0=    1 NMatS0=      1 NMatT0=    0 NMatD0=    1 NMtDS0=    0 NMtDT0=    0
 Symmetry not used in FoFCou.
 E= -545.196147768254    
 DIIS: error= 4.60D-02 at cycle   1 NSaved=   1.
 NSaved= 1 IEnMin= 1 EnMin= -545.196147768254     IErMin= 1 ErrMin= 4.60D-02
 ErrMax= 4.60D-02  0.00D+00 EMaxC= 1.00D-01 BMatC= 1.22D+00 BMatP= 1.22D+00
 IDIUse=3 WtCom= 5.40D-01 WtEn= 4.60D-01
 Coeff-Com:  0.100D+01
 Coeff-En:   0.100D+01
 Coeff:      0.100D+01
 Gap=     0.340 Goal=   None    Shift=    0.000
 Gap=     0.189 Goal=   None    Shift=    0.000
 GapD=    0.189 DampG=1.000 DampE=0.500 DampFc=0.5000 IDamp=-1.
 Damping current iteration by 5.00D-01
 RMSDP=7.10D-02 MaxDP=1.95D+00              OVMax= 1.38D-01

 Cycle   2  Pass 1  IDiag  1:
 RMSU=  3.34D-02    CP:  1.22D+00
 E= -545.384655846206     Delta-E=       -0.188508077953 Rises=F Damp=T
 DIIS: error= 5.45D-03 at cycle   2 NSaved=   2.
 NSaved= 2 IEnMin= 2 EnMin= -545.384655846206     IErMin= 2 ErrMin= 5.45D-03
 ErrMax= 5.45D-03  0.00D+00 EMaxC= 1.00D-01 BMatC= 3.62D-02 BMatP= 1.22D+00
 IDIUse=3 WtCom= 9.46D-01 WtEn= 5.45D-02
 Coeff-Com: -0.652D-01 0.107D+01
 Coeff-En:   0.000D+00 0.100D+01
 Coeff:     -0.616D-01 0.106D+01
 Gap=     0.313 Goal=   None    Shift=    0.000
 Gap=     0.222 Goal=   None    Shift=    0.000
 RMSDP=2.01D-02 MaxDP=6.75D-01 DE=-1.89D-01 OVMax= 6.11D-02

 Cycle   3  Pass 1  IDiag  1:
 RMSU=  1.40D-02    CP:  9.95D-01  7.80D-01
 E= -545.557615886050     Delta-E=       -0.172960039843 Rises=F Damp=F
 DIIS: error= 4.49D-03 at cycle   3 NSaved=   3.
 NSaved= 3 IEnMin= 3 EnMin= -545.557615886050     IErMin= 3 ErrMin= 4.49D-03
 ErrMax= 4.49D-03  0.00D+00 EMaxC= 1.00D-01 BMatC= 6.39D-03 BMatP= 3.62D-02
 IDIUse=3 WtCom= 9.55D-01 WtEn= 4.49D-02
 Coeff-Com: -0.231D-01 0.256D+00 0.768D+00
 Coeff-En:   0.000D+00 0.000D+00 0.100D+01
 Coeff:     -0.220D-01 0.244D+00 0.778D+00
 Gap=     0.299 Goal=   None    Shift=    0.000
 Gap=     0.206 Goal=   None    Shift=    0.000
 RMSDP=2.68D-03 MaxDP=1.01D-01 DE=-1.73D-01 OVMax= 2.93D-02

 Cycle   4  Pass 1  IDiag  1:
 RMSU=  2.46D-03    CP:  1.00D+00  8.03D-01  9.51D-01
 E= -545.558692011937     Delta-E=       -0.001076125888 Rises=F Damp=F
 DIIS: error= 3.94D-03 at cycle   4 NSaved=   4.
 NSaved= 4 IEnMin= 4 EnMin= -545.558692011937     IErMin= 4 ErrMin= 3.94D-03
 ErrMax= 3.94D-03  0.00D+00 EMaxC= 1.00D-01 BMatC= 3.36D-03 BMatP= 6.39D-03
 IDIUse=3 WtCom= 9.61D-01 WtEn= 3.94D-02
 Coeff-Com: -0.282D-03 0.659D-02 0.416D+00 0.578D+00
 Coeff-En:   0.000D+00 0.000D+00 0.324D+00 0.676D+00
 Coeff:     -0.271D-03 0.633D-02 0.412D+00 0.582D+00
 Gap=     0.288 Goal=   None    Shift=    0.000
 Gap=     0.215 Goal=   None    Shift=    0.000
 RMSDP=9.78D-04 MaxDP=2.07D-02 DE=-1.08D-03 OVMax= 1.60D-02

 Cycle   5  Pass 1  IDiag  1:
 RMSU=  7.54D-04    CP:  9.98D-01  7.93D-01  9.54D-01  7.91D-01
 E= -545.559748154733     Delta-E=       -0.001056142796 Rises=F Damp=F
 DIIS: error= 9.44D-04 at cycle   5 NSaved=   5.
 NSaved= 5 IEnMin= 5 EnMin= -545.559748154733     IErMin= 5 ErrMin= 9.44D-04
 ErrMax= 9.44D-04  0.00D+00 EMaxC= 1.00D-01 BMatC= 2.08D-04 BMatP= 3.36D-03
 IDIUse=3 WtCom= 9.91D-01 WtEn= 9.44D-03
 Coeff-Com:  0.207D-02-0.139D-01 0.144D+00 0.274D+00 0.593D+00
 Coeff-En:   0.000D+00 0.000D+00 0.000D+00 0.000D+00 0.100D+01
 Coeff:      0.205D-02-0.138D-01 0.143D+00 0.272D+00 0.597D+00
 Gap=     0.288 Goal=   None    Shift=    0.000
 Gap=     0.214 Goal=   None    Shift=    0.000
 RMSDP=4.27D-04 MaxDP=1.34D-02 DE=-1.06D-03 OVMax= 4.33D-03

 Cycle   6  Pass 1  IDiag  1:
 RMSU=  3.03D-04    CP:  9.96D-01  7.88D-01  9.52D-01  8.75D-01  9.79D-01
 E= -545.559828093063     Delta-E=       -0.000079938330 Rises=F Damp=F
 DIIS: error= 3.82D-04 at cycle   6 NSaved=   6.
 NSaved= 6 IEnMin= 6 EnMin= -545.559828093063     IErMin= 6 ErrMin= 3.82D-04
 ErrMax= 3.82D-04  0.00D+00 EMaxC= 1.00D-01 BMatC= 2.73D-05 BMatP= 2.08D-04
 IDIUse=3 WtCom= 9.96D-01 WtEn= 3.82D-03
 Coeff-Com:  0.747D-03-0.455D-02-0.736D-01-0.866D-01 0.115D+00 0.105D+01
 Coeff-En:   0.000D+00 0.000D+00 0.000D+00 0.000D+00 0.000D+00 0.100D+01
 Coeff:      0.744D-03-0.454D-02-0.733D-01-0.862D-01 0.115D+00 0.105D+01
 Gap=     0.288 Goal=   None    Shift=    0.000
 Gap=     0.215 Goal=   None    Shift=    0.000
 RMSDP=2.36D-04 MaxDP=1.13D-02 DE=-7.99D-05 OVMax= 3.83D-03

 Cycle   7  Pass 1  IDiag  1:
 RMSU=  1.22D-04    CP:  9.95D-01  7.86D-01  9.48D-01  9.29D-01  1.12D+00
                    CP:  1.21D+00
 E= -545.559859915989     Delta-E=       -0.000031822926 Rises=F Damp=F
 DIIS: error= 2.90D-04 at cycle   7 NSaved=   7.
 NSaved= 7 IEnMin= 7 EnMin= -545.559859915989     IErMin= 7 ErrMin= 2.90D-04
 ErrMax= 2.90D-04  0.00D+00 EMaxC= 1.00D-01 BMatC= 8.79D-06 BMatP= 2.73D-05
 IDIUse=3 WtCom= 9.97D-01 WtEn= 2.90D-03
 Coeff-Com: -0.421D-03 0.176D-02-0.492D-01-0.807D-01-0.864D-01 0.302D+00
 Coeff-Com:  0.913D+00
 Coeff-En:   0.000D+00 0.000D+00 0.000D+00 0.000D+00 0.000D+00 0.000D+00
 Coeff-En:   0.100D+01
 Coeff:     -0.420D-03 0.176D-02-0.491D-01-0.805D-01-0.862D-01 0.301D+00
 Coeff:      0.913D+00
 Gap=     0.288 Goal=   None    Shift=    0.000
 Gap=     0.215 Goal=   None    Shift=    0.000
 RMSDP=1.16D-04 MaxDP=5.05D-03 DE=-3.18D-05 OVMax= 2.90D-03

 Cycle   8  Pass 1  IDiag  1:
 RMSU=  6.96D-05    CP:  9.95D-01  7.86D-01  9.46D-01  9.50D-01  1.15D+00
                    CP:  1.39D+00  1.19D+00
 E= -545.559871152757     Delta-E=       -0.000011236769 Rises=F Damp=F
 DIIS: error= 2.31D-04 at cycle   8 NSaved=   8.
 NSaved= 8 IEnMin= 8 EnMin= -545.559871152757     IErMin= 8 ErrMin= 2.31D-04
 ErrMax= 2.31D-04  0.00D+00 EMaxC= 1.00D-01 BMatC= 4.46D-06 BMatP= 8.79D-06
 IDIUse=3 WtCom= 9.98D-01 WtEn= 2.31D-03
 Coeff-Com: -0.715D-03 0.324D-02 0.549D-02-0.907D-02-0.107D+00-0.317D+00
 Coeff-Com:  0.526D+00 0.900D+00
 Coeff-En:   0.000D+00 0.000D+00 0.000D+00 0.000D+00 0.000D+00 0.000D+00
 Coeff-En:   0.000D+00 0.100D+01
 Coeff:     -0.713D-03 0.323D-02 0.548D-02-0.905D-02-0.107D+00-0.316D+00
 Coeff:      0.524D+00 0.900D+00
 Gap=     0.288 Goal=   None    Shift=    0.000
 Gap=     0.215 Goal=   None    Shift=    0.000
 RMSDP=5.52D-05 MaxDP=1.82D-03 DE=-1.12D-05 OVMax= 2.38D-03

 Cycle   9  Pass 1  IDiag  1:
 RMSU=  3.87D-05    CP:  9.95D-01  7.87D-01  9.46D-01  9.54D-01  1.16D+00
                    CP:  1.40D+00  1.41D+00  1.04D+00
 E= -545.559877197272     Delta-E=       -0.000006044515 Rises=F Damp=F
 DIIS: error= 1.12D-04 at cycle   9 NSaved=   9.
 NSaved= 9 IEnMin= 9 EnMin= -545.559877197272     IErMin= 9 ErrMin= 1.12D-04
 ErrMax= 1.12D-04  0.00D+00 EMaxC= 1.00D-01 BMatC= 9.12D-07 BMatP= 4.46D-06
 IDIUse=3 WtCom= 9.99D-01 WtEn= 1.12D-03
 Coeff-Com: -0.146D-03 0.741D-03 0.132D-01 0.146D-01-0.180D-01-0.180D+00
 Coeff-Com: -0.398D-01 0.322D+00 0.887D+00
 Coeff-En:   0.000D+00 0.000D+00 0.000D+00 0.000D+00 0.000D+00 0.000D+00
 Coeff-En:   0.000D+00 0.000D+00 0.100D+01
 Coeff:     -0.146D-03 0.741D-03 0.132D-01 0.146D-01-0.180D-01-0.179D+00
 Coeff:     -0.397D-01 0.322D+00 0.887D+00
 Gap=     0.288 Goal=   None    Shift=    0.000
 Gap=     0.215 Goal=   None    Shift=    0.000
 RMSDP=2.28D-05 MaxDP=6.04D-04 DE=-6.04D-06 OVMax= 1.12D-03

 Cycle  10  Pass 1  IDiag  1:
 RMSU=  1.55D-05    CP:  9.95D-01  7.87D-01  9.46D-01  9.50D-01  1.15D+00
                    CP:  1.40D+00  1.40D+00  1.13D+00  1.07D+00
 E= -545.559878506502     Delta-E=       -0.000001309230 Rises=F Damp=F
 DIIS: error= 5.37D-05 at cycle  10 NSaved=  10.
 NSaved=10 IEnMin=10 EnMin= -545.559878506502     IErMin=10 ErrMin= 5.37D-05
 ErrMax= 5.37D-05  0.00D+00 EMaxC= 1.00D-01 BMatC= 3.02D-07 BMatP= 9.12D-07
 IDIUse=1 WtCom= 1.00D+00 WtEn= 0.00D+00
 Coeff-Com:  0.248D-03-0.967D-03 0.315D-02 0.970D-02 0.364D-01 0.545D-01
 Coeff-Com: -0.239D+00-0.229D+00 0.398D+00 0.967D+00
 Coeff:      0.248D-03-0.967D-03 0.315D-02 0.970D-02 0.364D-01 0.545D-01
 Coeff:     -0.239D+00-0.229D+00 0.398D+00 0.967D+00
 Gap=     0.288 Goal=   None    Shift=    0.000
 Gap=     0.215 Goal=   None    Shift=    0.000
 RMSDP=2.15D-05 MaxDP=9.47D-04 DE=-1.31D-06 OVMax= 6.88D-04

 Cycle  11  Pass 1  IDiag  1:
 RMSU=  1.14D-05    CP:  9.95D-01  7.87D-01  9.46D-01  9.46D-01  1.14D+00
                    CP:  1.37D+00  1.37D+00  1.12D+00  1.12D+00  1.40D+00
 E= -545.559878911374     Delta-E=       -0.000000404872 Rises=F Damp=F
 DIIS: error= 1.10D-05 at cycle  11 NSaved=  11.
 NSaved=11 IEnMin=11 EnMin= -545.559878911374     IErMin=11 ErrMin= 1.10D-05
 ErrMax= 1.10D-05  0.00D+00 EMaxC= 1.00D-01 BMatC= 2.84D-08 BMatP= 3.02D-07
 IDIUse=1 WtCom= 1.00D+00 WtEn= 0.00D+00
 Coeff-Com:  0.426D-04-0.193D-03-0.265D-02-0.252D-02 0.358D-02 0.328D-01
 Coeff-Com:  0.453D-02-0.660D-01-0.155D+00 0.581D-01 0.113D+01
 Coeff:      0.426D-04-0.193D-03-0.265D-02-0.252D-02 0.358D-02 0.328D-01
 Coeff:      0.453D-02-0.660D-01-0.155D+00 0.581D-01 0.113D+01
 Gap=     0.288 Goal=   None    Shift=    0.000
 Gap=     0.215 Goal=   None    Shift=    0.000
 RMSDP=7.73D-06 MaxDP=2.35D-04 DE=-4.05D-07 OVMax= 2.06D-04

 Cycle  12  Pass 1  IDiag  1:
 RMSU=  3.38D-06    CP:  9.95D-01  7.87D-01  9.46D-01  9.45D-01  1.14D+00
                    CP:  1.36D+00  1.35D+00  1.10D+00  1.15D+00  1.60D+00
                    CP:  1.08D+00
 E= -545.559878947245     Delta-E=       -0.000000035871 Rises=F Damp=F
 DIIS: error= 3.41D-06 at cycle  12 NSaved=  12.
 NSaved=12 IEnMin=12 EnMin= -545.559878947245     IErMin=12 ErrMin= 3.41D-06
 ErrMax= 3.41D-06  0.00D+00 EMaxC= 1.00D-01 BMatC= 6.65D-09 BMatP= 2.84D-08
 IDIUse=1 WtCom= 1.00D+00 WtEn= 0.00D+00
 Coeff-Com: -0.152D-04 0.421D-04-0.143D-02-0.216D-02-0.341D-02 0.585D-02
 Coeff-Com:  0.339D-01 0.355D-02-0.115D+00-0.106D+00 0.447D+00 0.737D+00
 Coeff:     -0.152D-04 0.421D-04-0.143D-02-0.216D-02-0.341D-02 0.585D-02
 Coeff:      0.339D-01 0.355D-02-0.115D+00-0.106D+00 0.447D+00 0.737D+00
 Gap=     0.288 Goal=   None    Shift=    0.000
 Gap=     0.215 Goal=   None    Shift=    0.000
 RMSDP=1.68D-06 MaxDP=4.17D-05 DE=-3.59D-08 OVMax= 4.07D-05

 Cycle  13  Pass 1  IDiag  1:
 RMSU=  1.14D-06    CP:  9.95D-01  7.87D-01  9.46D-01  9.46D-01  1.14D+00
                    CP:  1.36D+00  1.35D+00  1.10D+00  1.15D+00  1.61D+00
                    CP:  1.11D+00  9.26D-01
 E= -545.559878950317     Delta-E=       -0.000000003072 Rises=F Damp=F
 DIIS: error= 1.07D-06 at cycle  13 NSaved=  13.
 NSaved=13 IEnMin=13 EnMin= -545.559878950317     IErMin=13 ErrMin= 1.07D-06
 ErrMax= 1.07D-06  0.00D+00 EMaxC= 1.00D-01 BMatC= 6.49D-10 BMatP= 6.65D-09
 IDIUse=1 WtCom= 1.00D+00 WtEn= 0.00D+00
 Coeff-Com: -0.133D-04 0.493D-04 0.977D-04-0.147D-03-0.175D-02-0.461D-02
 Coeff-Com:  0.874D-02 0.135D-01-0.156D-02-0.378D-01-0.826D-01 0.187D+00
 Coeff-Com:  0.919D+00
 Coeff:     -0.133D-04 0.493D-04 0.977D-04-0.147D-03-0.175D-02-0.461D-02
 Coeff:      0.874D-02 0.135D-01-0.156D-02-0.378D-01-0.826D-01 0.187D+00
 Coeff:      0.919D+00
 Gap=     0.288 Goal=   None    Shift=    0.000
 Gap=     0.215 Goal=   None    Shift=    0.000
 RMSDP=1.50D-06 MaxDP=6.18D-05 DE=-3.07D-09 OVMax= 8.95D-06

 Cycle  14  Pass 1  IDiag  1:
 RMSU=  4.57D-07    CP:  9.95D-01  7.87D-01  9.46D-01  9.46D-01  1.14D+00
                    CP:  1.37D+00  1.35D+00  1.10D+00  1.15D+00  1.61D+00
                    CP:  1.11D+00  9.14D-01  1.08D+00
 E= -545.559878950640     Delta-E=       -0.000000000323 Rises=F Damp=F
 DIIS: error= 2.75D-07 at cycle  14 NSaved=  14.
 NSaved=14 IEnMin=14 EnMin= -545.559878950640     IErMin=14 ErrMin= 2.75D-07
 ErrMax= 2.75D-07  0.00D+00 EMaxC= 1.00D-01 BMatC= 4.33D-11 BMatP= 6.49D-10
 IDIUse=1 WtCom= 1.00D+00 WtEn= 0.00D+00
 Coeff-Com: -0.105D-05 0.517D-05 0.131D-03 0.135D-03 0.516D-04-0.104D-02
 Coeff-Com: -0.143D-02 0.148D-02 0.879D-02 0.330D-02-0.472D-01-0.273D-01
 Coeff-Com:  0.146D+00 0.917D+00
 Coeff:     -0.105D-05 0.517D-05 0.131D-03 0.135D-03 0.516D-04-0.104D-02
 Coeff:     -0.143D-02 0.148D-02 0.879D-02 0.330D-02-0.472D-01-0.273D-01
 Coeff:      0.146D+00 0.917D+00
 Gap=     0.288 Goal=   None    Shift=    0.000
 Gap=     0.215 Goal=   None    Shift=    0.000
 RMSDP=4.67D-07 MaxDP=2.03D-05 DE=-3.23D-10 OVMax= 2.13D-06

 Cycle  15  Pass 1  IDiag  1:
 RMSU=  1.74D-07    CP:  9.95D-01  7.87D-01  9.46D-01  9.46D-01  1.14D+00
                    CP:  1.37D+00  1.35D+00  1.11D+00  1.15D+00  1.60D+00
                    CP:  1.10D+00  9.19D-01  1.04D+00  1.08D+00
 E= -545.559878950668     Delta-E=       -0.000000000028 Rises=F Damp=F
 DIIS: error= 1.58D-07 at cycle  15 NSaved=  15.
 NSaved=15 IEnMin=15 EnMin= -545.559878950668     IErMin=15 ErrMin= 1.58D-07
 ErrMax= 1.58D-07  0.00D+00 EMaxC= 1.00D-01 BMatC= 1.51D-11 BMatP= 4.33D-11
 IDIUse=1 WtCom= 1.00D+00 WtEn= 0.00D+00
 Coeff-Com:  0.119D-05-0.399D-05 0.544D-04 0.859D-04 0.259D-03 0.606D-04
 Coeff-Com: -0.184D-02-0.997D-03 0.453D-02 0.651D-02-0.120D-01-0.372D-01
 Coeff-Com: -0.482D-01 0.415D+00 0.673D+00
 Coeff:      0.119D-05-0.399D-05 0.544D-04 0.859D-04 0.259D-03 0.606D-04
 Coeff:     -0.184D-02-0.997D-03 0.453D-02 0.651D-02-0.120D-01-0.372D-01
 Coeff:     -0.482D-01 0.415D+00 0.673D+00
 Gap=     0.288 Goal=   None    Shift=    0.000
 Gap=     0.215 Goal=   None    Shift=    0.000
 RMSDP=1.44D-07 MaxDP=5.15D-06 DE=-2.84D-11 OVMax= 6.83D-07

 Cycle  16  Pass 1  IDiag  1:
 RMSU=  4.60D-08    CP:  9.95D-01  7.87D-01  9.46D-01  9.46D-01  1.14D+00
                    CP:  1.37D+00  1.35D+00  1.11D+00  1.15D+00  1.60D+00
                    CP:  1.10D+00  9.19D-01  1.03D+00  1.12D+00  1.11D+00
 E= -545.559878950680     Delta-E=       -0.000000000012 Rises=F Damp=F
 DIIS: error= 3.55D-08 at cycle  16 NSaved=  16.
 NSaved=16 IEnMin=16 EnMin= -545.559878950680     IErMin=16 ErrMin= 3.55D-08
 ErrMax= 3.55D-08  0.00D+00 EMaxC= 1.00D-01 BMatC= 8.20D-13 BMatP= 1.51D-11
 IDIUse=1 WtCom= 1.00D+00 WtEn= 0.00D+00
 Coeff-Com:  0.294D-06-0.128D-05-0.172D-04-0.159D-04 0.261D-04 0.200D-03
 Coeff-Com:  0.237D-04-0.375D-03-0.100D-02 0.146D-03 0.688D-02-0.203D-03
 Coeff-Com: -0.290D-01-0.991D-01 0.714D-01 0.105D+01
 Coeff:      0.294D-06-0.128D-05-0.172D-04-0.159D-04 0.261D-04 0.200D-03
 Coeff:      0.237D-04-0.375D-03-0.100D-02 0.146D-03 0.688D-02-0.203D-03
 Coeff:     -0.290D-01-0.991D-01 0.714D-01 0.105D+01
 Gap=     0.288 Goal=   None    Shift=    0.000
 Gap=     0.215 Goal=   None    Shift=    0.000
 RMSDP=3.48D-08 MaxDP=1.05D-06 DE=-1.16D-11 OVMax= 4.14D-07

 Cycle  17  Pass 1  IDiag  1:
 RMSU=  2.08D-08    CP:  9.95D-01  7.87D-01  9.46D-01  9.46D-01  1.14D+00
                    CP:  1.37D+00  1.35D+00  1.11D+00  1.15D+00  1.60D+00
                    CP:  1.10D+00  9.16D-01  1.04D+00  1.11D+00  1.16D+00
                    CP:  1.11D+00
 E= -545.559878950654     Delta-E=        0.000000000026 Rises=F Damp=F
 DIIS: error= 1.29D-08 at cycle  17 NSaved=  17.
 NSaved=17 IEnMin=16 EnMin= -545.559878950680     IErMin=17 ErrMin= 1.29D-08
 ErrMax= 1.29D-08  0.00D+00 EMaxC= 1.00D-01 BMatC= 6.62D-14 BMatP= 8.20D-13
 IDIUse=1 WtCom= 1.00D+00 WtEn= 0.00D+00
 Coeff-Com: -0.569D-07 0.183D-06-0.511D-05-0.700D-05-0.182D-04 0.612D-05
 Coeff-Com:  0.143D-03 0.610D-04-0.403D-03-0.517D-03 0.127D-02 0.292D-02
 Coeff-Com:  0.255D-02-0.374D-01-0.467D-01 0.478D-01 0.103D+01
 Coeff:     -0.569D-07 0.183D-06-0.511D-05-0.700D-05-0.182D-04 0.612D-05
 Coeff:      0.143D-03 0.610D-04-0.403D-03-0.517D-03 0.127D-02 0.292D-02
 Coeff:      0.255D-02-0.374D-01-0.467D-01 0.478D-01 0.103D+01
 Gap=     0.288 Goal=   None    Shift=    0.000
 Gap=     0.215 Goal=   None    Shift=    0.000
 RMSDP=1.21D-08 MaxDP=4.90D-07 DE= 2.57D-11 OVMax= 1.27D-07

 Cycle  18  Pass 1  IDiag  1:
 RMSU=  5.56D-09    CP:  9.95D-01  7.87D-01  9.46D-01  9.46D-01  1.14D+00
                    CP:  1.37D+00  1.35D+00  1.11D+00  1.15D+00  1.60D+00
                    CP:  1.10D+00  9.16D-01  1.03D+00  1.11D+00  1.16D+00
                    CP:  1.13D+00  9.67D-01
 E= -545.559878950676     Delta-E=       -0.000000000022 Rises=F Damp=F
 DIIS: error= 6.30D-09 at cycle  18 NSaved=  18.
 NSaved=18 IEnMin=16 EnMin= -545.559878950680     IErMin=18 ErrMin= 6.30D-09
 ErrMax= 6.30D-09  0.00D+00 EMaxC= 1.00D-01 BMatC= 2.76D-14 BMatP= 6.62D-14
 IDIUse=1 WtCom= 1.00D+00 WtEn= 0.00D+00
 Coeff-Com: -0.632D-07 0.256D-06 0.289D-06-0.540D-06-0.124D-04-0.281D-04
 Coeff-Com:  0.617D-04 0.833D-04-0.325D-04-0.251D-03-0.436D-03 0.132D-02
 Coeff-Com:  0.517D-02-0.241D-02-0.313D-01-0.137D+00 0.485D+00 0.680D+00
 Coeff:     -0.632D-07 0.256D-06 0.289D-06-0.540D-06-0.124D-04-0.281D-04
 Coeff:      0.617D-04 0.833D-04-0.325D-04-0.251D-03-0.436D-03 0.132D-02
 Coeff:      0.517D-02-0.241D-02-0.313D-01-0.137D+00 0.485D+00 0.680D+00
 Gap=     0.288 Goal=   None    Shift=    0.000
 Gap=     0.215 Goal=   None    Shift=    0.000
 RMSDP=6.06D-09 MaxDP=1.77D-07 DE=-2.21D-11 OVMax= 4.96D-08

 SCF Done:  E(UBMK) =  -545.559878951     A.U. after   18 cycles
            NFock= 18  Conv=0.61D-08     -V/T= 2.0059
 <Sx>= 0.0000 <Sy>= 0.0000 <Sz>= 0.5000 <S**2>= 0.7608 S= 0.5054
 <L.S>= 0.000000000000E+00
 KE= 5.423695547826D+02 PE=-2.866694950771D+03 EE= 9.767887316624D+02
 Annihilation of the first spin contaminant:
 S**2 before annihilation     0.7608,   after     0.7501
 Leave Link  502 at Fri May 10 15:45:24 2024, MaxMem=    33554432 cpu:       500.3
 (Enter /hits/basement/its/doserbd/software/gaussian/g09d1/g09/l801.exe)
 DoSCS=F DFT=T ScalE2(SS,OS)=  1.000000  1.000000
 Range of M.O.s used for correlation:     1   221
 NBasis=   224 NAE=    53 NBE=    52 NFC=     0 NFV=     0
 NROrb=    221 NOA=    53 NOB=    52 NVA=   168 NVB=   169

 **** Warning!!: The largest alpha MO coefficient is  0.11705059D+03


 **** Warning!!: The largest beta MO coefficient is  0.11943076D+03

 Leave Link  801 at Fri May 10 15:45:25 2024, MaxMem=    33554432 cpu:         0.2
 (Enter /hits/basement/its/doserbd/software/gaussian/g09d1/g09/l1101.exe)
 Using compressed storage, NAtomX=    35.
 Will process     36 centers per pass.
 PrsmSu:  requested number of processors reduced to:   7 ShMem   1 Linda.
 Leave Link 1101 at Fri May 10 15:45:25 2024, MaxMem=    33554432 cpu:         1.5
 (Enter /hits/basement/its/doserbd/software/gaussian/g09d1/g09/l1102.exe)
 Symmetrizing basis deriv contribution to polar:
 IMax=3 JMax=2 DiffMx= 0.00D+00
 Leave Link 1102 at Fri May 10 15:45:26 2024, MaxMem=    33554432 cpu:         0.5
 (Enter /hits/basement/its/doserbd/software/gaussian/g09d1/g09/l1110.exe)
 Forming Gx(P) for the SCF density, NAtomX=    35.
 Integral derivatives from FoFJK, PRISM(SPDF).
 Do as many integral derivatives as possible in FoFJK.
 G2DrvN: MDV=      33554048.
 G2DrvN: will do    12 centers at a time, making    3 passes.
 G2DrvN:  IPasSy=1 do centers    0 through   11.
 Calling FoFCou, ICntrl=  3107 FMM=F I1Cent=   0 AccDes= 0.00D+00.
 FoFJK:  IHMeth= 1 ICntrl=    3107 DoSepK=F KAlg= 0 I1Cent=   0 FoldK=F
 IRaf=         0 NMat=   1 IRICut=       1 DoRegI=T DoRafI=F ISym2E= 0.
 FoFCou: FMM=F IPFlag=           0 FMFlag=      100000 FMFlg1=           0
         NFxFlg=           0 DoJE=F BraDBF=F KetDBF=F FulRan=T
         wScrn=  0.000000 ICntrl=    3107 IOpCl=  1 I1Cent=           0 NGrid=           0
         NMat0=    1 NMatS0=      1 NMatT0=    0 NMatD0=    1 NMtDS0=    0 NMtDT0=    0
 Symmetry not used in FoFCou.
 G2DrvN:  IPasSy=1 do centers   12 through   23.
 Calling FoFCou, ICntrl=  3107 FMM=F I1Cent=   0 AccDes= 0.00D+00.
 G2DrvN:  IPasSy=1 do centers   24 through   35.
 Calling FoFCou, ICntrl=  3107 FMM=F I1Cent=   0 AccDes= 0.00D+00.
 End of G2Drv F.D. properties file   721 does not exist.
 End of G2Drv F.D. properties file   722 does not exist.
 End of G2Drv F.D. properties file   788 does not exist.
 Leave Link 1110 at Fri May 10 15:48:02 2024, MaxMem=    33554432 cpu:      1239.5
 (Enter /hits/basement/its/doserbd/software/gaussian/g09d1/g09/l1002.exe)
 Minotr:  UHF open shell wavefunction.
          IDoAtm=11111111111111111111111111111111111
          Direct CPHF calculation.
          Differentiating once with respect to nuclear coordinates.
          Requested convergence is 1.0D-08 RMS, and 1.0D-07 maximum.
          Secondary convergence is 1.0D-12 RMS, and 1.0D-12 maximum.
          NewPWx=T KeepS1=F KeepF1=F KeepIn=T MapXYZ=F SortEE=F KeepMc=T.
          MDV=      33553636 using IRadAn=       2.
 Generate precomputed XC quadrature information.
          Solving linear equations simultaneously, MaxMat=       0.
 FoFJK:  IHMeth= 1 ICntrl=       0 DoSepK=F KAlg= 0 I1Cent=   0 FoldK=F
 IRaf= 780000000 NMat=  56 IRICut=     140 DoRegI=T DoRafI=T ISym2E= 2.
 FoFCou: FMM=F IPFlag=           0 FMFlag=      100000 FMFlg1=           0
         NFxFlg=           0 DoJE=F BraDBF=F KetDBF=F FulRan=T
         wScrn=  0.000000 ICntrl=       0 IOpCl=  1 I1Cent=           0 NGrid=           0
         NMat0=   56 NMatS0=     56 NMatT0=    0 NMatD0=   56 NMtDS0=    0 NMtDT0=    0
 Integrals replicated using symmetry in FoFCou.
 PrRfSu:  requested number of processors reduced to:   6 ShMem   1 Linda.
 CalDSu:  requested number of processors reduced to:   6 ShMem   1 Linda.
 PrRfSu:  requested number of processors reduced to:   6 ShMem   1 Linda.
 CalDSu:  requested number of processors reduced to:   7 ShMem   1 Linda.
          There are   108 degrees of freedom in the 1st order CPHF.  IDoFFX=6 NUNeed=     0.
    105 vectors produced by pass  0 Test12= 1.77D-14 1.00D-09 XBig12= 4.46D-01 1.44D-01.
 AX will form    56 AO Fock derivatives at one time.
 PrRfSu:  requested number of processors reduced to:   6 ShMem   1 Linda.
 CalDSu:  requested number of processors reduced to:   6 ShMem   1 Linda.
 PrRfSu:  requested number of processors reduced to:   6 ShMem   1 Linda.
 CalDSu:  requested number of processors reduced to:   7 ShMem   1 Linda.
    105 vectors produced by pass  1 Test12= 1.77D-14 1.00D-09 XBig12= 7.83D-02 8.02D-02.
 PrRfSu:  requested number of processors reduced to:   6 ShMem   1 Linda.
 CalDSu:  requested number of processors reduced to:   6 ShMem   1 Linda.
 PrRfSu:  requested number of processors reduced to:   6 ShMem   1 Linda.
 CalDSu:  requested number of processors reduced to:   7 ShMem   1 Linda.
    104 vectors produced by pass  2 Test12= 1.77D-14 1.00D-09 XBig12= 1.36D-03 8.96D-03.
 PrRfSu:  requested number of processors reduced to:   6 ShMem   1 Linda.
 CalDSu:  requested number of processors reduced to:   6 ShMem   1 Linda.
 PrRfSu:  requested number of processors reduced to:   6 ShMem   1 Linda.
 CalDSu:  requested number of processors reduced to:   7 ShMem   1 Linda.
    102 vectors produced by pass  3 Test12= 1.77D-14 1.00D-09 XBig12= 9.69D-06 6.42D-04.
 PrRfSu:  requested number of processors reduced to:   6 ShMem   1 Linda.
 CalDSu:  requested number of processors reduced to:   6 ShMem   1 Linda.
 PrRfSu:  requested number of processors reduced to:   6 ShMem   1 Linda.
 CalDSu:  requested number of processors reduced to:   7 ShMem   1 Linda.
    102 vectors produced by pass  4 Test12= 1.77D-14 1.00D-09 XBig12= 9.25D-08 3.84D-05.
 PrRfSu:  requested number of processors reduced to:   6 ShMem   1 Linda.
 CalDSu:  requested number of processors reduced to:   6 ShMem   1 Linda.
 PrRfSu:  requested number of processors reduced to:   6 ShMem   1 Linda.
 CalDSu:  requested number of processors reduced to:   7 ShMem   1 Linda.
    102 vectors produced by pass  5 Test12= 1.77D-14 1.00D-09 XBig12= 6.69D-10 2.48D-06.
 PrRfSu:  requested number of processors reduced to:   6 ShMem   1 Linda.
 CalDSu:  requested number of processors reduced to:   6 ShMem   1 Linda.
 PrRfSu:  requested number of processors reduced to:   6 ShMem   1 Linda.
 CalDSu:  requested number of processors reduced to:   7 ShMem   1 Linda.
     96 vectors produced by pass  6 Test12= 1.77D-14 1.00D-09 XBig12= 6.43D-12 1.70D-07.
 PrRfSu:  requested number of processors reduced to:   6 ShMem   1 Linda.
 CalDSu:  requested number of processors reduced to:   7 ShMem   1 Linda.
 PrRfSu:  requested number of processors reduced to:   6 ShMem   1 Linda.
 CalDSu:  requested number of processors reduced to:   7 ShMem   1 Linda.
     96 vectors produced by pass  7 Test12= 1.77D-14 1.00D-09 XBig12= 3.15D-13 4.46D-08.
 PrRfSu:  requested number of processors reduced to:   6 ShMem   1 Linda.
 CalDSu:  requested number of processors reduced to:   7 ShMem   1 Linda.
 PrRfSu:  requested number of processors reduced to:   6 ShMem   1 Linda.
 CalDSu:  requested number of processors reduced to:   7 ShMem   1 Linda.
     96 vectors produced by pass  8 Test12= 1.77D-14 1.00D-09 XBig12= 1.36D-14 8.45D-09.
 PrRfSu:  requested number of processors reduced to:   6 ShMem   1 Linda.
 CalDSu:  requested number of processors reduced to:   7 ShMem   1 Linda.
 PrRfSu:  requested number of processors reduced to:   6 ShMem   1 Linda.
 CalDSu:  requested number of processors reduced to:   7 ShMem   1 Linda.
     94 vectors produced by pass  9 Test12= 1.77D-14 1.00D-09 XBig12= 1.13D-15 2.65D-09.
 PrRfSu:  requested number of processors reduced to:   6 ShMem   1 Linda.
 CalDSu:  requested number of processors reduced to:   7 ShMem   1 Linda.
 PrRfSu:  requested number of processors reduced to:   6 ShMem   1 Linda.
 CalDSu:  requested number of processors reduced to:   7 ShMem   1 Linda.
     77 vectors produced by pass 10 Test12= 1.77D-14 1.00D-09 XBig12= 6.46D-16 1.67D-09.
     77 vectors produced by pass 11 Test12= 1.77D-14 1.00D-09 XBig12= 1.01D-14 7.01D-09.
     77 vectors produced by pass 12 Test12= 1.77D-14 1.00D-09 XBig12= 1.75D-14 9.61D-09.
     76 vectors produced by pass 13 Test12= 1.77D-14 1.00D-09 XBig12= 6.29D-15 5.16D-09.
     63 vectors produced by pass 14 Test12= 1.77D-14 1.00D-09 XBig12= 3.75D-15 3.47D-09.
     44 vectors produced by pass 15 Test12= 1.77D-14 1.00D-09 XBig12= 1.79D-15 2.15D-09.
 PrRfSu:  requested number of processors reduced to:   7 ShMem   1 Linda.
 InvSVY:  IOpt=1 It=  1 EMax= 8.88D-16
 Solved reduced A of dimension  1416 with   108 vectors.
 End of Minotr F.D. properties file   721 does not exist.
 End of Minotr F.D. properties file   722 does not exist.
 End of Minotr F.D. properties file   788 does not exist.
 Leave Link 1002 at Fri May 10 15:54:49 2024, MaxMem=    33554432 cpu:      2708.2
 (Enter /hits/basement/its/doserbd/software/gaussian/g09d1/g09/l601.exe)
 Copying SCF densities to generalized density rwf, IOpCl= 1 IROHF=0.

 **********************************************************************

            Population analysis using the SCF density.

 **********************************************************************

 Orbital symmetries:
 Alpha Orbitals:
       Occupied  (A) (A) (A) (A) (A) (A) (A) (A) (A) (A) (A) (A)
                 (A) (A) (A) (A) (A) (A) (A) (A) (A) (A) (A) (A)
                 (A) (A) (A) (A) (A) (A) (A) (A) (A) (A) (A) (A)
                 (A) (A) (A) (A) (A) (A) (A) (A) (A) (A) (A) (A)
                 (A) (A) (A) (A) (A)
       Virtual   (A) (A) (A) (A) (A) (A) (A) (A) (A) (A) (A) (A)
                 (A) (A) (A) (A) (A) (A) (A) (A) (A) (A) (A) (A)
                 (A) (A) (A) (A) (A) (A) (A) (A) (A) (A) (A) (A)
                 (A) (A) (A) (A) (A) (A) (A) (A) (A) (A) (A) (A)
                 (A) (A) (A) (A) (A) (A) (A) (A) (A) (A) (A) (A)
                 (A) (A) (A) (A) (A) (A) (A) (A) (A) (A) (A) (A)
                 (A) (A) (A) (A) (A) (A) (A) (A) (A) (A) (A) (A)
                 (A) (A) (A) (A) (A) (A) (A) (A) (A) (A) (A) (A)
                 (A) (A) (A) (A) (A) (A) (A) (A) (A) (A) (A) (A)
                 (A) (A) (A) (A) (A) (A) (A) (A) (A) (A) (A) (A)
                 (A) (A) (A) (A) (A) (A) (A) (A) (A) (A) (A) (A)
                 (A) (A) (A) (A) (A) (A) (A) (A) (A) (A) (A) (A)
                 (A) (A) (A) (A) (A) (A) (A) (A) (A) (A) (A) (A)
                 (A) (A) (A) (A) (A) (A) (A) (A) (A) (A) (A) (A)
 Beta  Orbitals:
       Occupied  (A) (A) (A) (A) (A) (A) (A) (A) (A) (A) (A) (A)
                 (A) (A) (A) (A) (A) (A) (A) (A) (A) (A) (A) (A)
                 (A) (A) (A) (A) (A) (A) (A) (A) (A) (A) (A) (A)
                 (A) (A) (A) (A) (A) (A) (A) (A) (A) (A) (A) (A)
                 (A) (A) (A) (A)
       Virtual   (A) (A) (A) (A) (A) (A) (A) (A) (A) (A) (A) (A)
                 (A) (A) (A) (A) (A) (A) (A) (A) (A) (A) (A) (A)
                 (A) (A) (A) (A) (A) (A) (A) (A) (A) (A) (A) (A)
                 (A) (A) (A) (A) (A) (A) (A) (A) (A) (A) (A) (A)
                 (A) (A) (A) (A) (A) (A) (A) (A) (A) (A) (A) (A)
                 (A) (A) (A) (A) (A) (A) (A) (A) (A) (A) (A) (A)
                 (A) (A) (A) (A) (A) (A) (A) (A) (A) (A) (A) (A)
                 (A) (A) (A) (A) (A) (A) (A) (A) (A) (A) (A) (A)
                 (A) (A) (A) (A) (A) (A) (A) (A) (A) (A) (A) (A)
                 (A) (A) (A) (A) (A) (A) (A) (A) (A) (A) (A) (A)
                 (A) (A) (A) (A) (A) (A) (A) (A) (A) (A) (A) (A)
                 (A) (A) (A) (A) (A) (A) (A) (A) (A) (A) (A) (A)
                 (A) (A) (A) (A) (A) (A) (A) (A) (A) (A) (A) (A)
                 (A) (A) (A) (A) (A) (A) (A) (A) (A) (A) (A) (A)
                 (A)
 The electronic state is 2-A.
 Alpha  occ. eigenvalues --  -10.50334 -10.49685 -10.49531 -10.48674 -10.48494
 Alpha  occ. eigenvalues --  -10.47841 -10.47687 -10.47568 -10.47021 -10.46988
 Alpha  occ. eigenvalues --  -10.46894 -10.46862 -10.46033 -10.45960  -0.94148
 Alpha  occ. eigenvalues --   -0.88658  -0.86989  -0.84004  -0.81131  -0.80292
 Alpha  occ. eigenvalues --   -0.76747  -0.71839  -0.68518  -0.66772  -0.64496
 Alpha  occ. eigenvalues --   -0.63262  -0.61994  -0.54481  -0.52991  -0.52796
 Alpha  occ. eigenvalues --   -0.51394  -0.49050  -0.47557  -0.47322  -0.47180
 Alpha  occ. eigenvalues --   -0.47058  -0.46217  -0.43973  -0.41901  -0.41860
 Alpha  occ. eigenvalues --   -0.40959  -0.40511  -0.40471  -0.38329  -0.37440
 Alpha  occ. eigenvalues --   -0.37175  -0.36837  -0.36675  -0.36600  -0.35808
 Alpha  occ. eigenvalues --   -0.28765  -0.27063  -0.26749
 Alpha virt. eigenvalues --    0.02027   0.02359   0.04879   0.05199   0.05485
 Alpha virt. eigenvalues --    0.05965   0.06166   0.07307   0.07856   0.07863
 Alpha virt. eigenvalues --    0.08141   0.08801   0.09239   0.10104   0.10369
 Alpha virt. eigenvalues --    0.10629   0.11026   0.11247   0.11781   0.12315
 Alpha virt. eigenvalues --    0.12318   0.12743   0.13659   0.14061   0.14955
 Alpha virt. eigenvalues --    0.15279   0.15327   0.16553   0.17868   0.17899
 Alpha virt. eigenvalues --    0.18050   0.18112   0.18547   0.18818   0.19246
 Alpha virt. eigenvalues --    0.19389   0.20002   0.21417   0.21444   0.21575
 Alpha virt. eigenvalues --    0.21846   0.22657   0.23278   0.23388   0.23548
 Alpha virt. eigenvalues --    0.24445   0.24513   0.24901   0.25157   0.25246
 Alpha virt. eigenvalues --    0.25752   0.26287   0.26515   0.27003   0.27008
 Alpha virt. eigenvalues --    0.28778   0.29146   0.29368   0.29623   0.30052
 Alpha virt. eigenvalues --    0.30338   0.30406   0.30758   0.31275   0.31811
 Alpha virt. eigenvalues --    0.32617   0.33426   0.34078   0.34191   0.34588
 Alpha virt. eigenvalues --    0.35049   0.35538   0.35945   0.36975   0.37112
 Alpha virt. eigenvalues --    0.37533   0.37872   0.39385   0.40214   0.40542
 Alpha virt. eigenvalues --    0.41827   0.42893   0.43931   0.44212   0.45548
 Alpha virt. eigenvalues --    0.45704   0.47681   0.49827   0.51423   0.60613
 Alpha virt. eigenvalues --    0.62094   0.70355   0.70699   0.70908   0.71287
 Alpha virt. eigenvalues --    0.72191   0.73518   0.73696   0.74241   0.75889
 Alpha virt. eigenvalues --    0.76330   0.77546   0.77660   0.78139   0.78888
 Alpha virt. eigenvalues --    0.79303   0.79735   0.79877   0.81223   0.81391
 Alpha virt. eigenvalues --    0.83158   0.83295   0.83779   0.84777   0.85681
 Alpha virt. eigenvalues --    0.85900   0.88207   0.89503   0.89973   0.92080
 Alpha virt. eigenvalues --    0.94997   0.95128   0.96354   0.97423   0.97622
 Alpha virt. eigenvalues --    0.98343   1.00303   1.03690   1.06461   1.07152
 Alpha virt. eigenvalues --    1.08510   1.11517   1.12847   1.13143   1.14305
 Alpha virt. eigenvalues --    1.15784   1.16687   1.18499   1.20597   1.21055
 Alpha virt. eigenvalues --    1.21657   1.22307   1.23087   1.24259   1.25465
 Alpha virt. eigenvalues --    1.25644   1.27377   1.29695   1.30843   1.31810
 Alpha virt. eigenvalues --    1.32325   1.32624   1.33136   1.34795   1.36367
 Alpha virt. eigenvalues --    1.36910   1.38711   1.40563   1.45634   1.50681
 Alpha virt. eigenvalues --    1.52202   1.54523   1.56952   1.66244   1.68940
 Alpha virt. eigenvalues --    1.89052   2.02080   2.05835
  Beta  occ. eigenvalues --  -10.49590 -10.49483 -10.48577 -10.48490 -10.48415
  Beta  occ. eigenvalues --  -10.47941 -10.47672 -10.47502 -10.47020 -10.46987
  Beta  occ. eigenvalues --  -10.46893 -10.46863 -10.46033 -10.45959  -0.93469
  Beta  occ. eigenvalues --   -0.88541  -0.86914  -0.83831  -0.80286  -0.80085
  Beta  occ. eigenvalues --   -0.76564  -0.71731  -0.68384  -0.66313  -0.64476
  Beta  occ. eigenvalues --   -0.62717  -0.61117  -0.54029  -0.52976  -0.52795
  Beta  occ. eigenvalues --   -0.50967  -0.48373  -0.47504  -0.47256  -0.47048
  Beta  occ. eigenvalues --   -0.46965  -0.46091  -0.43665  -0.41701  -0.41322
  Beta  occ. eigenvalues --   -0.40745  -0.40450  -0.39936  -0.38101  -0.37311
  Beta  occ. eigenvalues --   -0.37004  -0.36820  -0.36613  -0.36586  -0.35624
  Beta  occ. eigenvalues --   -0.28260  -0.26321
  Beta virt. eigenvalues --   -0.04793   0.02280   0.03141   0.04900   0.05221
  Beta virt. eigenvalues --    0.05490   0.05992   0.06314   0.07327   0.07887
  Beta virt. eigenvalues --    0.07933   0.08120   0.09080   0.09407   0.10132
  Beta virt. eigenvalues --    0.10404   0.10662   0.10954   0.11319   0.11781
  Beta virt. eigenvalues --    0.12342   0.12344   0.13000   0.14020   0.14035
  Beta virt. eigenvalues --    0.14986   0.15309   0.15321   0.16559   0.17960
  Beta virt. eigenvalues --    0.18017   0.18066   0.18137   0.18643   0.18942
  Beta virt. eigenvalues --    0.19373   0.19715   0.20185   0.21429   0.21538
  Beta virt. eigenvalues --    0.21694   0.21931   0.22969   0.23303   0.23458
  Beta virt. eigenvalues --    0.23757   0.24512   0.24804   0.24957   0.25268
[...]
 -0.00383627,0.00106466,0.00197397,-0.00372131,-0.00104684,0.05229709,0
 .51235309,0.00000890,0.00000024,-0.00007987,-0.00000812,0.00000737,0.0
 0005090,-0.00000006,0.00000088,0.00001447,-0.00000025,0.00000523,-0.00
 009065,0.00000077,0.00000035,0.00063610,-0.00000860,-0.00000732,-0.000
 06672,0.00000113,-0.00000126,-0.00000299,0.00000061,-0.00000061,0.0000
 9624,-0.00000137,-0.00000037,0.00000984,0.00000119,0.00000045,-0.00000
 075,0.00000010,0.00000038,-0.00000065,0.00000216,-0.00000099,-0.000033
 24,-0.00000214,-0.00000167,0.00000009,0.00000197,0.00000126,0.00000034
 ,-0.00000114,0.00000059,0.00000328,-0.00000057,-0.00000078,-0.00000082
 ,0.00000136,0.00000042,-0.00000134,0.00000023,0.00000012,0.00000301,0.
 00000052,-0.00000007,-0.00000019,-0.00000056,-0.00000032,-0.00000033,0
 .00001282,0.00000701,-0.00032030,-0.00032601,0.00014406,0.00028928,0.0
 0032634,-0.00014182,0.00028822,-0.00004343,0.00008526,0.00001293,-0.00
 034130,0.00094497,0.00025848,0.00033515,-0.00095117,0.00026139,-0.0001
 0195,0.00015367,-0.08304925,0.01499278,-0.02510463,0.00115158,-0.01498
 918,0.02510606,0.00105213,-0.00011006,0.00013601,0.58071175,0.00000223
 ,0.00000952,-0.00000738,-0.00000355,0.00000188,0.00000021,0.00000033,0
 .00000862,-0.00000776,0.00001586,0.00001785,0.00001237,-0.00000215,-0.
 00001749,0.00006193,0.00004318,0.00002813,0.00001258,-0.00000199,0.000
 00753,-0.00000154,-0.00001548,0.00000951,-0.00000302,-0.00000150,-0.00
 000342,-0.00000051,0.00000052,0.00000345,-0.00000108,0.00000301,0.0000
 0468,0.00000201,0.00000707,0.00000283,0.00000036,0.00000018,-0.0000020
 8,0.00000234,-0.00000143,-0.00000141,-0.00000101,-0.00000557,-0.000000
 24,-0.00000138,0.00000160,0.00000009,0.00000120,-0.00000005,-0.0000000
 6,-0.00000001,0.00000268,0.00000226,-0.00000042,-0.00000129,-0.0000007
 1,0.00000034,-0.00000034,-0.00000095,0.00000045,0.00011364,-0.00004504
 ,0.00023607,-0.00007950,0.00001931,-0.00000452,0.00005599,-0.00020335,
 0.00006297,0.00062580,-0.00103690,0.00036773,-0.00002356,0.00002493,0.
 00014494,0.00065793,0.00047408,0.00013004,-0.01164084,0.00153672,-0.01
 617822,-0.00016273,-0.00051062,0.00021133,-0.00110692,0.00334397,0.000
 71779,-0.13805155,0.00481378,-0.12327896,0.15009885,-0.00002285,-0.000
 00581,0.00000467,-0.00001059,0.00000529,-0.00000380,-0.00000359,0.0000
 2031,-0.00000767,0.00003646,0.00003211,0.00002221,-0.00015017,0.000021
 16,-0.00009922,0.00003026,-0.00004375,-0.00000588,-0.00000081,0.000007
 89,0.00000012,-0.00002721,-0.00000936,0.00001634,-0.00000602,-0.000001
 94,-0.00000282,0.00000179,0.00000214,-0.00000108,0.00000095,0.00000144
 ,0.00000104,0.00000834,0.00000203,0.00000259,-0.00000112,-0.00000154,0
 .00000073,-0.00000056,-0.00000183,-0.00000111,-0.00000523,0.00000011,0
 .00000048,0.00000048,-0.00000025,0.00000028,0.00000066,-0.00000004,-0.
 00000042,0.00000312,0.00000246,-0.00000012,-0.00000092,-0.00000109,0.0
 0000040,-0.00000109,-0.00000096,-0.00000044,0.00007815,-0.00007758,-0.
 00021657,0.00002360,0.00004465,0.00004361,-0.00021620,0.00014040,-0.00
 018978,0.00083148,0.00182574,0.00126027,-0.00007660,-0.00008024,0.0000
 1271,-0.00052799,-0.00041952,-0.00063712,0.01891673,-0.00395262,0.0254
 4559,-0.00068373,0.00122829,-0.00029432,0.00304218,-0.00494384,-0.0003
 0923,0.00433204,-0.04878460,0.00807742,-0.00888607,0.05403017,0.000016
 26,0.00000775,0.00000524,0.00000400,-0.00000271,-0.00000074,-0.0000032
 4,-0.00000261,-0.00000175,0.00003183,0.00002703,0.00000534,-0.00007775
 ,0.00001896,-0.00000202,-0.00000704,0.00004369,0.00001786,0.00000153,0
 .00000375,-0.00000102,-0.00001310,0.00003269,-0.00002458,0.00000253,-0
 .00000281,-0.00000182,-0.00000024,0.00000329,-0.00000233,0.00000125,0.
 00000472,0.00000262,0.00000017,0.00000249,0.00000020,0.00000117,-0.000
 00153,0.00000211,-0.00000009,-0.00000090,-0.00000134,-0.00000119,-0.00
 000100,-0.00000105,0.00000091,0.00000042,0.00000164,-0.00000008,0.0000
 0028,-0.00000087,0.00000041,0.00000050,-0.00000004,-0.00000030,-0.0000
 0024,-0.00000058,0.00000032,-0.00000033,0.00000100,0.00035394,0.000123
 54,0.00026610,0.00000441,-0.00002565,-0.00001198,0.00006078,-0.0001834
 8,-0.00002208,0.00037074,-0.00015374,0.00016336,-0.00014901,0.00003179
 ,-0.00011027,0.00017331,0.00067691,0.00013921,0.00078933,-0.00141063,0
 .00068877,-0.00006948,0.00045829,0.00082561,0.00035911,-0.00044189,0.0
 0150025,-0.12359797,0.00878923,-0.22506200,0.13810871,-0.00922429,0.24
 428098,0.00000417,0.00000726,0.00000786,-0.00000952,0.00000658,-0.0000
 0036,0.00000051,0.00000824,0.00000649,0.00001338,0.00002183,-0.0000123
 7,0.00000160,-0.00002104,-0.00006226,0.00004122,0.00002705,-0.00001278
 ,-0.00000073,0.00000663,0.00000166,-0.00001483,0.00000862,0.00000353,-
 0.00000322,-0.00000219,0.00000074,0.00000332,0.00000455,-0.00000156,0.
 00000131,0.00000344,0.00000105,0.00000986,0.00000117,-0.00000091,-0.00
 000168,-0.00000161,0.00000075,-0.00000033,-0.00000220,-0.00000178,-0.0
 0000632,0.00000094,0.00000120,0.00000023,-0.00000024,0.00000010,0.0000
 0168,-0.00000011,-0.00000113,0.00000322,0.00000207,0.00000048,-0.00000
 050,-0.00000114,-0.00000022,-0.00000134,-0.00000100,-0.00000052,0.0001
 1499,-0.00004662,-0.00023608,0.00005590,-0.00020315,-0.00006183,-0.000
 07934,0.00001954,0.00000447,0.00062406,-0.00103890,-0.00036365,0.00065
 732,0.00047285,-0.00013249,-0.00002357,0.00002432,-0.00014530,-0.01162
 372,0.00161497,0.01618403,-0.00110816,0.00334083,-0.00073106,-0.000162
 63,-0.00051224,-0.00020737,-0.13777981,0.00539424,0.12315920,0.0117625
 2,-0.00089982,-0.01750165,0.14979578,-0.00002066,-0.00000528,-0.000004
 48,-0.00001132,0.00000575,0.00000364,-0.00000364,0.00002058,0.00000694
 ,0.00003738,0.00003102,-0.00002222,-0.00015096,0.00002280,0.00009861,0
 .00002886,-0.00004521,0.00000630,-0.00000090,0.00000760,-0.00000007,-0
 .00002702,-0.00000975,-0.00001605,-0.00000570,-0.00000250,0.00000295,0
 .00000086,0.00000160,-0.00000112,0.00000190,0.00000237,0.00000135,0.00
 000772,0.00000248,-0.00000237,-0.00000034,-0.00000178,0.00000127,-0.00
 000096,-0.00000154,-0.00000089,-0.00000536,-0.00000033,-0.00000057,0.0
 0000083,-0.00000003,0.00000059,0.00000053,-0.00000022,-0.00000037,0.00
 000288,0.00000268,0.00000003,-0.00000103,-0.00000090,0.00000039,-0.000
 00082,-0.00000103,-0.00000027,0.00007653,-0.00007698,0.00021777,-0.000
 21642,0.00014221,0.00018936,0.00002340,0.00004449,-0.00004386,0.000828
 73,0.00182030,-0.00126899,-0.00052818,-0.00041976,0.00064047,-0.000075
 92,-0.00008046,-0.00001284,0.01888484,-0.00406709,-0.02544374,0.003040
 71,-0.00494009,0.00033679,-0.00068305,0.00122752,0.00029310,0.00491243
 ,-0.04886974,-0.00892476,-0.00081539,-0.00030894,0.00071992,-0.0095346
 2,0.05412274,-0.00002213,-0.00000669,0.00000663,0.00000363,-0.00000367
 ,-0.00000203,0.00000305,0.00000239,-0.00000528,-0.00003021,-0.00003134
 ,0.00000614,0.00007448,-0.00001608,-0.00000570,0.00001234,-0.00003913,
 0.00001844,-0.00000275,-0.00000252,-0.00000051,0.00001252,-0.00003194,
 -0.00002251,-0.00000093,0.00000245,-0.00000118,-0.00000247,-0.00000503
 ,0.00000323,0.00000019,-0.00000341,-0.00000160,-0.00000268,-0.00000123
 ,0.00000088,0.00000052,0.00000121,-0.00000099,-0.00000117,0.00000160,0
 .00000194,0.00000221,0.00000016,-0.00000162,0.00000013,-0.00000013,-0.
 00000073,-0.00000160,-0.00000020,0.00000211,-0.00000078,-0.00000051,-0
 .00000049,-0.00000046,0.00000055,0.00000107,0.00000053,0.00000046,-0.0
 0000025,-0.00035604,-0.00012171,0.00026481,-0.00005993,0.00018298,-0.0
 0002345,-0.00000439,0.00002486,-0.00001136,-0.00037455,0.00014750,0.00
 016984,-0.00017139,-0.00067495,0.00013951,0.00014967,-0.00003195,-0.00
 010959,-0.00086626,0.00143191,0.00078612,-0.00037119,0.00046916,0.0014
 9825,0.00007408,-0.00045956,0.00082655,0.12347969,-0.00963880,-0.22524
 964,0.01746794,-0.00082671,-0.02287199,-0.13796160,0.01014342,0.244492
 95,0.00008020,0.00003196,-0.00000055,-0.00018859,0.00030779,-0.0000003
 4,-0.00006648,0.00001863,0.00000155,0.00001948,-0.00000757,-0.00000028
 ,0.00000188,-0.00000076,0.00000130,-0.00002856,0.00001314,-0.00000024,
 0.00001021,0.00000569,-0.00000023,0.00000611,0.00000545,-0.00000080,0.
 00079193,0.00084705,-0.00000249,0.00004727,-0.00007906,0.00003936,0.00
 004678,-0.00007943,-0.00003956,-0.00215274,0.00266069,-0.00000526,0.00
 000294,0.00013916,0.00026708,0.00000242,0.00013760,-0.00026756,0.01174
 946,0.01803082,-0.00004976,0.00083460,-0.00082921,0.00002855,0.0008345
 6,-0.00082974,-0.00002578,-0.15107036,-0.13170459,0.00037041,-0.012286
 57,-0.01575149,-0.00103440,-0.01230543,-0.01577171,0.00112343,0.000003
 92,-0.00000021,0.00000072,-0.00000028,-0.00000031,0.00000002,-0.000000
 35,-0.00000009,-0.00000037,-0.00000453,-0.00000043,0.,0.00000052,0.000
 00091,0.00000006,0.00000032,0.00000083,-0.00000022,0.00000347,0.000000
 18,0.00000021,-0.00000016,0.00000030,0.00000001,-0.00000045,0.00000031
 ,-0.00000025,-0.00000195,-0.00000172,0.00000008,0.00000082,0.00000088,
 0.00000033,0.00000095,0.00000080,-0.00000043,0.16366757,-0.00019024,-0
 .00010580,0.00000073,0.00059743,-0.00036737,0.00000037,0.00001882,0.00
 000395,0.00000011,0.00000836,-0.00005059,-0.00000013,0.00001097,0.0000
 1562,0.00000049,0.00001661,-0.00009267,-0.00000008,0.00004715,0.000009
 28,-0.00000011,-0.00001130,-0.00003157,0.00000004,-0.00171240,-0.00088
 079,0.00000432,0.00001227,-0.00000064,-0.00009306,0.00001265,-0.000000
 51,0.00009301,0.00556673,-0.00368676,0.00000553,0.00015909,0.00036709,
 -0.00012976,0.00015747,0.00036634,0.00012908,-0.01910660,-0.02207262,0
 .00006183,-0.00010820,0.00087329,0.00074514,-0.00011016,0.00086808,-0.
 00074946,-0.13070080,-0.21510540,0.00046495,0.00131321,0.00138153,-0.0
 0051965,0.00122735,0.00127365,0.00051262,-0.00000318,0.00000671,0.0000
 0037,-0.00000708,-0.00001529,0.00000462,-0.00000705,-0.00001524,-0.000
 00468,-0.00002633,-0.00000715,-0.00000022,0.00000254,0.00000659,0.0000
 0515,0.00000261,0.00000649,-0.00000511,0.00001709,0.00000079,-0.000000
 08,-0.00000252,0.00000007,0.00000176,-0.00000249,0.00000009,-0.0000017
 2,-0.00001038,-0.00000774,0.00000005,0.00000313,0.00000333,0.00000097,
 0.00000313,0.00000328,-0.00000099,0.14284955,0.23727582,-0.00000145,-0
 .00000107,-0.00002276,-0.00000163,0.00000075,0.00003218,-0.00000002,-0
 .00000040,0.00000196,-0.00000073,0.00000073,0.00000446,0.00000029,-0.0
 0000061,-0.00000204,0.00000166,0.00000203,0.00000478,0.00000014,-0.000
 00006,-0.00001576,0.00000015,-0.00000017,0.00000293,0.00000357,0.00000
 367,0.00054529,-0.00004534,0.00006592,-0.00001972,0.00004534,-0.000066
 22,-0.00002012,-0.00001137,0.00000721,0.00015411,0.00034546,0.00029539
 ,0.00021258,-0.00034629,-0.00029632,0.00021436,0.00003886,0.00004176,-
 0.00062497,0.00022468,0.00033087,-0.00007546,-0.00022522,-0.00033453,-
 0.00006987,0.00036814,0.00046540,-0.05087959,0.01808304,0.02306631,0.0
 0008188,-0.01807549,-0.02305471,0.00020835,0.00000047,-0.00000016,0.00
 000099,0.00000035,-0.00000009,-0.00000012,-0.00000023,0.00000028,-0.00
 000021,-0.00000022,-0.00000001,-0.00000195,0.00000008,-0.00000009,-0.0
 0000024,-0.00000012,0.00000013,-0.00000027,0.00000002,-0.00000024,0.00
 000054,0.00000029,-0.00000006,-0.00000022,-0.00000024,0.,-0.00000006,0
 .00000030,0.00000060,0.00000057,-0.00000025,0.,-0.00000018,0.00000018,
 -0.00000003,-0.00000026,-0.00040424,-0.00052618,0.05026896,0.00000528,
 -0.00000076,0.00000403,0.00000964,-0.00000803,-0.00000298,-0.00002043,
 0.00001689,-0.00000950,0.00007397,0.00005294,0.00000077,-0.00021043,0.
 00026380,-0.00000756,-0.00004548,0.00002235,0.00000056,0.00000586,0.00
 000679,0.00000121,0.00000342,0.00001342,0.00000489,0.00000506,0.000003
 45,0.00000179,-0.00000265,-0.00000113,0.00000272,0.00000076,-0.0000004
 6,0.00000088,-0.00000517,-0.00000076,-0.00000019,0.00000100,0.00000116
 ,0.00000037,-0.00000039,0.00000087,0.00000070,0.00000472,0.00000028,-0
 .00000156,0.00000020,0.00000038,0.00000022,-0.00000175,0.00000046,0.00
 000141,-0.00000178,-0.00000188,-0.00000081,0.00000025,0.00000099,0.000
 00021,0.00000129,0.00000080,0.00000069,0.00080962,0.00086084,-0.000005
 55,0.00004696,-0.00007916,0.00004020,0.00004755,-0.00008073,-0.0000380
 0,-0.00216929,0.00266745,-0.00000538,0.00000014,0.00013846,-0.00026681
 ,0.00000222,0.00014034,0.00026745,0.01175951,0.01806715,-0.00005154,0.
 00083611,-0.00083022,-0.00002553,0.00083837,-0.00082978,0.00003011,-0.
 15097065,-0.13169362,0.00036870,-0.01229155,-0.01578598,0.00113551,-0.
 01227401,-0.01576563,-0.00104558,-0.00000100,-0.00000276,-0.00000028,0
 .16354453,-0.00002282,-0.00002136,0.00000383,0.00002667,-0.00000402,-0
 .00000280,0.00005646,-0.00006024,-0.00000852,-0.00024676,-0.00021307,0
 .00000141,0.00066032,-0.00028207,-0.00000610,-0.00002980,-0.00002083,0
 .00000060,-0.00000707,-0.00003973,0.00000120,0.00005449,0.00001550,0.0
 0000442,0.00000412,0.00001339,0.00000165,-0.00000852,-0.00001589,0.000
 00777,-0.00000542,-0.00001530,-0.00000445,-0.00002795,-0.00000790,-0.0
 0000013,0.00000303,0.00000698,-0.00000445,0.00000179,0.00000673,0.0000
 0538,0.00001856,0.00000062,-0.00000142,-0.00000206,0.00000012,-0.00000
 156,-0.00000384,0.00000019,0.00000305,-0.00001039,-0.00000806,-0.00000
 074,0.00000251,0.00000341,-0.00000041,0.00000346,0.00000325,0.00000122
 ,-0.00174813,-0.00091767,0.00000152,0.00001343,-0.00000184,-0.00009587
 ,0.00001426,-0.00000288,0.00009744,0.00557034,-0.00367082,0.00000583,0
 .00015846,0.00036454,0.00012970,0.00016123,0.00036559,-0.00012964,-0.0
 1908428,-0.02207563,0.00006024,-0.00011092,0.00086747,-0.00074708,-0.0
 0010723,0.00087258,0.00074415,-0.13067335,-0.21529375,0.00046365,0.001
 21743,0.00126769,0.00051348,0.00130208,0.00137560,-0.00051957,-0.00000
 263,-0.00001077,-0.00000023,0.14281900,0.23747496,0.00000023,-0.000000
 65,0.00000405,-0.00000154,0.00000115,-0.00000067,-0.00000007,0.,0.0000
 0191,-0.00000021,0.00000155,-0.00002187,-0.00000040,-0.00000035,0.0000
 2958,-0.00000014,0.00000005,0.00000531,0.00000035,-0.00000011,0.000002
 60,0.00000002,-0.00000031,-0.00001743,-0.00000050,0.00000036,0.0000001
 1,0.00000048,-0.00000022,-0.00000007,-0.00000015,0.00000021,-0.0000002
 0,0.00000087,-0.00000047,-0.00000200,-0.00000033,0.,-0.00000041,0.0000
 0006,-0.00000011,-0.00000017,-0.00000022,0.00000035,0.00000079,-0.0000
 0035,-0.00000002,-0.00000024,0.00000043,-0.00000008,-0.00000022,0.0000
 0019,-0.00000006,0.00000052,0.00000017,-0.00000009,-0.00000015,-0.0000
 0026,-0.00000006,-0.00000028,0.00000458,0.00000292,0.00054482,-0.00004
 515,0.00006595,-0.00001985,0.00004508,-0.00006581,-0.00002008,-0.00001
 232,0.00000758,0.00015530,-0.00034484,-0.00029676,0.00021230,0.0003442
 4,0.00029594,0.00021071,0.00003884,0.00004111,-0.00063118,-0.00022558,
 -0.00033475,-0.00007044,0.00022515,0.00033107,-0.00007570,0.00036729,0
 .00046555,-0.05088345,-0.01805135,-0.02306860,0.00021803,0.01805897,0.
 02308032,0.00009153,0.00000005,0.00000003,0.00000012,-0.00040357,-0.00
 052576,0.05026296,0.00106787,0.00012757,-0.00000329,0.00113091,-0.0025
 9558,0.00001015,-0.01195492,0.00396915,-0.00000087,-0.34167695,0.00557
 654,0.00015688,-0.01287075,-0.00333004,0.00001544,0.00044267,0.0025909
 4,-0.00000180,0.00090256,-0.00051960,-0.00000156,-0.00062526,-0.000185
 30,0.00000080,-0.00039596,0.00041393,-0.00000074,-0.00012228,-0.000132
 65,-0.00001395,-0.00012259,-0.00013254,0.00001447,-0.00015576,0.000057
 11,0.00000239,0.00002728,0.00000030,0.00001081,0.00002764,-0.00000011,
 -0.00001177,0.00007388,-0.00002587,0.00000025,-0.00000148,0.00000918,0
 .00000409,-0.00000126,0.00000930,-0.00000447,-0.00003487,-0.00001996,0
 .00000002,0.00000666,0.00000121,-0.00000850,0.00000641,0.00000132,0.00
 000839,0.00088139,-0.00152581,0.00000045,0.00029362,0.00070556,-0.0001
 6530,0.00029282,0.00070580,0.00016165,0.00022697,0.00021997,0.00000039
 ,0.00004473,-0.00011135,-0.00005980,0.00004436,-0.00011066,0.00005989,
 -0.00002003,0.00001241,0.00000036,0.00000802,0.00000939,-0.00001142,0.
 00000785,0.00000933,0.00001111,0.00000116,0.00000283,-0.00000031,-0.00
 000221,-0.00000057,0.00000461,-0.00000232,-0.00000047,-0.00000444,0.00
 000202,-0.00002466,0.00000011,-0.00000188,0.00000349,-0.00000004,0.362
 49966,0.00000398,-0.00164943,0.,-0.00233356,-0.00424689,0.00002872,-0.
 03063974,0.00320595,0.00002300,0.00556814,-0.05907883,0.00004404,0.029
 94091,0.00227879,-0.00000839,0.00245705,-0.00439006,0.00002346,0.00045
 375,0.00085393,-0.00001299,0.00140192,0.00007268,-0.00000327,-0.000969
 13,0.00038339,-0.00000112,-0.00015531,-0.00017030,-0.00000363,-0.00015
 690,-0.00017010,0.00000302,-0.00007014,0.00011714,-0.00000078,0.000019
 25,-0.00001795,0.00004322,0.00001969,-0.00001820,-0.00004341,0.0000598
 8,-0.00003507,0.00000075,0.00000616,0.00001575,0.00000720,0.00000699,0
 .00001566,-0.00000795,-0.00001877,-0.00001199,0.00000042,0.00000191,-0
 .00000390,-0.00001100,0.00000149,-0.00000376,0.00001061,0.00067140,0.0
 0132362,-0.00000679,-0.00008138,-0.00030347,0.00040250,-0.00008562,-0.
 00030592,-0.00040426,-0.00019477,0.00000763,-0.00000089,-0.00005999,0.
 00014491,0.00006429,-0.00006091,0.00014474,-0.00006535,-0.00009431,-0.
 00000891,0.00000086,-0.00000265,-0.00002533,0.00000985,-0.00000353,-0.
 00002536,-0.00001045,0.00002559,0.00002222,0.00000031,-0.00000596,-0.0
 0000129,-0.00000786,-0.00000544,-0.00000139,0.00000744,0.00000722,-0.0
 0001109,0.00000014,0.00000307,0.00002320,0.00000009,-0.00571025,0.0618
 6962,0.00000572,0.00000916,-0.00102360,0.00001576,0.00002336,0.0067018
 6,0.00008206,0.00000167,0.00390623,0.00016162,0.00003761,-0.03911097,-
 0.00006764,0.00001300,0.00433832,-0.00000838,0.00001655,0.00616122,-0.
 00000640,-0.00001107,-0.00422357,-0.00000415,0.00000163,-0.00006995,0.
 00000608,-0.00000562,0.00000514,0.00002739,-0.00009487,-0.00000588,-0.
 00002824,0.00009740,-0.00000463,-0.00000580,0.00000345,-0.00009742,0.0
 0001977,0.00004678,0.00002035,-0.00001760,-0.00004610,0.00001858,0.000
 00069,-0.00000283,0.00001847,-0.00000109,-0.00000159,-0.00000099,0.000
 00099,0.00000217,-0.00000164,-0.00000134,0.00000095,0.00000786,0.00000
 343,-0.00000108,-0.00000451,-0.00000284,0.00000211,-0.00000349,-0.0000
 0730,-0.00000633,-0.00210847,0.00074016,0.00023748,-0.00049097,-0.0007
 4136,-0.00024019,-0.00048653,0.00000256,-0.00000058,-0.00038227,0.0000
 5819,-0.00007140,-0.00000246,-0.00005759,0.00007021,-0.00000186,-0.000
 00036,0.00000189,0.00006027,0.00000066,0.00000677,-0.00000888,-0.00000
 106,-0.00000608,-0.00001017,-0.00000222,-0.00000503,0.00000158,-0.0000
 0392,0.00000071,-0.00000170,0.00000424,-0.00000056,-0.00000082,-0.0000
 0040,0.00000003,-0.00000026,0.00000244,0.00000219,0.00000374,-0.000174
 03,-0.00008181,0.02679742\\0.00000074,-0.00000290,0.00000001,0.0000009
 8,-0.00000058,0.00000015,0.00000871,0.00001138,-0.00000005,-0.00000084
 ,0.00000212,0.,-0.00000084,0.00000088,-0.00000008,-0.00000941,-0.00001
 078,0.00000004,-0.00002610,-0.00003331,0.00000012,0.00002748,0.0000340
 9,-0.00000014,0.00000187,-0.00000006,-0.00000022,0.00000188,-0.0000017
 5,0.00000023,0.00000188,-0.00000177,-0.00000020,0.00001584,0.00001487,
 0.00000004,0.00000600,0.00000358,0.00000067,0.00000602,0.00000359,-0.0
 0000075,0.00000360,-0.00000242,-0.00000004,0.00000386,-0.00000138,0.00
 000008,0.00000387,-0.00000139,-0.00000003,0.00000480,-0.00000080,0.000
 00006,0.00000449,-0.00000018,0.00000008,0.00000449,-0.00000018,-0.0000
 0014,-0.00000194,0.00000015,0.00000015,-0.00000198,0.00000147,-0.00000
 033,-0.00000197,0.00000149,0.00000028,-0.00001747,-0.00001745,-0.00000
 001,-0.00000546,-0.00000298,0.00000083,-0.00000551,-0.00000305,-0.0000
 0075,-0.00000376,0.00000245,0.00000004,-0.00000382,0.00000126,-0.00000
 008,-0.00000382,0.00000125,0.00000003,-0.00000447,0.00000091,-0.000000
 03,-0.00000457,0.00000008,-0.00000006,-0.00000457,0.00000008,0.0000001
 0,0.00000507,-0.00000115,0.,-0.00000517,0.00000091,-0.00000001,0.00000
 012,0.00000158,-0.00000002\\\@


 FIREWORKS ENDED
 AND SPECTATORS GONE AWAY....
 AH, HOW VAST AND DARK
                     SHIKI
 Job cpu time:       0 days  1 hours 23 minutes 35.8 seconds.
 File lengths (MBytes):  RWF=    755 Int=      0 D2E=      0 Chk=      7 Scr=      1
 Normal termination of Gaussian 09 at Fri May 10 16:10:58 2024.
