
                                 *****************
                                 * O   R   C   A *
                                 *****************

                                            #,                                       
                                            ###                                      
                                            ####                                     
                                            #####                                    
                                            ######                                   
                                           ########,                                 
                                     ,,################,,,,,                         
                               ,,#################################,,                 
                          ,,##########################################,,             
                       ,#########################################, ''#####,          
                    ,#############################################,,   '####,        
                  ,##################################################,,,,####,       
                ,###########''''           ''''###############################       
              ,#####''   ,,,,##########,,,,          '''####'''          '####       
            ,##' ,,,,###########################,,,                        '##       
           ' ,,###''''                  '''############,,,                           
         ,,##''                                '''############,,,,        ,,,,,,###''
      ,#''                                            '''#######################'''  
     '                                                          ''''####''''         
             ,#######,   #######,   ,#######,      ##                                
            ,#'     '#,  ##    ##  ,#'     '#,    #''#        ######   ,####,        
            ##       ##  ##   ,#'  ##            #'  '#       #        #'  '#        
            ##       ##  #######   ##           ,######,      #####,   #    #        
            '#,     ,#'  ##    ##  '#,     ,#' ,#      #,         ##   #,  ,#        
             '#######'   ##     ##  '#######'  #'      '#     #####' # '####'        



                  #######################################################
                  #                        -***-                        #
                  #          Department of theory and spectroscopy      #
                  #    Directorship and core code : Frank Neese         #
                  #        Max Planck Institute fuer Kohlenforschung    #
                  #                Kaiser Wilhelm Platz 1               #
                  #                 D-45470 Muelheim/Ruhr               #
                  #                      Germany                        #
                  #                                                     #
                  #                  All rights reserved                #
                  #                        -***-                        #
                  #######################################################


                         Program Version 5.0.4 -  RELEASE  -


 With contributions from (in alphabetic order):
   Daniel Aravena         : Magnetic Suceptibility
   Michael Atanasov       : Ab Initio Ligand Field Theory (pilot matlab implementation)
   Alexander A. Auer      : GIAO ZORA, VPT2 properties, NMR spectrum
   Ute Becker             : Parallelization
   Giovanni Bistoni       : ED, misc. LED, open-shell LED, HFLD
   Martin Brehm           : Molecular dynamics
   Dmytro Bykov           : SCF Hessian
   Vijay G. Chilkuri      : MRCI spin determinant printing, contributions to CSF-ICE
   Dipayan Datta          : RHF DLPNO-CCSD density
   Achintya Kumar Dutta   : EOM-CC, STEOM-CC
   Dmitry Ganyushin       : Spin-Orbit,Spin-Spin,Magnetic field MRCI
   Miquel Garcia          : C-PCM and meta-GGA Hessian, CC/C-PCM, Gaussian charge scheme
   Yang Guo               : DLPNO-NEVPT2, F12-NEVPT2, CIM, IAO-localization
   Andreas Hansen         : Spin unrestricted coupled pair/coupled cluster methods
   Benjamin Helmich-Paris : MC-RPA, TRAH-SCF, COSX integrals
   Lee Huntington         : MR-EOM, pCC
   Robert Izsak           : Overlap fitted RIJCOSX, COSX-SCS-MP3, EOM
   Marcus Kettner         : VPT2
   Christian Kollmar      : KDIIS, OOCD, Brueckner-CCSD(T), CCSD density, CASPT2, CASPT2-K
   Simone Kossmann        : Meta GGA functionals, TD-DFT gradient, OOMP2, MP2 Hessian
   Martin Krupicka        : Initial AUTO-CI
   Lucas Lang             : DCDCAS
   Marvin Lechner         : AUTO-CI (C++ implementation), FIC-MRCC
   Dagmar Lenk            : GEPOL surface, SMD
   Dimitrios Liakos       : Extrapolation schemes; Compound Job, initial MDCI parallelization
   Dimitrios Manganas     : Further ROCIS development; embedding schemes
   Dimitrios Pantazis     : SARC Basis sets
   Anastasios Papadopoulos: AUTO-CI, single reference methods and gradients
   Taras Petrenko         : DFT Hessian,TD-DFT gradient, ASA, ECA, R-Raman, ABS, FL, XAS/XES, NRVS
   Peter Pinski           : DLPNO-MP2, DLPNO-MP2 Gradient
   Christoph Reimann      : Effective Core Potentials
   Marius Retegan         : Local ZFS, SOC
   Christoph Riplinger    : Optimizer, TS searches, QM/MM, DLPNO-CCSD(T), (RO)-DLPNO pert. Triples
   Tobias Risthaus        : Range-separated hybrids, TD-DFT gradient, RPA, STAB
   Michael Roemelt        : Original ROCIS implementation
   Masaaki Saitow         : Open-shell DLPNO-CCSD energy and density
   Barbara Sandhoefer     : DKH picture change effects
   Avijit Sen             : IP-ROCIS
   Kantharuban Sivalingam : CASSCF convergence, NEVPT2, FIC-MRCI
   Bernardo de Souza      : ESD, SOC TD-DFT
   Georgi Stoychev        : AutoAux, RI-MP2 NMR, DLPNO-MP2 response
   Willem Van den Heuvel  : Paramagnetic NMR
   Boris Wezisla          : Elementary symmetry handling
   Frank Wennmohs         : Technical directorship


 We gratefully acknowledge several colleagues who have allowed us to
 interface, adapt or use parts of their codes:
   Stefan Grimme, W. Hujo, H. Kruse, P. Pracht,  : VdW corrections, initial TS optimization,
                  C. Bannwarth, S. Ehlert          DFT functionals, gCP, sTDA/sTD-DF
   Ed Valeev, F. Pavosevic, A. Kumar             : LibInt (2-el integral package), F12 methods
   Garnet Chan, S. Sharma, J. Yang, R. Olivares  : DMRG
   Ulf Ekstrom                                   : XCFun DFT Library
   Mihaly Kallay                                 : mrcc  (arbitrary order and MRCC methods)
   Jiri Pittner, Ondrej Demel                    : Mk-CCSD
   Frank Weinhold                                : gennbo (NPA and NBO analysis)
   Christopher J. Cramer and Donald G. Truhlar   : smd solvation model
   Lars Goerigk                                  : TD-DFT with DH, B97 family of functionals
   V. Asgeirsson, H. Jonsson                     : NEB implementation
   FAccTs GmbH                                   : IRC, NEB, NEB-TS, DLPNO-Multilevel, CI-OPT
                                                   MM, QMMM, 2- and 3-layer-ONIOM, Crystal-QMMM,
                                                   LR-CPCM, SF, NACMEs, symmetry and pop. for TD-DFT,
                                                   nearIR, NL-DFT gradient (VV10), updates on ESD,
                                                   ML-optimized integration grids
   S Lehtola, MJT Oliveira, MAL Marques          : LibXC Library
   Liviu Ungur et al                             : ANISO software


 Your calculation uses the libint2 library for the computation of 2-el integrals
 For citations please refer to: http://libint.valeyev.net

 Your ORCA version has been built with support for libXC version: 5.1.0
 For citations please refer to: https://tddft.org/programs/libxc/

 This ORCA versions uses:
   CBLAS   interface :  Fast vector & matrix operations
   LAPACKE interface :  Fast linear algebra routines
   SCALAPACK package :  Parallel linear algebra routines
   Shared memory     :  Shared parallel matrices
   BLAS/LAPACK       :  OpenBLAS 0.3.15  USE64BITINT DYNAMIC_ARCH NO_AFFINITY SkylakeX SINGLE_THREADED
        Core in use  :  SkylakeX
   Copyright (c) 2011-2014, The OpenBLAS Project




***************************************
The coordinates will be read from file: opt.xyz
***************************************


================================================================================

----- Orbital basis set information -----
Your calculation utilizes the basis: cc-pVDZ 
       H, B-Ne : Obtained from the ccRepo (grant-hill.group.shef.ac.uk/ccrepo) Feb. 2017
                 T. H. Dunning, Jr., J. Chem. Phys. 90, 1007 (1989)
            He : Obtained from the ccRepo (grant-hill.group.shef.ac.uk/ccrepo) Feb. 2017
                 D. E. Woon, T. H. Dunning, Jr., J. Chem. Phys. 100, 2975 (1994)
  Li-Be, Na-Mg : Obtained from the ccRepo (grant-hill.group.shef.ac.uk/ccrepo) Feb. 2017
                 B. P. Prascher, D. E. Woon, K. A. Peterson, T. H. Dunning, Jr., A. K. Wilson, Theor. Chem. Acc. 128, 69 (2011)
         Al-Ar : Obtained from the ccRepo (grant-hill.group.shef.ac.uk/ccrepo) Feb. 2017
                 D. E. Woon, T. H. Dunning, Jr., J. Chem. Phys. 98, 1358 (1993)
            Ca : Obtained from the Peterson Research Group Website (tyr0.chem.wsu.edu/~kipeters) Feb. 2017
                 J. Koput, K. A. Peterson, J. Phys. Chem. 106, 9595 (2002)
         Sc-Zn : Obtained from the ccRepo (grant-hill.group.shef.ac.uk/ccrepo) Feb. 2017
                 N. B. Balabanov, K. A. Peterson, J. Chem. Phys. 123, 064107 (2005)
                 N. B. Balabanov, K. A. Peterson, J. Chem. Phys. 125, 074110 (2006)
         Ga-Kr : Obtained from the ccRepo (grant-hill.group.shef.ac.uk/ccrepo) Feb. 2017
                 A. K. Wilson, D. E. Woon, K. A. Peterson, T. H. Dunning, Jr., J. Chem. Phys. 110, 7667 (1999)

----- AuxJ basis set information -----
Your calculation utilizes the AutoAux generation procedure.
  G. L. Stoychev, A. A. Auer, F. Neese, J. Chem. Theory Comput. 13, 554 (2017)

----- AuxC basis set information -----
Your calculation utilizes the AutoAux generation procedure.
  G. L. Stoychev, A. A. Auer, F. Neese, J. Chem. Theory Comput. 13, 554 (2017)

----- AuxJK basis set information -----
Your calculation utilizes the AutoAux generation procedure.
  G. L. Stoychev, A. A. Auer, F. Neese, J. Chem. Theory Comput. 13, 554 (2017)

================================================================================
                                        WARNINGS
                       Please study these warnings very carefully!
================================================================================


WARNING: your system is open-shell and RHF/RKS was chosen
  ===> : WILL SWITCH to UHF/UKS


INFO   : the flag for use of the SHARK integral package has been found!

================================================================================
                                       INPUT FILE
================================================================================
NAME = cc-pVDZ_i.inp
|  1> ! B3LYP cc-pVDZ AUTOAUX
|  2> %pal nprocs 16 end
|  3> *XYZFile 0 2 opt.xyz
|  4> %EPRNMR
|  5>         GTENSOR   TRUE
|  6>         NUCLEI    = ALL H {SHIFT, AISO, ADIP, AORB}
|  7>         ORI       GIAO
|  8> END
|  9> 
| 10>                          ****END OF INPUT****
================================================================================

                       ****************************
                       * Single Point Calculation *
                       ****************************

---------------------------------
CARTESIAN COORDINATES (ANGSTROEM)
---------------------------------
  C      4.303993   -0.099044   -0.019986
  C      0.095379    0.041847   -0.250332
  C      0.727206   -1.205028   -0.115214
  C      2.122929   -1.212411   -0.043556
  C      2.874308   -0.020154   -0.101380
  C      2.228091    1.234157   -0.236580
  C      0.828539    1.228178   -0.309060
  H      2.668303   -2.150773    0.059972
  H      0.289670    2.170928   -0.414345
  C     -0.115666   -2.468406   -0.049589
  H     -0.784199   -2.484013   -0.930720
  H     -0.791676   -2.389160    0.822893
  C      0.636247   -3.799827    0.026362
  H      1.309912   -3.896981   -0.845049
  H      1.286422   -3.811728    0.920477
  C     -0.301843   -5.011708    0.074983
  H     -0.977280   -4.914794    0.945461
  H     -0.955453   -5.002515   -0.817199
  C      0.442407   -6.347212    0.151027
  H      1.079450   -6.399990    1.050835
  H      1.097598   -6.491215   -0.725436
  C      3.053158    2.505621   -0.293993
  H      3.669351    2.559915    0.622764
  H      3.788282    2.406081   -1.113865
  C      2.286495    3.819607   -0.461501
  H      1.683582    3.789097   -1.387366
  H      1.571864    3.952366    0.370090
  C      3.218416    5.039823   -0.514112
  H      3.844016    5.071239    0.400108
  H      3.946453    4.894522   -1.346232
  C      2.505214    6.343014   -0.678289
  H      1.561879    6.348293   -1.239679
  C      3.174852    7.653563   -0.417869
  H      3.874748    7.897348   -1.251684
  H      3.824892    7.567710    0.475950
  C      2.204128    8.830751   -0.238803
  H      1.570192    8.913846   -1.141092
  H      1.516816    8.605008    0.596374
  C      2.912091   10.163176    0.016523
  H      3.531850   10.118821    0.928896
  H      3.579244   10.430027   -0.821537
  C      5.515728   -0.175457    0.048577
  H      6.584104   -0.243307    0.110603
  H     -0.257066   -7.198161    0.187741
  H      2.190725   10.986727    0.143833
  H     -0.996407    0.085398   -0.311066

----------------------------
CARTESIAN COORDINATES (A.U.)
----------------------------
  NO LB      ZA    FRAG     MASS         X           Y           Z
   0 C     6.0000    0    12.011    8.133368   -0.187165   -0.037768
   1 C     6.0000    0    12.011    0.180239    0.079078   -0.473059
   2 C     6.0000    0    12.011    1.374220   -2.277173   -0.217723
   3 C     6.0000    0    12.011    4.011755   -2.291125   -0.082310
   4 C     6.0000    0    12.011    5.431655   -0.038085   -0.191581
   5 C     6.0000    0    12.011    4.210482    2.332219   -0.447072
   6 C     6.0000    0    12.011    1.565712    2.320921   -0.584040
   7 H     1.0000    0     1.008    5.042361   -4.064372    0.113331
   8 H     1.0000    0     1.008    0.547398    4.102459   -0.782998
   9 C     6.0000    0    12.011   -0.218578   -4.664611   -0.093709
  10 H     1.0000    0     1.008   -1.481922   -4.694104   -1.758806
  11 H     1.0000    0     1.008   -1.496052   -4.514858    1.555042
  12 C     6.0000    0    12.011    1.202332   -7.180633    0.049817
  13 H     1.0000    0     1.008    2.475375   -7.364228   -1.596911
  14 H     1.0000    0     1.008    2.430986   -7.203122    1.739450
  15 C     6.0000    0    12.011   -0.570401   -9.470755    0.141698
  16 H     1.0000    0     1.008   -1.846792   -9.287615    1.786663
  17 H     1.0000    0     1.008   -1.805544   -9.453382   -1.544282
  18 C     6.0000    0    12.011    0.836027  -11.994492    0.285399
  19 H     1.0000    0     1.008    2.039866  -12.094228    1.985790
  20 H     1.0000    0     1.008    2.074160  -12.266619   -1.370876
  21 C     6.0000    0    12.011    5.769632    4.734937   -0.555566
  22 H     1.0000    0     1.008    6.934068    4.837539    1.176852
  23 H     1.0000    0     1.008    7.158815    4.546834   -2.104900
  24 C     6.0000    0    12.011    4.320850    7.218011   -0.872110
  25 H     1.0000    0     1.008    3.181510    7.160355   -2.621742
  26 H     1.0000    0     1.008    2.970393    7.468889    0.699368
  27 C     6.0000    0    12.011    6.081926    9.523885   -0.971530
  28 H     1.0000    0     1.008    7.264138    9.583253    0.756095
  29 H     1.0000    0     1.008    7.457715    9.249306   -2.544009
  30 C     6.0000    0    12.011    4.734168   11.986560   -1.281780
  31 H     1.0000    0     1.008    2.951523   11.996535   -2.342654
  32 C     6.0000    0    12.011    5.999601   14.463137   -0.789657
  33 H     1.0000    0     1.008    7.322213   14.923825   -2.365340
  34 H     1.0000    0     1.008    7.227999   14.300899    0.899416
  35 C     6.0000    0    12.011    4.165199   16.687701   -0.451272
  36 H     1.0000    0     1.008    2.967233   16.844727   -2.156351
  37 H     1.0000    0     1.008    2.866366   16.261108    1.126983
  38 C     6.0000    0    12.011    5.503055   19.205619    0.031224
  39 H     1.0000    0     1.008    6.674230   19.121801    1.755359
  40 H     1.0000    0     1.008    6.763791   19.709896   -1.552480
  41 C     6.0000    0    12.011   10.423215   -0.331566    0.091797
  42 H     1.0000    0     1.008   12.442153   -0.459784    0.209009
  43 H     1.0000    0     1.008   -0.485785  -13.602553    0.354779
  44 H     1.0000    0     1.008    4.139869   20.761905    0.271806
  45 H     1.0000    0     1.008   -1.882936    0.161379   -0.587830

--------------------------------
INTERNAL COORDINATES (ANGSTROEM)
--------------------------------
 C      0   0   0     0.000000000000     0.00000000     0.00000000
 C      1   0   0     4.217267605314     0.00000000     0.00000000
 C      2   1   0     1.404335839355    61.05917944     0.00000000
 C      3   2   1     1.397581289152   117.31855105   359.93081548
 C      4   3   2     1.410457667856   121.69815711     0.11280711
 C      5   4   3     1.417452211844   120.60070249   359.94306814
 C      2   1   3     1.395835449026    60.43048081   179.97823380
 H      4   3   2     1.090263092744   120.59538612   180.10419748
 H      7   2   1     1.090981785792   118.62367839   179.98227717
 C      3   2   1     1.520152664705   119.51119788   179.74922628
 H     10   3   2     1.106152145971   108.20656321    53.65462085
 H     10   3   2     1.106568332075   108.25502794   300.29265110
 C     10   3   2     1.530955288703   116.90996100   176.98913102
 H     13  10   3     1.105722139290   109.66648721   302.49624649
 H     13  10   3     1.105582149477   109.77419113    58.74925706
 C     13  10   3     1.533307519737   112.85800538   180.55849391
 H     16  13  10     1.106046784222   109.22748351   302.30666372
 H     16  13  10     1.106019083694   109.23256118    57.65818003
 C     16  13  10     1.530771518507   113.18292093   179.99942115
 H     19  16  13     1.103750193219   111.27394370    59.69080120
 H     19  16  13     1.103721263703   111.28414851   299.98960799
 C      6   5   4     1.516789682418   119.82821011   179.86898971
 H     22   6   5     1.105931011271   108.23126521   302.70895442
 H     22   6   5     1.105670120289   108.31613910    55.34037549
 C     22   6   5     1.530486753679   116.82974887   179.12097525
 H     25  22   6     1.105288044218   109.95170627   301.81226574
 H     25  22   6     1.104475093840   110.17614524    58.68228741
 C     25  22   6     1.536285203199   112.44463511   180.27562253
 H     28  25  22     1.108224109920   109.67589191   303.25821190
 H     28  25  22     1.115156146016   108.54752561    56.88788539
 C     28  25  22     1.494630551553   114.00612795   179.95834673
 H     31  28  25     1.097755836451   118.06150904   329.04861691
 C     31  28  25     1.494580520597   122.11484849   164.61718009
 H     33  31  28     1.115586911276   110.02797811    74.78797326
 H     33  31  28     1.108528193491   109.59174295   320.32599168
 C     33  31  28     1.536275400507   114.14916441   196.93810627
 H     36  33  31     1.105850040393   108.94728716   302.67732659
 H     36  33  31     1.104934005282   108.94123051    57.87595306
 C     36  33  31     1.530280503978   113.22300645   180.41624551
 H     39  36  33     1.103853937675   111.26410751   300.31032679
 H     39  36  33     1.103923792860   111.30930330    59.97330787
 C      1   2   3     1.216076144828   178.30857588     1.10884777
 H     42   1   5     1.072323332254   179.91234577   284.13399622
 H     19  16  13     1.102145667214   111.51164448   179.82761984
 H     39  36  33     1.102186211315   111.53521094   180.17984320
 H      2   1   3     1.094340127783   179.63013783   183.26556386

---------------------------
INTERNAL COORDINATES (A.U.)
---------------------------
 C      0   0   0     0.000000000000     0.00000000     0.00000000
 C      1   0   0     7.969480807502     0.00000000     0.00000000
 C      2   1   0     2.653810136432    61.05917944     0.00000000
 C      3   2   1     2.641045886390   117.31855105   359.93081548
 C      4   3   2     2.665378715737   121.69815711     0.11280711
 C      5   4   3     2.678596488306   120.60070249   359.94306814
 C      2   1   3     2.637746726678    60.43048081   179.97823380
 H      4   3   2     2.060298659208   120.59538612   180.10419748
 H      7   2   1     2.061656792244   118.62367839   179.98227717
 C      3   2   1     2.872672218043   119.51119788   179.74922628
 H     10   3   2     2.090324618335   108.20656321    53.65462085
 H     10   3   2     2.091111096091   108.25502794   300.29265110
 C     10   3   2     2.893086218928   116.90996100   176.98913102
 H     13  10   3     2.089512023472   109.66648721   302.49624649
 H     13  10   3     2.089247481064   109.77419113    58.74925706
 C     13  10   3     2.897531291385   112.85800538   180.55849391
 H     16  13  10     2.090125513485   109.22748351   302.30666372
 H     16  13  10     2.090073167072   109.23256118    57.65818003
 C     16  13  10     2.892738943585   113.18292093   179.99942115
 H     19  16  13     2.085785585446   111.27394370    59.69080120
 H     19  16  13     2.085730916585   111.28414851   299.98960799
 C      6   5   4     2.866317102528   119.82821011   179.86898971
 H     22   6   5     2.089906734314   108.23126521   302.70895442
 H     22   6   5     2.089413721806   108.31613910    55.34037549
 C     22   6   5     2.892200816048   116.82974887   179.12097525
 H     25  22   6     2.088691702669   109.95170627   301.81226574
 H     25  22   6     2.087155449095   110.17614524    58.68228741
 C     25  22   6     2.903158297642   112.44463511   180.27562253
 H     28  25  22     2.094240062757   109.67589191   303.25821190
 H     28  25  22     2.107339712530   108.54752561    56.88788539
 C     28  25  22     2.824442413826   114.00612795   179.95834673
 H     31  28  25     2.074457892805   118.06150904   329.04861691
 C     31  28  25     2.824347869022   122.11484849   164.61718009
 H     33  31  28     2.108153740899   110.02797811    74.78797326
 H     33  31  28     2.094814697429   109.59174295   320.32599168
 C     33  31  28     2.903139773239   114.14916441   196.93810627
 H     36  33  31     2.089753721529   108.94728716   302.67732659
 H     36  33  31     2.088022666040   108.94123051    57.87595306
 C     36  33  31     2.891811060598   113.22300645   180.41624551
 H     39  36  33     2.085981634057   111.26410751   300.31032679
 H     39  36  33     2.086113641225   111.30930330    59.97330787
 C      1   2   3     2.298050871720   178.30857588     1.10884777
 H     42   1   5     2.026397424974   179.91234577   284.13399622
 H     19  16  13     2.082753470722   111.51164448   179.82761984
 H     39  36  33     2.082830087969   111.53521094   180.17984320
 H      2   1   3     2.068003138871   179.63013783   183.26556386

---------------------
BASIS SET INFORMATION
---------------------
There are 2 groups of distinct atoms

 Group   1 Type C   : 17s4p1d contracted to 3s2p1d pattern {881/31/1}
 Group   2 Type H   : 4s1p contracted to 2s1p pattern {31/1}

Atom   0C    basis set group =>   1
Atom   1C    basis set group =>   1
Atom   2C    basis set group =>   1
Atom   3C    basis set group =>   1
Atom   4C    basis set group =>   1
Atom   5C    basis set group =>   1
Atom   6C    basis set group =>   1
Atom   7H    basis set group =>   2
Atom   8H    basis set group =>   2
Atom   9C    basis set group =>   1
Atom  10H    basis set group =>   2
Atom  11H    basis set group =>   2
Atom  12C    basis set group =>   1
Atom  13H    basis set group =>   2
Atom  14H    basis set group =>   2
Atom  15C    basis set group =>   1
Atom  16H    basis set group =>   2
Atom  17H    basis set group =>   2
Atom  18C    basis set group =>   1
Atom  19H    basis set group =>   2
Atom  20H    basis set group =>   2
Atom  21C    basis set group =>   1
Atom  22H    basis set group =>   2
Atom  23H    basis set group =>   2
Atom  24C    basis set group =>   1
Atom  25H    basis set group =>   2
Atom  26H    basis set group =>   2
Atom  27C    basis set group =>   1
Atom  28H    basis set group =>   2
Atom  29H    basis set group =>   2
Atom  30C    basis set group =>   1
Atom  31H    basis set group =>   2
Atom  32C    basis set group =>   1
Atom  33H    basis set group =>   2
Atom  34H    basis set group =>   2
Atom  35C    basis set group =>   1
Atom  36H    basis set group =>   2
Atom  37H    basis set group =>   2
Atom  38C    basis set group =>   1
Atom  39H    basis set group =>   2
Atom  40H    basis set group =>   2
Atom  41C    basis set group =>   1
Atom  42H    basis set group =>   2
Atom  43H    basis set group =>   2
Atom  44H    basis set group =>   2
Atom  45H    basis set group =>   2
---------------------------------
AUXILIARY/J BASIS SET INFORMATION
---------------------------------
There are 2 groups of distinct atoms

 Group   1 Type C   : 14s11p10d2f contracted to 14s11p10d2f pattern {11111111111111/11111111111/1111111111/11}
 Group   2 Type H   : 9s2p1d contracted to 9s2p1d pattern {111111111/11/1}

Atom   0C    basis set group =>   1
Atom   1C    basis set group =>   1
Atom   2C    basis set group =>   1
Atom   3C    basis set group =>   1
Atom   4C    basis set group =>   1
Atom   5C    basis set group =>   1
Atom   6C    basis set group =>   1
Atom   7H    basis set group =>   2
Atom   8H    basis set group =>   2
Atom   9C    basis set group =>   1
Atom  10H    basis set group =>   2
Atom  11H    basis set group =>   2
Atom  12C    basis set group =>   1
Atom  13H    basis set group =>   2
Atom  14H    basis set group =>   2
Atom  15C    basis set group =>   1
Atom  16H    basis set group =>   2
Atom  17H    basis set group =>   2
Atom  18C    basis set group =>   1
Atom  19H    basis set group =>   2
Atom  20H    basis set group =>   2
Atom  21C    basis set group =>   1
Atom  22H    basis set group =>   2
Atom  23H    basis set group =>   2
Atom  24C    basis set group =>   1
Atom  25H    basis set group =>   2
Atom  26H    basis set group =>   2
Atom  27C    basis set group =>   1
Atom  28H    basis set group =>   2
Atom  29H    basis set group =>   2
Atom  30C    basis set group =>   1
Atom  31H    basis set group =>   2
Atom  32C    basis set group =>   1
Atom  33H    basis set group =>   2
Atom  34H    basis set group =>   2
Atom  35C    basis set group =>   1
Atom  36H    basis set group =>   2
Atom  37H    basis set group =>   2
Atom  38C    basis set group =>   1
Atom  39H    basis set group =>   2
Atom  40H    basis set group =>   2
Atom  41C    basis set group =>   1
Atom  42H    basis set group =>   2
Atom  43H    basis set group =>   2
Atom  44H    basis set group =>   2
Atom  45H    basis set group =>   2
---------------------------------
AUXILIARY/C BASIS SET INFORMATION
---------------------------------
There are 2 groups of distinct atoms

 Group   1 Type C   : 14s11p10d2f contracted to 14s11p10d2f pattern {11111111111111/11111111111/1111111111/11}
 Group   2 Type H   : 9s2p1d contracted to 9s2p1d pattern {111111111/11/1}

Atom   0C    basis set group =>   1
Atom   1C    basis set group =>   1
Atom   2C    basis set group =>   1
Atom   3C    basis set group =>   1
Atom   4C    basis set group =>   1
Atom   5C    basis set group =>   1
Atom   6C    basis set group =>   1
Atom   7H    basis set group =>   2
Atom   8H    basis set group =>   2
Atom   9C    basis set group =>   1
Atom  10H    basis set group =>   2
Atom  11H    basis set group =>   2
Atom  12C    basis set group =>   1
Atom  13H    basis set group =>   2
Atom  14H    basis set group =>   2
Atom  15C    basis set group =>   1
Atom  16H    basis set group =>   2
Atom  17H    basis set group =>   2
Atom  18C    basis set group =>   1
Atom  19H    basis set group =>   2
Atom  20H    basis set group =>   2
Atom  21C    basis set group =>   1
Atom  22H    basis set group =>   2
Atom  23H    basis set group =>   2
Atom  24C    basis set group =>   1
Atom  25H    basis set group =>   2
Atom  26H    basis set group =>   2
Atom  27C    basis set group =>   1
Atom  28H    basis set group =>   2
Atom  29H    basis set group =>   2
Atom  30C    basis set group =>   1
Atom  31H    basis set group =>   2
Atom  32C    basis set group =>   1
Atom  33H    basis set group =>   2
Atom  34H    basis set group =>   2
Atom  35C    basis set group =>   1
Atom  36H    basis set group =>   2
Atom  37H    basis set group =>   2
Atom  38C    basis set group =>   1
Atom  39H    basis set group =>   2
Atom  40H    basis set group =>   2
Atom  41C    basis set group =>   1
Atom  42H    basis set group =>   2
Atom  43H    basis set group =>   2
Atom  44H    basis set group =>   2
Atom  45H    basis set group =>   2
----------------------------------
AUXILIARY/JK BASIS SET INFORMATION
----------------------------------
There are 2 groups of distinct atoms

 Group   1 Type C   : 14s11p10d2f contracted to 14s11p10d2f pattern {11111111111111/11111111111/1111111111/11}
 Group   2 Type H   : 9s2p1d contracted to 9s2p1d pattern {111111111/11/1}

Atom   0C    basis set group =>   1
Atom   1C    basis set group =>   1
Atom   2C    basis set group =>   1
Atom   3C    basis set group =>   1
Atom   4C    basis set group =>   1
Atom   5C    basis set group =>   1
Atom   6C    basis set group =>   1
Atom   7H    basis set group =>   2
Atom   8H    basis set group =>   2
Atom   9C    basis set group =>   1
Atom  10H    basis set group =>   2
Atom  11H    basis set group =>   2
Atom  12C    basis set group =>   1
Atom  13H    basis set group =>   2
Atom  14H    basis set group =>   2
Atom  15C    basis set group =>   1
Atom  16H    basis set group =>   2
Atom  17H    basis set group =>   2
Atom  18C    basis set group =>   1
Atom  19H    basis set group =>   2
Atom  20H    basis set group =>   2
Atom  21C    basis set group =>   1
Atom  22H    basis set group =>   2
Atom  23H    basis set group =>   2
Atom  24C    basis set group =>   1
Atom  25H    basis set group =>   2
Atom  26H    basis set group =>   2
Atom  27C    basis set group =>   1
Atom  28H    basis set group =>   2
Atom  29H    basis set group =>   2
Atom  30C    basis set group =>   1
Atom  31H    basis set group =>   2
Atom  32C    basis set group =>   1
Atom  33H    basis set group =>   2
Atom  34H    basis set group =>   2
Atom  35C    basis set group =>   1
Atom  36H    basis set group =>   2
Atom  37H    basis set group =>   2
Atom  38C    basis set group =>   1
Atom  39H    basis set group =>   2
Atom  40H    basis set group =>   2
Atom  41C    basis set group =>   1
Atom  42H    basis set group =>   2
Atom  43H    basis set group =>   2
Atom  44H    basis set group =>   2
Atom  45H    basis set group =>   2


           ************************************************************
           *        Program running with 16 parallel MPI-processes    *
           *              working on a common directory               *
           ************************************************************
------------------------------------------------------------------------------
                           ORCA GTO INTEGRAL CALCULATION
                           -- RI-GTO INTEGRALS CHOSEN --
------------------------------------------------------------------------------
------------------------------------------------------------------------------
                   ___                                                        
                  /   \      - P O W E R E D   B Y -                         
                 /     \                                                     
                 |  |  |   _    _      __       _____    __    __             
                 |  |  |  | |  | |    /  \     |  _  \  |  |  /  |          
                  \  \/   | |  | |   /    \    | | | |  |  | /  /          
                 / \  \   | |__| |  /  /\  \   | |_| |  |  |/  /          
                |  |  |   |  __  | /  /__\  \  |    /   |      \           
                |  |  |   | |  | | |   __   |  |    \   |  |\   \          
                \     /   | |  | | |  |  |  |  | |\  \  |  | \   \       
                 \___/    |_|  |_| |__|  |__|  |_| \__\ |__|  \__/        
                                                                              
                      - O R C A' S   B I G   F R I E N D -                    
                                      &                                       
                       - I N T E G R A L  F E E D E R -                       
                                                                              
 v1 FN, 2020, v2 2021                                                         
------------------------------------------------------------------------------


Reading SHARK input file cc-pVDZ_i.SHARKINP.tmp ... ok
----------------------
SHARK INTEGRAL PACKAGE
----------------------

Number of atoms                             ...     46
Number of basis functions                   ...    515
Number of shells                            ...    309
Maximum angular momentum                    ...      2
Integral batch strategy                     ... SHARK/LIBINT Hybrid
RI-J (if used) integral strategy            ... SPLIT-RIJ (Revised 2003 algorithm where possible)
Printlevel                                  ...      1
Contraction scheme used                     ... PARTIAL GENERAL contraction
Coulomb Range Separation                    ... NOT USED
Exchange Range Separation                   ... NOT USED
Finite Nucleus Model                        ... NOT USED
Auxiliary Coulomb fitting basis             ... AVAILABLE
   # of basis functions in Aux-J            ...   2649
   # of shells in Aux-J                     ...   1027
   Maximum angular momentum in Aux-J        ...      3
Auxiliary J/K fitting basis                 ... AVAILABLE
   # of basis functions in Aux-JK           ...   2649
   # of shells in Aux-JK                    ...   1027
   Maximum angular momentum in Aux-JK       ...      3
Auxiliary Correlation fitting basis         ... AVAILABLE
   # of basis functions in Aux-C            ...   2649
   # of shells in Aux-C                     ...   1027
   Maximum angular momentum in Aux-C        ...      3
Auxiliary 'external' fitting basis          ... NOT available
Integral threshold                          ...     1.000000e-10
Primitive cut-off                           ...     1.000000e-11
Primitive pair pre-selection threshold      ...     1.000000e-11

Calculating pre-screening integrals         ... done (  0.0 sec) Dimension = 309
Calculating pre-screening integrals (ORCA)  ... done (  0.1 sec) Dimension = 195
Organizing shell pair data                  ... done (  0.1 sec)
Shell pair information
Total number of shell pairs                 ...     47895
Shell pairs after pre-screening             ...     20182
Total number of primitive shell pairs       ...     80739
Primitive shell pairs kept                  ...     28321
          la=0 lb=0:   9049 shell pairs
          la=1 lb=0:   7075 shell pairs
          la=1 lb=1:   1246 shell pairs
          la=2 lb=0:   1988 shell pairs
          la=2 lb=1:    712 shell pairs
          la=2 lb=2:    112 shell pairs

Calculating one electron integrals          ... done (  0.0 sec)
Calculating RI/J V-Matrix + Cholesky decomp.... done (  0.5 sec)
Calculating RI/JK V-Matrix + Cholesky decomp... done (  0.4 sec)
Calculating RI/C V-Matrix + Cholesky decomp.... done (  0.4 sec)
Calculating Nuclear repulsion               ... done (  0.0 sec) ENN=   1246.903824399165 Eh

SHARK setup successfully completed in   1.9 seconds

Maximum memory used throughout the entire GTOINT-calculation: 32.2 MB


           ************************************************************
           *        Program running with 16 parallel MPI-processes    *
           *              working on a common directory               *
           ************************************************************
-------------------------------------------------------------------------------
                                 ORCA SCF
-------------------------------------------------------------------------------

------------
SCF SETTINGS
------------
Hamiltonian:
 Density Functional     Method          .... DFT(GTOs)
 Exchange Functional    Exchange        .... B88
   X-Alpha parameter    XAlpha          ....  0.666667
   Becke's b parameter  XBeta           ....  0.004200
 Correlation Functional Correlation     .... LYP
 LDA part of GGA corr.  LDAOpt          .... VWN-5
 Gradients option       PostSCFGGA      .... off
 Hybrid DFT is turned on
   Fraction HF Exchange ScalHFX         ....  0.200000
   Scaling of DF-GGA-X  ScalDFX         ....  0.720000
   Scaling of DF-GGA-C  ScalDFC         ....  0.810000
   Scaling of DF-LDA-C  ScalLDAC        ....  1.000000
   Perturbative correction              ....  0.000000
   Density functional embedding theory  .... OFF
   NL short-range parameter             ....  4.800000
 RI-approximation to the Coulomb term is turned on
   Number of AuxJ basis functions       .... 2649
   RIJ-COSX (HFX calculated with COS-X)).... on


General Settings:
 Integral files         IntName         .... cc-pVDZ_i
 Hartree-Fock type      HFTyp           .... UHF
 Total Charge           Charge          ....    0
 Multiplicity           Mult            ....    2
 Number of Electrons    NEL             ....  141
 Basis Dimension        Dim             ....  401
 Nuclear Repulsion      ENuc            ....   1246.9038243992 Eh

Convergence Acceleration:
 DIIS                   CNVDIIS         .... on
   Start iteration      DIISMaxIt       ....    12
   Startup error        DIISStart       ....  0.200000
   # of expansion vecs  DIISMaxEq       ....     5
   Bias factor          DIISBfac        ....   1.050
   Max. coefficient     DIISMaxC        ....  10.000
 Trust-Rad. Augm. Hess. CNVTRAH         .... auto
   Auto Start mean grad. ratio tolernc. ....  1.125000
   Auto Start start iteration           ....    20
   Auto Start num. interpolation iter.  ....    10
   Max. Number of Micro iterations      ....    16
   Max. Number of Macro iterations      .... Maxiter - #DIIS iter
   Number of Davidson start vectors     ....     2
   Converg. threshold I  (grad. norm)   ....   5.000e-05
   Converg. threshold II (energy diff.) ....   1.000e-06
   Grad. Scal. Fac. for Micro threshold ....   0.100
   Minimum threshold for Micro iter.    ....   0.010
   NR start threshold (gradient norm)   ....   0.001
   Initial trust radius                 ....   0.400
   Minimum AH scaling param. (alpha)    ....   1.000
   Maximum AH scaling param. (alpha)    .... 1000.000
   Orbital update algorithm             .... Taylor
   White noise on init. David. guess    .... on
   Maximum white noise                  ....   0.010
   Quad. conv. algorithm                .... NR
 SOSCF                  CNVSOSCF        .... off
 Level Shifting         CNVShift        .... on
   Level shift para.    LevelShift      ....    0.2500
   Turn off err/grad.   ShiftErr        ....    0.0010
 Zerner damping         CNVZerner       .... off
 Static damping         CNVDamp         .... on
   Fraction old density DampFac         ....    0.7000
   Max. Damping (<1)    DampMax         ....    0.9800
   Min. Damping (>=0)   DampMin         ....    0.0000
   Turn off err/grad.   DampErr         ....    0.1000
 Fernandez-Rico         CNVRico         .... off

SCF Procedure:
 Maximum # iterations   MaxIter         ....   125
 SCF integral mode      SCFMode         .... Direct
   Integral package                     .... SHARK and LIBINT hybrid scheme
 Reset frequency        DirectResetFreq ....    20
 Integral Threshold     Thresh          ....  1.000e-10 Eh
 Primitive CutOff       TCut            ....  1.000e-11 Eh

Convergence Tolerance:
 Convergence Check Mode ConvCheckMode   .... Total+1el-Energy
 Convergence forced     ConvForced      .... 0
 Energy Change          TolE            ....  1.000e-06 Eh
 1-El. energy change                    ....  1.000e-03 Eh
 DIIS Error             TolErr          ....  1.000e-06


Diagonalization of the overlap matrix:
Smallest eigenvalue                        ... 1.539e-04
Time for diagonalization                   ...    0.031 sec
Threshold for overlap eigenvalues          ... 1.000e-08
Number of eigenvalues below threshold      ... 0
Time for construction of square roots      ...    0.039 sec
Total time needed                          ...    0.071 sec

Time for model grid setup =    0.267 sec

------------------------------
INITIAL GUESS: MODEL POTENTIAL
------------------------------
Loading Hartree-Fock densities                     ... done
Calculating cut-offs                               ... done
Initializing the effective Hamiltonian             ... done
Setting up the integral package (SHARK)            ... done
Starting the Coulomb interaction                   ... done (   0.3 sec)
Reading the grid                                   ... done
Mapping shells                                     ... done
Starting the XC term evaluation                    ... done (   0.1 sec)
  promolecular density results
     # of electrons  =    140.991298449
     EX              =   -105.605164597
     EC              =     -4.582281848
     EX+EC           =   -110.187446445
Transforming the Hamiltonian                       ... done (   0.0 sec)
Diagonalizing the Hamiltonian                      ... done (   0.0 sec)
Back transforming the eigenvectors                 ... done (   0.0 sec)
Now organizing SCF variables                       ... done
                      ------------------
                      INITIAL GUESS DONE (   0.9 sec)
                      ------------------
-------------------
DFT GRID GENERATION
-------------------

General Integration Accuracy     IntAcc      ... 4.388
Radial Grid Type                 RadialGrid  ... OptM3 with GC (2021)
Angular Grid (max. ang.)         AngularGrid ... 4 (Lebedev-302)
Angular grid pruning method      GridPruning ... 4 (adaptive)
Weight generation scheme         WeightScheme... Becke
Basis function cutoff            BFCut       ... 1.0000e-10
Integration weight cutoff        WCut        ... 1.0000e-14
Angular grids for H and He will be reduced by one unit
Partially contracted basis set               ... off
Rotationally invariant grid construction     ... off

Total number of grid points                  ...   199722
Total number of batches                      ...     3144
Average number of points per batch           ...       63
Average number of grid points per atom       ...     4342
Time for grid setup =    1.067 sec

--------------------
COSX GRID GENERATION
--------------------

GRIDX 1
-------
General Integration Accuracy     IntAcc      ... 3.816
Radial Grid Type                 RadialGrid  ... OptM3 with GC (2021)
Angular Grid (max. ang.)         AngularGrid ... 1 (Lebedev-50)
Angular grid pruning method      GridPruning ... 4 (adaptive)
Weight generation scheme         WeightScheme... Becke
Basis function cutoff            BFCut       ... 1.0000e-10
Integration weight cutoff        WCut        ... 1.0000e-14
Angular grids for H and He will be reduced by one unit
Partially contracted basis set               ... on
Rotationally invariant grid construction     ... off

Total number of grid points                  ...    25504
Total number of batches                      ...      424
Average number of points per batch           ...       60
Average number of grid points per atom       ...      554
UseSFitting                                  ... on

GRIDX 2
-------
General Integration Accuracy     IntAcc      ... 4.020
Radial Grid Type                 RadialGrid  ... OptM3 with GC (2021)
Angular Grid (max. ang.)         AngularGrid ... 2 (Lebedev-110)
Angular grid pruning method      GridPruning ... 4 (adaptive)
Weight generation scheme         WeightScheme... Becke
Basis function cutoff            BFCut       ... 1.0000e-10
Integration weight cutoff        WCut        ... 1.0000e-14
Angular grids for H and He will be reduced by one unit
Partially contracted basis set               ... on
Rotationally invariant grid construction     ... off

Total number of grid points                  ...    53567
Total number of batches                      ...      862
Average number of points per batch           ...       62
Average number of grid points per atom       ...     1164
UseSFitting                                  ... on

GRIDX 3
-------
General Integration Accuracy     IntAcc      ... 4.338
Radial Grid Type                 RadialGrid  ... OptM3 with GC (2021)
Angular Grid (max. ang.)         AngularGrid ... 3 (Lebedev-194)
Angular grid pruning method      GridPruning ... 4 (adaptive)
Weight generation scheme         WeightScheme... Becke
Basis function cutoff            BFCut       ... 1.0000e-10
Integration weight cutoff        WCut        ... 1.0000e-14
Angular grids for H and He will be reduced by one unit
Partially contracted basis set               ... on
Rotationally invariant grid construction     ... off

Total number of grid points                  ...   116746
Total number of batches                      ...     1847
Average number of points per batch           ...       63
Average number of grid points per atom       ...     2538
UseSFitting                                  ... on

Time for X-Grid setup             =    1.912 sec

 re-compute Schwartz prescreening matrix in partically contracted basis (1) ...done (   0.118 sec)
--------------
SCF ITERATIONS
--------------
ITER       Energy         Delta-E        Max-DP      RMS-DP      [F,P]     Damp
               ***  Starting incremental Fock matrix formation  ***
  0   -739.1786546981   0.000000000000 0.06501724  0.00079948  0.0869037 0.7000
  1   -739.4105992804  -0.231944582323 0.04791787  0.00059413  0.0457904 0.7000
                               ***Turning on DIIS***
  2   -739.5125249812  -0.101925700741 0.09367657  0.00111138  0.0175440 0.0000
  3   -739.6528462221  -0.140321240925 0.01876174  0.00033219  0.0249197 0.0000
  4   -739.6927346994  -0.039888477270 0.00909190  0.00011406  0.0066047 0.0000
  5   -739.6950118842  -0.002277184860 0.00139919  0.00003574  0.0015292 0.0000
  6   -739.6952000288  -0.000188144620 0.00156687  0.00002247  0.0007699 0.0000
               *** Restarting incremental Fock matrix formation ***
                                   *** Resetting DIIS ***
  7   -739.6954477765  -0.000247747664 0.00110066  0.00001010  0.0011402 0.0000
  8   -739.6954455600   0.000002216480 0.00038223  0.00000360  0.0013802 0.0000
  9   -739.6954539194  -0.000008359332 0.00022548  0.00000225  0.0004603 0.0000
 10   -739.6954550378  -0.000001118420 0.00005602  0.00000065  0.0000567 0.0000
                 **** Energy Check signals convergence ****

               *****************************************************
               *                     SUCCESS                       *
               *           SCF CONVERGED AFTER  11 CYCLES          *
               *****************************************************

Old exchange energy                            =    -21.608701322 Eh
New exchange energy                            =    -21.608694307 Eh
Exchange energy change after final integration =      0.000007015 Eh
Total energy after final integration           =   -739.695448161 Eh
Final COS-X integration done in                =     5.501 sec

----------------
TOTAL SCF ENERGY
----------------

Total Energy       :         -739.69544816 Eh          -20128.13644 eV

Components:
Nuclear Repulsion  :         1246.90382440 Eh           33929.97803 eV
Electronic Energy  :        -1986.59927256 Eh          -54058.11447 eV
One Electron Energy:        -3471.60014294 Eh          -94467.04250 eV
Two Electron Energy:         1485.00087038 Eh           40408.92803 eV
Max COSX asymmetry :            0.00000048 Eh               0.00001 eV

Virial components:
Potential Energy   :        -1473.97978481 Eh          -40109.02905 eV
Kinetic Energy     :          734.28433665 Eh           19980.89261 eV
Virial Ratio       :            2.00736923


DFT components:
N(Alpha)           :       71.000045488122 electrons
N(Beta)            :       70.000046727358 electrons
N(Total)           :      141.000092215480 electrons
E(X)               :      -85.625052037563 Eh       
E(C)               :       -5.415285235810 Eh       
E(XC)              :      -91.040337273374 Eh       
DFET-embed. en.    :        0.000000000000 Eh       

---------------
SCF CONVERGENCE
---------------

  Last Energy change         ...   -1.3818e-07  Tolerance :   1.0000e-06
  Last MAX-Density change    ...    0.0000e+00  Tolerance :   1.0000e-05
  Last RMS-Density change    ...    0.0000e+00  Tolerance :   1.0000e-06
  Last DIIS Error            ...    3.6472e-05  Tolerance :   1.0000e-06

             **** THE GBW FILE WAS UPDATED (cc-pVDZ_i.gbw) ****
             **** DENSITY cc-pVDZ_i.scfp WAS UPDATED ****
             **** ENERGY FILE WAS UPDATED (cc-pVDZ_i.en.tmp) ****
----------------------
UHF SPIN CONTAMINATION
----------------------

Warning: in a DFT calculation there is little theoretical justification to 
         calculate <S**2> as in Hartree-Fock theory. We will do it anyways
         but you should keep in mind that the values have only limited relevance

Expectation value of <S**2>     :     0.754001
Ideal value S*(S+1) for S=0.5   :     0.750000
Deviation                       :     0.004001

             **** THE GBW FILE WAS UPDATED (cc-pVDZ_i.gbw) ****
             **** DENSITY cc-pVDZ_i.scfp WAS UPDATED ****
----------------
ORBITAL ENERGIES
----------------
                 SPIN UP ORBITALS
  NO   OCC          E(Eh)            E(eV) 
   0   1.0000     -10.205240      -277.6987 
   1   1.0000     -10.195713      -277.4394 
   2   1.0000     -10.192180      -277.3433 
   3   1.0000     -10.187679      -277.2208 
   4   1.0000     -10.186846      -277.1982 
   5   1.0000     -10.186442      -277.1872 
   6   1.0000     -10.185118      -277.1511 
   7   1.0000     -10.184095      -277.1233 
   8   1.0000     -10.183479      -277.1066 
   9   1.0000     -10.182722      -277.0859 
  10   1.0000     -10.182065      -277.0681 
  11   1.0000     -10.181385      -277.0496 
  12   1.0000     -10.181381      -277.0495 
  13   1.0000     -10.181147      -277.0431 
  14   1.0000     -10.181125      -277.0425 
  15   1.0000     -10.180727      -277.0317 
  16   1.0000     -10.179302      -276.9929 
  17   1.0000     -10.175696      -276.8948 
  18   1.0000     -10.173851      -276.8446 
  19   1.0000      -0.863643       -23.5009 
  20   1.0000      -0.813184       -22.1279 
  21   1.0000      -0.803394       -21.8615 
  22   1.0000      -0.784570       -21.3492 
  23   1.0000      -0.776585       -21.1319 
  24   1.0000      -0.758559       -20.6414 
  25   1.0000      -0.731680       -19.9100 
  26   1.0000      -0.721272       -19.6268 
  27   1.0000      -0.705027       -19.1848 
  28   1.0000      -0.672368       -18.2961 
  29   1.0000      -0.639183       -17.3930 
  30   1.0000      -0.618008       -16.8168 
  31   1.0000      -0.609292       -16.5797 
  32   1.0000      -0.584550       -15.9064 
  33   1.0000      -0.577378       -15.7113 
  34   1.0000      -0.561595       -15.2818 
  35   1.0000      -0.559915       -15.2361 
  36   1.0000      -0.525158       -14.2903 
  37   1.0000      -0.493275       -13.4227 
  38   1.0000      -0.470391       -12.8000 
  39   1.0000      -0.470125       -12.7927 
  40   1.0000      -0.467134       -12.7114 
  41   1.0000      -0.459843       -12.5130 
  42   1.0000      -0.453953       -12.3527 
  43   1.0000      -0.430246       -11.7076 
  44   1.0000      -0.426987       -11.6189 
  45   1.0000      -0.422268       -11.4905 
  46   1.0000      -0.419058       -11.4031 
  47   1.0000      -0.412993       -11.2381 
  48   1.0000      -0.406598       -11.0641 
  49   1.0000      -0.405032       -11.0215 
  50   1.0000      -0.383812       -10.4441 
  51   1.0000      -0.379703       -10.3322 
  52   1.0000      -0.374678       -10.1955 
  53   1.0000      -0.363545        -9.8926 
  54   1.0000      -0.361751        -9.8437 
  55   1.0000      -0.353814        -9.6278 
  56   1.0000      -0.349256        -9.5037 
  57   1.0000      -0.347253        -9.4492 
  58   1.0000      -0.333601        -9.0778 
  59   1.0000      -0.330665        -8.9979 
  60   1.0000      -0.327823        -8.9205 
  61   1.0000      -0.325697        -8.8627 
  62   1.0000      -0.323600        -8.8056 
  63   1.0000      -0.322585        -8.7780 
  64   1.0000      -0.321159        -8.7392 
  65   1.0000      -0.313029        -8.5180 
  66   1.0000      -0.298424        -8.1205 
  67   1.0000      -0.270276        -7.3546 
  68   1.0000      -0.240810        -6.5528 
  69   1.0000      -0.222501        -6.0545 
  70   1.0000      -0.180727        -4.9178 
  71   0.0000      -0.029962        -0.8153 
  72   0.0000       0.002624         0.0714 
  73   0.0000       0.049788         1.3548 
  74   0.0000       0.062047         1.6884 
  75   0.0000       0.064739         1.7616 
  76   0.0000       0.072439         1.9712 
  77   0.0000       0.076547         2.0829 
  78   0.0000       0.077186         2.1003 
  79   0.0000       0.082852         2.2545 
  80   0.0000       0.086534         2.3547 
  81   0.0000       0.093270         2.5380 
  82   0.0000       0.095965         2.6113 
  83   0.0000       0.097125         2.6429 
  84   0.0000       0.100713         2.7405 
  85   0.0000       0.104284         2.8377 
  86   0.0000       0.113190         3.0800 
  87   0.0000       0.115282         3.1370 
  88   0.0000       0.128138         3.4868 
  89   0.0000       0.136637         3.7181 
  90   0.0000       0.141549         3.8517 
  91   0.0000       0.148418         4.0387 
  92   0.0000       0.152338         4.1453 
  93   0.0000       0.157042         4.2733 
  94   0.0000       0.159200         4.3321 
  95   0.0000       0.160757         4.3744 
  96   0.0000       0.162013         4.4086 
  97   0.0000       0.167005         4.5444 
  98   0.0000       0.172285         4.6881 
  99   0.0000       0.178175         4.8484 
 100   0.0000       0.179191         4.8760 
 101   0.0000       0.183999         5.0069 
 102   0.0000       0.199335         5.4242 
 103   0.0000       0.203288         5.5318 
 104   0.0000       0.212193         5.7741 
 105   0.0000       0.216914         5.9025 
 106   0.0000       0.226173         6.1545 
 107   0.0000       0.233076         6.3423 
 108   0.0000       0.236670         6.4401 
 109   0.0000       0.240450         6.5430 
 110   0.0000       0.256263         6.9733 
 111   0.0000       0.271613         7.3910 
 112   0.0000       0.279870         7.6157 
 113   0.0000       0.287056         7.8112 
 114   0.0000       0.296309         8.0630 
 115   0.0000       0.329958         8.9786 
 116   0.0000       0.337618         9.1871 
 117   0.0000       0.353188         9.6107 
 118   0.0000       0.361342         9.8326 
 119   0.0000       0.374727        10.1968 
 120   0.0000       0.408791        11.1238 
 121   0.0000       0.412062        11.2128 
 122   0.0000       0.413537        11.2529 
 123   0.0000       0.416789        11.3414 
 124   0.0000       0.420525        11.4431 
 125   0.0000       0.420737        11.4488 
 126   0.0000       0.426068        11.5939 
 127   0.0000       0.437186        11.8964 
 128   0.0000       0.448544        12.2055 
 129   0.0000       0.455217        12.3871 
 130   0.0000       0.459245        12.4967 
 131   0.0000       0.463584        12.6148 
 132   0.0000       0.473497        12.8845 
 133   0.0000       0.480539        13.0761 
 134   0.0000       0.487230        13.2582 
 135   0.0000       0.489792        13.3279 
 136   0.0000       0.497458        13.5365 
 137   0.0000       0.503690        13.7061 
 138   0.0000       0.505227        13.7479 
 139   0.0000       0.518326        14.1044 
 140   0.0000       0.523659        14.2495 
 141   0.0000       0.526248        14.3199 
 142   0.0000       0.535493        14.5715 
 143   0.0000       0.536943        14.6110 
 144   0.0000       0.545891        14.8544 
 145   0.0000       0.555794        15.1239 
 146   0.0000       0.569036        15.4843 
 147   0.0000       0.574675        15.6377 
 148   0.0000       0.580843        15.8055 
 149   0.0000       0.598633        16.2896 
 150   0.0000       0.601923        16.3791 
 151   0.0000       0.609086        16.5741 
 152   0.0000       0.610954        16.6249 
 153   0.0000       0.615176        16.7398 
 154   0.0000       0.618970        16.8430 
 155   0.0000       0.627072        17.0635 
 156   0.0000       0.629398        17.1268 
 157   0.0000       0.634663        17.2701 
 158   0.0000       0.637894        17.3580 
 159   0.0000       0.642984        17.4965 
 160   0.0000       0.644881        17.5481 
 161   0.0000       0.646808        17.6005 
 162   0.0000       0.651270        17.7219 
 163   0.0000       0.656735        17.8707 
 164   0.0000       0.658238        17.9116 
 165   0.0000       0.658619        17.9219 
 166   0.0000       0.659677        17.9507 
 167   0.0000       0.661352        17.9963 
 168   0.0000       0.662885        18.0380 
 169   0.0000       0.665636        18.1129 
 170   0.0000       0.670549        18.2466 
 171   0.0000       0.672909        18.3108 
 172   0.0000       0.679230        18.4828 
 173   0.0000       0.683994        18.6124 
 174   0.0000       0.685523        18.6540 
 175   0.0000       0.690438        18.7878 
 176   0.0000       0.695330        18.9209 
 177   0.0000       0.697025        18.9670 
 178   0.0000       0.703003        19.1297 
 179   0.0000       0.706189        19.2164 
 180   0.0000       0.712796        19.3962 
 181   0.0000       0.714610        19.4455 
 182   0.0000       0.719726        19.5847 
 183   0.0000       0.721090        19.6219 
 184   0.0000       0.726269        19.7628 
 185   0.0000       0.731324        19.9003 
 186   0.0000       0.737420        20.0662 
 187   0.0000       0.743200        20.2235 
 188   0.0000       0.760930        20.7059 
 189   0.0000       0.766132        20.8475 
 190   0.0000       0.777225        21.1494 
 191   0.0000       0.779132        21.2013 
 192   0.0000       0.803457        21.8632 
 193   0.0000       0.813960        22.1490 
 194   0.0000       0.817133        22.2353 
 195   0.0000       0.834367        22.7043 
 196   0.0000       0.844585        22.9823 
 197   0.0000       0.851391        23.1675 
 198   0.0000       0.858408        23.3585 
 199   0.0000       0.878772        23.9126 
 200   0.0000       0.892980        24.2992 
 201   0.0000       0.901711        24.5368 
 202   0.0000       0.909250        24.7419 
 203   0.0000       0.926965        25.2240 
 204   0.0000       0.935343        25.4520 
 205   0.0000       0.974847        26.5269 
 206   0.0000       0.988977        26.9114 
 207   0.0000       0.995862        27.0988 
 208   0.0000       1.005315        27.3560 
 209   0.0000       1.008855        27.4523 
 210   0.0000       1.020124        27.7590 
 211   0.0000       1.031671        28.0732 
 212   0.0000       1.036517        28.2051 
 213   0.0000       1.048287        28.5253 
 214   0.0000       1.056195        28.7405 
 215   0.0000       1.058044        28.7908 
 216   0.0000       1.070562        29.1315 
 217   0.0000       1.082276        29.4502 
 218   0.0000       1.086834        29.5743 
 219   0.0000       1.103711        30.0335 
 220   0.0000       1.141542        31.0629 
 221   0.0000       1.152267        31.3548 
 222   0.0000       1.159657        31.5559 
 223   0.0000       1.190569        32.3970 
 224   0.0000       1.205547        32.8046 
 225   0.0000       1.206665        32.8350 
 226   0.0000       1.212752        33.0006 
 227   0.0000       1.215709        33.0811 
 228   0.0000       1.216303        33.0973 
 229   0.0000       1.218239        33.1500 
 230   0.0000       1.223953        33.3054 
 231   0.0000       1.225062        33.3356 
 232   0.0000       1.233084        33.5539 
 233   0.0000       1.248308        33.9682 
 234   0.0000       1.269596        34.5475 
 235   0.0000       1.286913        35.0187 
 236   0.0000       1.293173        35.1890 
 237   0.0000       1.312216        35.7072 
 238   0.0000       1.317889        35.8616 
 239   0.0000       1.320912        35.9438 
 240   0.0000       1.333517        36.2868 
 241   0.0000       1.339502        36.4497 
 242   0.0000       1.340606        36.4798 
 243   0.0000       1.351747        36.7829 
 244   0.0000       1.365480        37.1566 
 245   0.0000       1.386498        37.7285 
 246   0.0000       1.412149        38.4265 
 247   0.0000       1.415155        38.5083 
 248   0.0000       1.426429        38.8151 
 249   0.0000       1.427711        38.8500 
 250   0.0000       1.428404        38.8688 
 251   0.0000       1.432567        38.9821 
 252   0.0000       1.447858        39.3982 
 253   0.0000       1.462081        39.7852 
 254   0.0000       1.469908        39.9982 
 255   0.0000       1.472418        40.0665 
 256   0.0000       1.486547        40.4510 
 257   0.0000       1.495071        40.6830 
 258   0.0000       1.505019        40.9536 
 259   0.0000       1.508147        41.0388 
 260   0.0000       1.518977        41.3335 
 261   0.0000       1.526726        41.5443 
 262   0.0000       1.550874        42.2014 
 263   0.0000       1.554266        42.2937 
 264   0.0000       1.586471        43.1701 
 265   0.0000       1.594216        43.3808 
 266   0.0000       1.598072        43.4858 
 267   0.0000       1.605618        43.6911 
 268   0.0000       1.611151        43.8416 
 269   0.0000       1.619748        44.0756 
 270   0.0000       1.626757        44.2663 
 271   0.0000       1.628083        44.3024 
 272   0.0000       1.628732        44.3200 
 273   0.0000       1.631259        44.3888 
 274   0.0000       1.632750        44.4294 
 275   0.0000       1.639590        44.6155 
 276   0.0000       1.646032        44.7908 
 277   0.0000       1.647689        44.8359 
 278   0.0000       1.650906        44.9234 
 279   0.0000       1.659312        45.1522 
 280   0.0000       1.664639        45.2971 
 281   0.0000       1.666779        45.3554 
 282   0.0000       1.673344        45.5340 
 283   0.0000       1.678280        45.6683 
 284   0.0000       1.686885        45.9025 
 285   0.0000       1.689297        45.9681 
 286   0.0000       1.694806        46.1180 
 287   0.0000       1.696806        46.1724 
 288   0.0000       1.699177        46.2370 
 289   0.0000       1.703036        46.3420 
 290   0.0000       1.706318        46.4313 
 291   0.0000       1.714482        46.6534 
 292   0.0000       1.716500        46.7083 
 293   0.0000       1.718403        46.7601 
 294   0.0000       1.720118        46.8068 
 295   0.0000       1.726099        46.9695 
 296   0.0000       1.736096        47.2416 
 297   0.0000       1.744836        47.4794 
 298   0.0000       1.755115        47.7591 
 299   0.0000       1.759905        47.8894 
 300   0.0000       1.764082        48.0031 
 301   0.0000       1.767806        48.1044 
 302   0.0000       1.771633        48.2086 
 303   0.0000       1.777698        48.3736 
 304   0.0000       1.782115        48.4938 
 305   0.0000       1.795419        48.8558 
 306   0.0000       1.797068        48.9007 
 307   0.0000       1.799123        48.9566 
 308   0.0000       1.806709        49.1630 
 309   0.0000       1.822103        49.5819 
 310   0.0000       1.830482        49.8100 
 311   0.0000       1.842903        50.1480 
 312   0.0000       1.853826        50.4452 
 313   0.0000       1.859084        50.5882 
 314   0.0000       1.868984        50.8576 
 315   0.0000       1.873841        50.9898 
 316   0.0000       1.881625        51.2016 
 317   0.0000       1.894068        51.5402 
 318   0.0000       1.906095        51.8675 
 319   0.0000       1.918442        52.2035 
 320   0.0000       1.925964        52.4081 
 321   0.0000       1.945312        52.9346 
 322   0.0000       1.945442        52.9382 
 323   0.0000       1.962063        53.3904 
 324   0.0000       1.966351        53.5071 
 325   0.0000       1.972675        53.6792 
 326   0.0000       1.982589        53.9490 
 327   0.0000       1.996560        54.3292 
 328   0.0000       2.006446        54.5982 
 329   0.0000       2.015747        54.8513 
 330   0.0000       2.026553        55.1453 
 331   0.0000       2.042893        55.5900 
 332   0.0000       2.046037        55.6755 
 333   0.0000       2.053626        55.8820 
 334   0.0000       2.070042        56.3287 
 335   0.0000       2.089555        56.8597 
 336   0.0000       2.096799        57.0568 
 337   0.0000       2.102190        57.2035 
 338   0.0000       2.107150        57.3385 
 339   0.0000       2.118050        57.6351 
 340   0.0000       2.144133        58.3448 
 341   0.0000       2.153981        58.6128 
 342   0.0000       2.166936        58.9653 
 343   0.0000       2.170987        59.0756 
 344   0.0000       2.183337        59.4116 
 345   0.0000       2.196181        59.7611 
 346   0.0000       2.203016        59.9471 
 347   0.0000       2.213203        60.2243 
 348   0.0000       2.221893        60.4608 
 349   0.0000       2.230287        60.6892 
 350   0.0000       2.235583        60.8333 
 351   0.0000       2.244526        61.0767 
 352   0.0000       2.259942        61.4962 
 353   0.0000       2.267069        61.6901 
 354   0.0000       2.279965        62.0410 
 355   0.0000       2.283852        62.1468 
 356   0.0000       2.296371        62.4874 
 357   0.0000       2.306842        62.7724 
 358   0.0000       2.310200        62.8637 
 359   0.0000       2.316103        63.0244 
 360   0.0000       2.319631        63.1204 
 361   0.0000       2.330236        63.4090 
 362   0.0000       2.333599        63.5004 
 363   0.0000       2.344588        63.7995 
 364   0.0000       2.357339        64.1464 
 365   0.0000       2.377277        64.6890 
 366   0.0000       2.387811        64.9756 
 367   0.0000       2.406453        65.4829 
 368   0.0000       2.411597        65.6229 
 369   0.0000       2.412949        65.6597 
 370   0.0000       2.416596        65.7589 
 371   0.0000       2.428053        66.0707 
 372   0.0000       2.438122        66.3447 
 373   0.0000       2.444144        66.5085 
 374   0.0000       2.452739        66.7424 
 375   0.0000       2.478014        67.4302 
 376   0.0000       2.479437        67.4689 
 377   0.0000       2.488595        67.7181 
 378   0.0000       2.521827        68.6224 
 379   0.0000       2.530566        68.8602 
 380   0.0000       2.548800        69.3564 
 381   0.0000       2.556924        69.5774 
 382   0.0000       2.582978        70.2864 
 383   0.0000       2.599579        70.7381 
 384   0.0000       2.604749        70.8788 
 385   0.0000       2.645666        71.9922 
 386   0.0000       2.656884        72.2975 
 387   0.0000       2.663770        72.4849 
 388   0.0000       2.669984        72.6540 
 389   0.0000       2.711663        73.7881 
 390   0.0000       2.716230        73.9124 
 391   0.0000       2.729124        74.2632 
 392   0.0000       2.736968        74.4767 
 393   0.0000       2.740312        74.5677 
 394   0.0000       2.797503        76.1239 
 395   0.0000       2.813781        76.5669 
 396   0.0000       2.830429        77.0199 
 397   0.0000       2.884941        78.5032 
 398   0.0000       2.936168        79.8972 
 399   0.0000       3.196995        86.9947 
 400   0.0000       3.419791        93.0572 

                 SPIN DOWN ORBITALS
  NO   OCC          E(Eh)            E(eV) 
   0   1.0000     -10.205234      -277.6985 
   1   1.0000     -10.195721      -277.4397 
   2   1.0000     -10.192174      -277.3432 
   3   1.0000     -10.187679      -277.2208 
   4   1.0000     -10.186847      -277.1982 
   5   1.0000     -10.186444      -277.1872 
   6   1.0000     -10.185120      -277.1512 
   7   1.0000     -10.184089      -277.1232 
   8   1.0000     -10.183615      -277.1102 
   9   1.0000     -10.183465      -277.1062 
  10   1.0000     -10.182065      -277.0681 
  11   1.0000     -10.181656      -277.0569 
  12   1.0000     -10.181383      -277.0495 
  13   1.0000     -10.181381      -277.0495 
  14   1.0000     -10.180892      -277.0361 
  15   1.0000     -10.179027      -276.9854 
  16   1.0000     -10.175696      -276.8948 
  17   1.0000     -10.173839      -276.8442 
  18   1.0000     -10.167268      -276.6654 
  19   1.0000      -0.863621       -23.5003 
  20   1.0000      -0.811283       -22.0761 
  21   1.0000      -0.797503       -21.7012 
  22   1.0000      -0.783323       -21.3153 
  23   1.0000      -0.776456       -21.1284 
  24   1.0000      -0.756974       -20.5983 
  25   1.0000      -0.727218       -19.7886 
  26   1.0000      -0.721269       -19.6267 
  27   1.0000      -0.701692       -19.0940 
  28   1.0000      -0.671626       -18.2759 
  29   1.0000      -0.638086       -17.3632 
  30   1.0000      -0.617450       -16.8017 
  31   1.0000      -0.607073       -16.5193 
  32   1.0000      -0.583283       -15.8719 
  33   1.0000      -0.576745       -15.6940 
  34   1.0000      -0.559690       -15.2299 
  35   1.0000      -0.546043       -14.8586 
  36   1.0000      -0.524854       -14.2820 
  37   1.0000      -0.492949       -13.4138 
  38   1.0000      -0.470315       -12.7979 
  39   1.0000      -0.468186       -12.7400 
  40   1.0000      -0.463838       -12.6217 
  41   1.0000      -0.459525       -12.5043 
  42   1.0000      -0.452051       -12.3009 
  43   1.0000      -0.427808       -11.6412 
  44   1.0000      -0.425332       -11.5739 
  45   1.0000      -0.421693       -11.4748 
  46   1.0000      -0.418890       -11.3986 
  47   1.0000      -0.412705       -11.2303 
  48   1.0000      -0.403278       -10.9738 
  49   1.0000      -0.399497       -10.8709 
  50   1.0000      -0.381673       -10.3859 
  51   1.0000      -0.376522       -10.2457 
  52   1.0000      -0.373932       -10.1752 
  53   1.0000      -0.362644        -9.8680 
  54   1.0000      -0.360143        -9.8000 
  55   1.0000      -0.352917        -9.6034 
  56   1.0000      -0.347768        -9.4632 
  57   1.0000      -0.345831        -9.4106 
  58   1.0000      -0.332583        -9.0501 
  59   1.0000      -0.328640        -8.9428 
  60   1.0000      -0.326406        -8.8820 
  61   1.0000      -0.324905        -8.8411 
  62   1.0000      -0.323302        -8.7975 
  63   1.0000      -0.321873        -8.7586 
  64   1.0000      -0.319785        -8.7018 
  65   1.0000      -0.310478        -8.4485 
  66   1.0000      -0.298388        -8.1196 
  67   1.0000      -0.270270        -7.3544 
  68   1.0000      -0.240755        -6.5513 
  69   1.0000      -0.222436        -6.0528 
  70   0.0000      -0.036174        -0.9843 
  71   0.0000      -0.029739        -0.8092 
  72   0.0000       0.002728         0.0742 
  73   0.0000       0.049836         1.3561 
  74   0.0000       0.062057         1.6887 
  75   0.0000       0.065803         1.7906 
  76   0.0000       0.072955         1.9852 
  77   0.0000       0.076925         2.0932 
  78   0.0000       0.077333         2.1043 
  79   0.0000       0.083609         2.2751 
  80   0.0000       0.087353         2.3770 
  81   0.0000       0.093742         2.5509 
  82   0.0000       0.096275         2.6198 
  83   0.0000       0.097240         2.6460 
  84   0.0000       0.101560         2.7636 
  85   0.0000       0.105652         2.8749 
  86   0.0000       0.113623         3.0918 
  87   0.0000       0.115433         3.1411 
  88   0.0000       0.128222         3.4891 
  89   0.0000       0.136997         3.7279 
  90   0.0000       0.142861         3.8875 
  91   0.0000       0.148506         4.0411 
  92   0.0000       0.153723         4.1830 
  93   0.0000       0.157687         4.2909 
  94   0.0000       0.159537         4.3412 
  95   0.0000       0.162280         4.4159 
  96   0.0000       0.163784         4.4568 
  97   0.0000       0.169218         4.6046 
  98   0.0000       0.172803         4.7022 
  99   0.0000       0.178919         4.8686 
 100   0.0000       0.180626         4.9151 
 101   0.0000       0.185190         5.0393 
 102   0.0000       0.199486         5.4283 
 103   0.0000       0.207015         5.6332 
 104   0.0000       0.212463         5.7814 
 105   0.0000       0.217834         5.9276 
 106   0.0000       0.226772         6.1708 
 107   0.0000       0.233527         6.3546 
 108   0.0000       0.238250         6.4831 
 109   0.0000       0.242254         6.5921 
 110   0.0000       0.257446         7.0054 
 111   0.0000       0.272171         7.4061 
 112   0.0000       0.285489         7.7686 
 113   0.0000       0.288151         7.8410 
 114   0.0000       0.298147         8.1130 
 115   0.0000       0.331292         9.0149 
 116   0.0000       0.339405         9.2357 
 117   0.0000       0.353901         9.6301 
 118   0.0000       0.361667         9.8415 
 119   0.0000       0.374854        10.2003 
 120   0.0000       0.409362        11.1393 
 121   0.0000       0.412095        11.2137 
 122   0.0000       0.414404        11.2765 
 123   0.0000       0.418039        11.3754 
 124   0.0000       0.420552        11.4438 
 125   0.0000       0.421874        11.4798 
 126   0.0000       0.427811        11.6413 
 127   0.0000       0.437931        11.9167 
 128   0.0000       0.449115        12.2210 
 129   0.0000       0.457326        12.4445 
 130   0.0000       0.465677        12.6717 
 131   0.0000       0.475393        12.9361 
 132   0.0000       0.479832        13.0569 
 133   0.0000       0.481673        13.1070 
 134   0.0000       0.487831        13.2746 
 135   0.0000       0.496364        13.5067 
 136   0.0000       0.498659        13.5692 
 137   0.0000       0.504481        13.7276 
 138   0.0000       0.509111        13.8536 
 139   0.0000       0.520115        14.1531 
 140   0.0000       0.523811        14.2536 
 141   0.0000       0.527992        14.3674 
 142   0.0000       0.537337        14.6217 
 143   0.0000       0.539140        14.6708 
 144   0.0000       0.545925        14.8554 
 145   0.0000       0.558716        15.2034 
 146   0.0000       0.570776        15.5316 
 147   0.0000       0.577176        15.7058 
 148   0.0000       0.592178        16.1140 
 149   0.0000       0.601109        16.3570 
 150   0.0000       0.608497        16.5580 
 151   0.0000       0.609598        16.5880 
 152   0.0000       0.612911        16.6781 
 153   0.0000       0.616175        16.7670 
 154   0.0000       0.619363        16.8537 
 155   0.0000       0.628946        17.1145 
 156   0.0000       0.632461        17.2101 
 157   0.0000       0.635575        17.2949 
 158   0.0000       0.639249        17.3948 
 159   0.0000       0.643275        17.5044 
 160   0.0000       0.646192        17.5838 
 161   0.0000       0.648329        17.6419 
 162   0.0000       0.651699        17.7336 
 163   0.0000       0.657906        17.9025 
 164   0.0000       0.658785        17.9265 
 165   0.0000       0.660377        17.9698 
 166   0.0000       0.660946        17.9853 
 167   0.0000       0.661835        18.0095 
 168   0.0000       0.664826        18.0908 
 169   0.0000       0.668373        18.1874 
 170   0.0000       0.672158        18.2904 
 171   0.0000       0.673381        18.3236 
 172   0.0000       0.680858        18.5271 
 173   0.0000       0.685370        18.6499 
 174   0.0000       0.686697        18.6860 
 175   0.0000       0.690659        18.7938 
 176   0.0000       0.696208        18.9448 
 177   0.0000       0.697961        18.9925 
 178   0.0000       0.703767        19.1505 
 179   0.0000       0.707199        19.2439 
 180   0.0000       0.713939        19.4273 
 181   0.0000       0.715883        19.4802 
 182   0.0000       0.721243        19.6260 
 183   0.0000       0.722616        19.6634 
 184   0.0000       0.728062        19.8116 
 185   0.0000       0.732440        19.9307 
 186   0.0000       0.740376        20.1466 
 187   0.0000       0.744074        20.2473 
 188   0.0000       0.761316        20.7164 
 189   0.0000       0.771256        20.9869 
 190   0.0000       0.777353        21.1528 
 191   0.0000       0.783130        21.3101 
 192   0.0000       0.803521        21.8649 
 193   0.0000       0.814017        22.1505 
 194   0.0000       0.821373        22.3507 
 195   0.0000       0.834623        22.7112 
 196   0.0000       0.847219        23.0540 
 197   0.0000       0.854631        23.2557 
 198   0.0000       0.859038        23.3756 
 199   0.0000       0.882203        24.0060 
 200   0.0000       0.894121        24.3303 
 201   0.0000       0.906847        24.6766 
 202   0.0000       0.914227        24.8774 
 203   0.0000       0.927345        25.2343 
 204   0.0000       0.940767        25.5996 
 205   0.0000       0.975924        26.5562 
 206   0.0000       0.993164        27.0254 
 207   0.0000       0.995948        27.1011 
 208   0.0000       1.006668        27.3928 
 209   0.0000       1.008894        27.4534 
 210   0.0000       1.026092        27.9214 
 211   0.0000       1.032525        28.0964 
 212   0.0000       1.037011        28.2185 
 213   0.0000       1.048321        28.5263 
 214   0.0000       1.056510        28.7491 
 215   0.0000       1.062480        28.9115 
 216   0.0000       1.070915        29.1411 
 217   0.0000       1.086821        29.5739 
 218   0.0000       1.086900        29.5761 
 219   0.0000       1.105149        30.0726 
 220   0.0000       1.142378        31.0857 
 221   0.0000       1.152564        31.3629 
 222   0.0000       1.160888        31.5894 
 223   0.0000       1.191026        32.4095 
 224   0.0000       1.205677        32.8081 
 225   0.0000       1.207214        32.8500 
 226   0.0000       1.213779        33.0286 
 227   0.0000       1.215869        33.0855 
 228   0.0000       1.217925        33.1414 
 229   0.0000       1.219378        33.1810 
 230   0.0000       1.224935        33.3322 
 231   0.0000       1.226106        33.3641 
 232   0.0000       1.234165        33.5834 
 233   0.0000       1.249038        33.9880 
 234   0.0000       1.271421        34.5971 
 235   0.0000       1.287008        35.0213 
 236   0.0000       1.300894        35.3991 
 237   0.0000       1.314978        35.7824 
 238   0.0000       1.319942        35.9175 
 239   0.0000       1.323704        36.0198 
 240   0.0000       1.333728        36.2926 
 241   0.0000       1.339633        36.4533 
 242   0.0000       1.342322        36.5264 
 243   0.0000       1.353640        36.8344 
 244   0.0000       1.373628        37.3783 
 245   0.0000       1.398276        38.0490 
 246   0.0000       1.412181        38.4274 
 247   0.0000       1.416655        38.5491 
 248   0.0000       1.426436        38.8153 
 249   0.0000       1.428311        38.8663 
 250   0.0000       1.429306        38.8934 
 251   0.0000       1.436351        39.0851 
 252   0.0000       1.449091        39.4318 
 253   0.0000       1.462270        39.7904 
 254   0.0000       1.471485        40.0412 
[...]
  Y           0.3449201            0.4045409           -0.8469810
  Z          -0.6341329            0.7657168            0.1074859

Notes:  (1) The A matrix conforms to the "SAI" spin Hamiltonian convention.
        (2) Tensor is right-handed.

 -----------------------------------------------------------
 Nucleus  43H : A:ISTP=    1 I=  0.5 P=533.5514 MHz/au**3
                Q:ISTP=    2 I=  1.0 Q=  0.0029 barn     
 -----------------------------------------------------------
 Solving for nuclear perturbation:
Forming RHS of the CP-SCF equations         ... 
Calc. nucleus orbit integrals (SHARK)       ... done

------------------------------------------------------------------------------
                           ORCA CP-SCF CALCULATION
------------------------------------------------------------------------------

Input orbitals are from        ... cc-pVDZ_i.gbw
Input Perturbation             ... cc-pVDZ_i.pin.tmp
Wavefunction output            ... cc-pVDZ_i.pout.tmp
Perturbation mode              ... Imaginary perturbation
Solver                         ... POPLE
Max. number of iterations      ... 64
Convergence tolerance          ... 1.000e-03
Integral handling              ... Direct
DFT GridXC                     ... 1
COSX GridX                     ... 1
COSX IntAccX                   ... 3.067
COSX Algorithm                 ... Auto
Number of perturbations        ... 3
Number of operators            ... 2
Orbital ranges used for CP-SCF:
 Operator 0:  Orbitals   0... 70  to  71...400
 Operator 1:  Orbitals   0... 69  to  70...400
Variables per perturbation     ... 46600
DFT calculation                         ... on
XC functional terms                     ... off
Hybrid DFT                              ... on
   Exchange mixing (SCF)                ...  0.200
   Exchange mixing (CP-SCF)             ...  0.200
   GGA exch. scaling(SCF)               ...  0.720
   GGA exch. scaling (CP-SCF)           ...  0.720
   GGA corr. scaling (SCF)              ...  0.810
   GGA corr. scaling (CP-SCF)           ...  0.810

CP-SCF GRID
-----------

General Integration Accuracy     IntAcc      ... 3.467
Radial Grid Type                 RadialGrid  ... OptM3 with GC (2021)
Angular Grid (max. ang.)         AngularGrid ... 1 (Lebedev-50)
Angular grid pruning method      GridPruning ... 4 (adaptive)
Weight generation scheme         WeightScheme... Becke
Basis function cutoff            BFCut       ... 1.0000e-10
Integration weight cutoff        WCut        ... 1.0000e-14
Angular grids for H and He will be reduced by one unit
Partially contracted basis set               ... off
Rotationally invariant grid construction     ... off

Total number of grid points                  ...    27924
Total number of batches                      ...      456
Average number of points per batch           ...       61
Average number of grid points per atom       ...      607

CP-SCF GRIDX
------------

General Integration Accuracy     IntAcc      ... 3.067
Radial Grid Type                 RadialGrid  ... OptM3 with GC (2021)
Angular Grid (max. ang.)         AngularGrid ... 1 (Lebedev-50)
Angular grid pruning method      GridPruning ... 4 (adaptive)
Weight generation scheme         WeightScheme... Becke
Basis function cutoff            BFCut       ... 1.0000e-10
Integration weight cutoff        WCut        ... 1.0000e-14
Angular grids for H and He will be reduced by one unit
Partially contracted basis set               ... on
Rotationally invariant grid construction     ... off

Total number of grid points                  ...    13278
Total number of batches                      ...      237
Average number of points per batch           ...       56
Average number of grid points per atom       ...      289

Memory available               ... 896.4 MB
Memory needed per perturbation ...  10.1 MB
Perturbations treated per batch... 3
Number of batches              ... 1
     CP-SCF ITERATION   0:   3.6523e-02 (   1.3 sec   0/  3 done)
     CP-SCF ITERATION   1:   5.7346e-04 (   1.4 sec   3/  3 done)
                    *** THE CP-SCF HAS CONVERGED ***

Forming final perturbed densities           ... done
Transforming perturbed density to AO basis  ... done

 Raw HFC matrix (all values in MHz): 
 -----------------------------------
                -0.0258               0.0182              -0.0012
                 0.0182               0.0553              -0.0050
                -0.0012              -0.0050              -0.0294

 A(FC)           0.0000               0.0000               0.0000
 A(SD)          -0.0296              -0.0298               0.0595
 A(ORB+DIA)      0.0000               0.0000               0.0000    A(PC) =   0.0000
 A(ORB)         -0.0000              -0.0000               0.0000    A(PC) =   0.0000
 A(DIA)          0.0000               0.0000               0.0000    A(PC) =   0.0000
             ----------           ----------           ----------
 A(Tot)         -0.0296              -0.0298               0.0595    A(iso)=    0.0000
 Orientation: 
  X           0.7232246            0.6583277           -0.2086882
  Y          -0.1936670           -0.0967224           -0.9762878
  Z          -0.6629021            0.7464914            0.0575444

Notes:  (1) The A matrix conforms to the "SAI" spin Hamiltonian convention.
        (2) Tensor is right-handed.

 -----------------------------------------------------------
 Nucleus  44H : A:ISTP=    1 I=  0.5 P=533.5514 MHz/au**3
                Q:ISTP=    2 I=  1.0 Q=  0.0029 barn     
 -----------------------------------------------------------
 Solving for nuclear perturbation:
Forming RHS of the CP-SCF equations         ... 
Calc. nucleus orbit integrals (SHARK)       ... done

------------------------------------------------------------------------------
                           ORCA CP-SCF CALCULATION
------------------------------------------------------------------------------

Input orbitals are from        ... cc-pVDZ_i.gbw
Input Perturbation             ... cc-pVDZ_i.pin.tmp
Wavefunction output            ... cc-pVDZ_i.pout.tmp
Perturbation mode              ... Imaginary perturbation
Solver                         ... POPLE
Max. number of iterations      ... 64
Convergence tolerance          ... 1.000e-03
Integral handling              ... Direct
DFT GridXC                     ... 1
COSX GridX                     ... 1
COSX IntAccX                   ... 3.067
COSX Algorithm                 ... Auto
Number of perturbations        ... 3
Number of operators            ... 2
Orbital ranges used for CP-SCF:
 Operator 0:  Orbitals   0... 70  to  71...400
 Operator 1:  Orbitals   0... 69  to  70...400
Variables per perturbation     ... 46600
DFT calculation                         ... on
XC functional terms                     ... off
Hybrid DFT                              ... on
   Exchange mixing (SCF)                ...  0.200
   Exchange mixing (CP-SCF)             ...  0.200
   GGA exch. scaling(SCF)               ...  0.720
   GGA exch. scaling (CP-SCF)           ...  0.720
   GGA corr. scaling (SCF)              ...  0.810
   GGA corr. scaling (CP-SCF)           ...  0.810

CP-SCF GRID
-----------

General Integration Accuracy     IntAcc      ... 3.467
Radial Grid Type                 RadialGrid  ... OptM3 with GC (2021)
Angular Grid (max. ang.)         AngularGrid ... 1 (Lebedev-50)
Angular grid pruning method      GridPruning ... 4 (adaptive)
Weight generation scheme         WeightScheme... Becke
Basis function cutoff            BFCut       ... 1.0000e-10
Integration weight cutoff        WCut        ... 1.0000e-14
Angular grids for H and He will be reduced by one unit
Partially contracted basis set               ... off
Rotationally invariant grid construction     ... off

Total number of grid points                  ...    27924
Total number of batches                      ...      456
Average number of points per batch           ...       61
Average number of grid points per atom       ...      607

CP-SCF GRIDX
------------

General Integration Accuracy     IntAcc      ... 3.067
Radial Grid Type                 RadialGrid  ... OptM3 with GC (2021)
Angular Grid (max. ang.)         AngularGrid ... 1 (Lebedev-50)
Angular grid pruning method      GridPruning ... 4 (adaptive)
Weight generation scheme         WeightScheme... Becke
Basis function cutoff            BFCut       ... 1.0000e-10
Integration weight cutoff        WCut        ... 1.0000e-14
Angular grids for H and He will be reduced by one unit
Partially contracted basis set               ... on
Rotationally invariant grid construction     ... off

Total number of grid points                  ...    13278
Total number of batches                      ...      237
Average number of points per batch           ...       56
Average number of grid points per atom       ...      289

Memory available               ... 896.0 MB
Memory needed per perturbation ...  10.1 MB
Perturbations treated per batch... 3
Number of batches              ... 1
     CP-SCF ITERATION   0:   3.6367e-02 (   1.3 sec   0/  3 done)
     CP-SCF ITERATION   1:   5.2933e-04 (   1.5 sec   3/  3 done)
                    *** THE CP-SCF HAS CONVERGED ***

Forming final perturbed densities           ... done
Transforming perturbed density to AO basis  ... done

 Raw HFC matrix (all values in MHz): 
 -----------------------------------
                -0.8513              -0.2521              -0.1414
                -0.2521               1.1459               0.3318
                -0.1415               0.3316              -0.9371

 A(FC)          -0.2143              -0.2143              -0.2143
 A(SD)          -0.6108              -0.8356               1.4464
 A(ORB+DIA)     -0.0001              -0.0002               0.0006    A(PC) =   0.0001
 A(ORB)         -0.0000              -0.0002               0.0004    A(PC) =   0.0001
 A(DIA)         -0.0001              -0.0000               0.0001    A(PC) =   0.0000
             ----------           ----------           ----------
 A(Tot)         -0.8251              -1.0501               1.2327    A(iso)=   -0.2142
 Orientation: 
  X           0.8451784            0.5186556            0.1291114
  Y           0.1920298           -0.0692300           -0.9789442
  Z          -0.4987965            0.8521758           -0.1581090

Notes:  (1) The A matrix conforms to the "SAI" spin Hamiltonian convention.
        (2) Tensor is right-handed.

 -----------------------------------------------------------
 Nucleus  45H : A:ISTP=    1 I=  0.5 P=533.5514 MHz/au**3
                Q:ISTP=    2 I=  1.0 Q=  0.0029 barn     
 -----------------------------------------------------------
 Solving for nuclear perturbation:
Forming RHS of the CP-SCF equations         ... 
Calc. nucleus orbit integrals (SHARK)       ... done

------------------------------------------------------------------------------
                           ORCA CP-SCF CALCULATION
------------------------------------------------------------------------------

Input orbitals are from        ... cc-pVDZ_i.gbw
Input Perturbation             ... cc-pVDZ_i.pin.tmp
Wavefunction output            ... cc-pVDZ_i.pout.tmp
Perturbation mode              ... Imaginary perturbation
Solver                         ... POPLE
Max. number of iterations      ... 64
Convergence tolerance          ... 1.000e-03
Integral handling              ... Direct
DFT GridXC                     ... 1
COSX GridX                     ... 1
COSX IntAccX                   ... 3.067
COSX Algorithm                 ... Auto
Number of perturbations        ... 3
Number of operators            ... 2
Orbital ranges used for CP-SCF:
 Operator 0:  Orbitals   0... 70  to  71...400
 Operator 1:  Orbitals   0... 69  to  70...400
Variables per perturbation     ... 46600
DFT calculation                         ... on
XC functional terms                     ... off
Hybrid DFT                              ... on
   Exchange mixing (SCF)                ...  0.200
   Exchange mixing (CP-SCF)             ...  0.200
   GGA exch. scaling(SCF)               ...  0.720
   GGA exch. scaling (CP-SCF)           ...  0.720
   GGA corr. scaling (SCF)              ...  0.810
   GGA corr. scaling (CP-SCF)           ...  0.810

CP-SCF GRID
-----------

General Integration Accuracy     IntAcc      ... 3.467
Radial Grid Type                 RadialGrid  ... OptM3 with GC (2021)
Angular Grid (max. ang.)         AngularGrid ... 1 (Lebedev-50)
Angular grid pruning method      GridPruning ... 4 (adaptive)
Weight generation scheme         WeightScheme... Becke
Basis function cutoff            BFCut       ... 1.0000e-10
Integration weight cutoff        WCut        ... 1.0000e-14
Angular grids for H and He will be reduced by one unit
Partially contracted basis set               ... off
Rotationally invariant grid construction     ... off

Total number of grid points                  ...    27924
Total number of batches                      ...      456
Average number of points per batch           ...       61
Average number of grid points per atom       ...      607

CP-SCF GRIDX
------------

General Integration Accuracy     IntAcc      ... 3.067
Radial Grid Type                 RadialGrid  ... OptM3 with GC (2021)
Angular Grid (max. ang.)         AngularGrid ... 1 (Lebedev-50)
Angular grid pruning method      GridPruning ... 4 (adaptive)
Weight generation scheme         WeightScheme... Becke
Basis function cutoff            BFCut       ... 1.0000e-10
Integration weight cutoff        WCut        ... 1.0000e-14
Angular grids for H and He will be reduced by one unit
Partially contracted basis set               ... on
Rotationally invariant grid construction     ... off

Total number of grid points                  ...    13278
Total number of batches                      ...      237
Average number of points per batch           ...       56
Average number of grid points per atom       ...      289

Memory available               ... 895.6 MB
Memory needed per perturbation ...  10.1 MB
Perturbations treated per batch... 3
Number of batches              ... 1
     CP-SCF ITERATION   0:   4.2799e-02 (   1.5 sec   0/  3 done)
     CP-SCF ITERATION   1:   1.6660e-03 (   1.4 sec   2/  3 done)
     CP-SCF ITERATION   2:   7.5454e-05 (   0.9 sec   3/  3 done)
                    *** THE CP-SCF HAS CONVERGED ***

Forming final perturbed densities           ... done
Transforming perturbed density to AO basis  ... done

 Raw HFC matrix (all values in MHz): 
 -----------------------------------
                -0.0451               0.2678              -0.0126
                 0.2679               0.2726              -0.0167
                -0.0125              -0.0166              -0.1994

 A(FC)           0.0093               0.0093               0.0093
 A(SD)          -0.2052              -0.2111               0.4164
 A(ORB+DIA)     -0.0000               0.0000               0.0001    A(PC) =   0.0000
 A(ORB)         -0.0000              -0.0000               0.0001    A(PC) =   0.0000
 A(DIA)          0.0000               0.0000               0.0000    A(PC) =   0.0000
             ----------           ----------           ----------
 A(Tot)         -0.1960              -0.2018               0.4258    A(iso)=    0.0093
 Orientation: 
  X          -0.7208798            0.4853469            0.4947430
  Y           0.4313834           -0.2444915            0.8684079
  Z           0.5424396            0.8394416           -0.0331216

Notes:  (1) The A matrix conforms to the "SAI" spin Hamiltonian convention.
        (2) Tensor is right-handed.


--------------------------------------------------------------------------------
----------------------------------------------------------------------------
                           ORCA EULER ANGLE PROGRAM
----------------------------------------------------------------------------

Only g-tensor available        -->  using g-tensor as reference tensor

Reference tensor               ...  g

g-tensor ordering              ...  |g_min> --> |gx>
                                    |g_mid> --> |gy>
                                    |g_max> --> |gz>

A- and EFG-tensor ordering     ...  the axes |Ax>, |Qx>, |Ay>, etc. are assigned
                                    such that the Euler rotation is minimal. You
                                    can find the respective eigenvalues as Ax,
                                    EFGx, Ay, etc. in the tables below.
                                    The relation of |Ax>, |Ay>,  etc. to Amin, Amid, etc.
                                    (as printed in the ORCA EPR/NMR CALCULATION Output)
                                    is obtained in the detailed printout.

Euler rotation around          ...  z - y - z
   First rotation              -->  by alpha around z
   Second rotation             -->  by beta around y'
   Third rotation              -->  by gamma around z''
   Positive / Negative angle   -->  clockwise / counterclockwise rotation

Plot EFG-tensors                    (-)
Plot HFC-tensors                    (-)
Detailed Printout                   (-)

-------------------------------------------------------------------------
          Euler rotation of hyperfine tensor to g-tensor
-------------------------------------------------------------------------

-------------------------------------------------------------------
 Atom  |   Alpha    Beta    Gamma   |   Ax       Ay       Az 
       |          [degrees]         |           [MHz]         
-------------------------------------------------------------------
  7H      151.4     37.4   -164.4      -0.12     0.27    -0.11
  8H     -162.1     36.4    151.0      -0.75     1.35    -0.71
 10H     -166.4     23.0    158.8      -0.06     0.22    -0.06
 11H       -2.7     34.4    -16.7      -0.06     0.22    -0.06
 13H       15.2     34.1    -17.1      -0.07     0.14    -0.07
 14H       17.4     43.1    -26.8      -0.07     0.14    -0.07
 16H        3.5     29.4    -19.4      -0.05     0.09    -0.05
 17H       -2.4     28.1     -6.2      -0.05     0.09    -0.05
 19H       22.4     32.5    -31.8      -0.04     0.07    -0.04
 20H       18.3     30.5    -20.9      -0.04     0.07    -0.04
 22H       92.9     36.8   -111.4      -0.35     2.76    -0.31
 23H       50.3     32.8    -41.6       0.08     3.04    -0.49
 25H     -136.0     12.0    142.7      -4.15     4.01    -4.32
 26H        3.9     40.8    -30.4      -4.30     4.82    -5.72
 28H      -30.2     24.5     67.6      34.16    33.36    47.45
 29H      -90.5     44.7    122.4     109.36   107.36   120.29
 31H       56.7     19.0    -55.8     -55.84   -91.59   -15.97
 33H      -49.9     21.6     23.6     109.57   120.54   107.61
 34H      -45.6     54.1     40.5      31.44    44.65    30.60
 36H      100.1     40.9   -111.2      -4.19     4.01    -4.33
 37H       47.9     34.0    -12.0      -4.33     4.77    -5.81
 39H     -171.1     44.1   -172.9      -0.34     2.67    -0.32
 40H       19.5     24.1    -22.3       0.10     2.93    -0.42
 42H      -63.3     42.8     94.5      -0.18    -0.18     0.34
 43H       11.8     28.6    -20.9      -0.03     0.06    -0.03
 44H       31.5     38.6    -16.8      -0.83     1.23    -1.05
 45H      -18.9     37.3     -0.2      -0.20     0.43    -0.20
-------------------------------------------------------------------


Maximum memory used throughout the entire EPRNMR-calculation: 181.2 MB

Timings for individual modules:

Sum of individual times         ...     3293.158 sec (=  54.886 min)
GTO integral calculation        ...        4.168 sec (=   0.069 min)   0.1 %
Spin-Orbit-Coupling Matrices    ...        7.230 sec (=   0.121 min)   0.2 %
SCF iterations                  ...       63.887 sec (=   1.065 min)   1.9 %
EPR/NMR calculation             ...     3217.873 sec (=  53.631 min)  97.7 %
                             ****ORCA TERMINATED NORMALLY****
TOTAL RUN TIME: 0 days 0 hours 54 minutes 57 seconds 148 msec
