
                                 *****************
                                 * O   R   C   A *
                                 *****************

                                            #,                                       
                                            ###                                      
                                            ####                                     
                                            #####                                    
                                            ######                                   
                                           ########,                                 
                                     ,,################,,,,,                         
                               ,,#################################,,                 
                          ,,##########################################,,             
                       ,#########################################, ''#####,          
                    ,#############################################,,   '####,        
                  ,##################################################,,,,####,       
                ,###########''''           ''''###############################       
              ,#####''   ,,,,##########,,,,          '''####'''          '####       
            ,##' ,,,,###########################,,,                        '##       
           ' ,,###''''                  '''############,,,                           
         ,,##''                                '''############,,,,        ,,,,,,###''
      ,#''                                            '''#######################'''  
     '                                                          ''''####''''         
             ,#######,   #######,   ,#######,      ##                                
            ,#'     '#,  ##    ##  ,#'     '#,    #''#        ######   ,####,        
            ##       ##  ##   ,#'  ##            #'  '#       #        #'  '#        
            ##       ##  #######   ##           ,######,      #####,   #    #        
            '#,     ,#'  ##    ##  '#,     ,#' ,#      #,         ##   #,  ,#        
             '#######'   ##     ##  '#######'  #'      '#     #####' # '####'        



                  #######################################################
                  #                        -***-                        #
                  #          Department of theory and spectroscopy      #
                  #    Directorship and core code : Frank Neese         #
                  #        Max Planck Institute fuer Kohlenforschung    #
                  #                Kaiser Wilhelm Platz 1               #
                  #                 D-45470 Muelheim/Ruhr               #
                  #                      Germany                        #
                  #                                                     #
                  #                  All rights reserved                #
                  #                        -***-                        #
                  #######################################################


                         Program Version 5.0.4 -  RELEASE  -


 With contributions from (in alphabetic order):
   Daniel Aravena         : Magnetic Suceptibility
   Michael Atanasov       : Ab Initio Ligand Field Theory (pilot matlab implementation)
   Alexander A. Auer      : GIAO ZORA, VPT2 properties, NMR spectrum
   Ute Becker             : Parallelization
   Giovanni Bistoni       : ED, misc. LED, open-shell LED, HFLD
   Martin Brehm           : Molecular dynamics
   Dmytro Bykov           : SCF Hessian
   Vijay G. Chilkuri      : MRCI spin determinant printing, contributions to CSF-ICE
   Dipayan Datta          : RHF DLPNO-CCSD density
   Achintya Kumar Dutta   : EOM-CC, STEOM-CC
   Dmitry Ganyushin       : Spin-Orbit,Spin-Spin,Magnetic field MRCI
   Miquel Garcia          : C-PCM and meta-GGA Hessian, CC/C-PCM, Gaussian charge scheme
   Yang Guo               : DLPNO-NEVPT2, F12-NEVPT2, CIM, IAO-localization
   Andreas Hansen         : Spin unrestricted coupled pair/coupled cluster methods
   Benjamin Helmich-Paris : MC-RPA, TRAH-SCF, COSX integrals
   Lee Huntington         : MR-EOM, pCC
   Robert Izsak           : Overlap fitted RIJCOSX, COSX-SCS-MP3, EOM
   Marcus Kettner         : VPT2
   Christian Kollmar      : KDIIS, OOCD, Brueckner-CCSD(T), CCSD density, CASPT2, CASPT2-K
   Simone Kossmann        : Meta GGA functionals, TD-DFT gradient, OOMP2, MP2 Hessian
   Martin Krupicka        : Initial AUTO-CI
   Lucas Lang             : DCDCAS
   Marvin Lechner         : AUTO-CI (C++ implementation), FIC-MRCC
   Dagmar Lenk            : GEPOL surface, SMD
   Dimitrios Liakos       : Extrapolation schemes; Compound Job, initial MDCI parallelization
   Dimitrios Manganas     : Further ROCIS development; embedding schemes
   Dimitrios Pantazis     : SARC Basis sets
   Anastasios Papadopoulos: AUTO-CI, single reference methods and gradients
   Taras Petrenko         : DFT Hessian,TD-DFT gradient, ASA, ECA, R-Raman, ABS, FL, XAS/XES, NRVS
   Peter Pinski           : DLPNO-MP2, DLPNO-MP2 Gradient
   Christoph Reimann      : Effective Core Potentials
   Marius Retegan         : Local ZFS, SOC
   Christoph Riplinger    : Optimizer, TS searches, QM/MM, DLPNO-CCSD(T), (RO)-DLPNO pert. Triples
   Tobias Risthaus        : Range-separated hybrids, TD-DFT gradient, RPA, STAB
   Michael Roemelt        : Original ROCIS implementation
   Masaaki Saitow         : Open-shell DLPNO-CCSD energy and density
   Barbara Sandhoefer     : DKH picture change effects
   Avijit Sen             : IP-ROCIS
   Kantharuban Sivalingam : CASSCF convergence, NEVPT2, FIC-MRCI
   Bernardo de Souza      : ESD, SOC TD-DFT
   Georgi Stoychev        : AutoAux, RI-MP2 NMR, DLPNO-MP2 response
   Willem Van den Heuvel  : Paramagnetic NMR
   Boris Wezisla          : Elementary symmetry handling
   Frank Wennmohs         : Technical directorship


 We gratefully acknowledge several colleagues who have allowed us to
 interface, adapt or use parts of their codes:
   Stefan Grimme, W. Hujo, H. Kruse, P. Pracht,  : VdW corrections, initial TS optimization,
                  C. Bannwarth, S. Ehlert          DFT functionals, gCP, sTDA/sTD-DF
   Ed Valeev, F. Pavosevic, A. Kumar             : LibInt (2-el integral package), F12 methods
   Garnet Chan, S. Sharma, J. Yang, R. Olivares  : DMRG
   Ulf Ekstrom                                   : XCFun DFT Library
   Mihaly Kallay                                 : mrcc  (arbitrary order and MRCC methods)
   Jiri Pittner, Ondrej Demel                    : Mk-CCSD
   Frank Weinhold                                : gennbo (NPA and NBO analysis)
   Christopher J. Cramer and Donald G. Truhlar   : smd solvation model
   Lars Goerigk                                  : TD-DFT with DH, B97 family of functionals
   V. Asgeirsson, H. Jonsson                     : NEB implementation
   FAccTs GmbH                                   : IRC, NEB, NEB-TS, DLPNO-Multilevel, CI-OPT
                                                   MM, QMMM, 2- and 3-layer-ONIOM, Crystal-QMMM,
                                                   LR-CPCM, SF, NACMEs, symmetry and pop. for TD-DFT,
                                                   nearIR, NL-DFT gradient (VV10), updates on ESD,
                                                   ML-optimized integration grids
   S Lehtola, MJT Oliveira, MAL Marques          : LibXC Library
   Liviu Ungur et al                             : ANISO software


 Your calculation uses the libint2 library for the computation of 2-el integrals
 For citations please refer to: http://libint.valeyev.net

 Your ORCA version has been built with support for libXC version: 5.1.0
 For citations please refer to: https://tddft.org/programs/libxc/

 This ORCA versions uses:
   CBLAS   interface :  Fast vector & matrix operations
   LAPACKE interface :  Fast linear algebra routines
   SCALAPACK package :  Parallel linear algebra routines
   Shared memory     :  Shared parallel matrices
   BLAS/LAPACK       :  OpenBLAS 0.3.15  USE64BITINT DYNAMIC_ARCH NO_AFFINITY SkylakeX SINGLE_THREADED
        Core in use  :  SkylakeX
   Copyright (c) 2011-2014, The OpenBLAS Project




***************************************
The coordinates will be read from file: opt.xyz
***************************************


================================================================================

----- Orbital basis set information -----
Your calculation utilizes the basis: cc-pVDZ 
       H, B-Ne : Obtained from the ccRepo (grant-hill.group.shef.ac.uk/ccrepo) Feb. 2017
                 T. H. Dunning, Jr., J. Chem. Phys. 90, 1007 (1989)
            He : Obtained from the ccRepo (grant-hill.group.shef.ac.uk/ccrepo) Feb. 2017
                 D. E. Woon, T. H. Dunning, Jr., J. Chem. Phys. 100, 2975 (1994)
  Li-Be, Na-Mg : Obtained from the ccRepo (grant-hill.group.shef.ac.uk/ccrepo) Feb. 2017
                 B. P. Prascher, D. E. Woon, K. A. Peterson, T. H. Dunning, Jr., A. K. Wilson, Theor. Chem. Acc. 128, 69 (2011)
         Al-Ar : Obtained from the ccRepo (grant-hill.group.shef.ac.uk/ccrepo) Feb. 2017
                 D. E. Woon, T. H. Dunning, Jr., J. Chem. Phys. 98, 1358 (1993)
            Ca : Obtained from the Peterson Research Group Website (tyr0.chem.wsu.edu/~kipeters) Feb. 2017
                 J. Koput, K. A. Peterson, J. Phys. Chem. 106, 9595 (2002)
         Sc-Zn : Obtained from the ccRepo (grant-hill.group.shef.ac.uk/ccrepo) Feb. 2017
                 N. B. Balabanov, K. A. Peterson, J. Chem. Phys. 123, 064107 (2005)
                 N. B. Balabanov, K. A. Peterson, J. Chem. Phys. 125, 074110 (2006)
         Ga-Kr : Obtained from the ccRepo (grant-hill.group.shef.ac.uk/ccrepo) Feb. 2017
                 A. K. Wilson, D. E. Woon, K. A. Peterson, T. H. Dunning, Jr., J. Chem. Phys. 110, 7667 (1999)

----- AuxJ basis set information -----
Your calculation utilizes the AutoAux generation procedure.
  G. L. Stoychev, A. A. Auer, F. Neese, J. Chem. Theory Comput. 13, 554 (2017)

----- AuxC basis set information -----
Your calculation utilizes the AutoAux generation procedure.
  G. L. Stoychev, A. A. Auer, F. Neese, J. Chem. Theory Comput. 13, 554 (2017)

----- AuxJK basis set information -----
Your calculation utilizes the AutoAux generation procedure.
  G. L. Stoychev, A. A. Auer, F. Neese, J. Chem. Theory Comput. 13, 554 (2017)

================================================================================
                                        WARNINGS
                       Please study these warnings very carefully!
================================================================================

WARNING: Old DensityContainer found on disk!
         Will remove this file - 
         If you want to keep old densities, please start your calculation with a different basename. 


WARNING: your system is open-shell and RHF/RKS was chosen
  ===> : WILL SWITCH to UHF/UKS


INFO   : the flag for use of the SHARK integral package has been found!

================================================================================
                                       INPUT FILE
================================================================================
NAME = cc-pVDZ.inp
|  1> ! B3LYP cc-pVDZ AUTOAUX
|  2> %pal nprocs 16 end
|  3> *XYZFile 0 2 opt.xyz
|  4> %EPRNMR
|  5>         GTENSOR   TRUE
|  6>         NUCLEI    = ALL H {SHIFT, AISO, ADIP, AORB}
|  7>         ORI       CenterOfElCharge
|  8> END
|  9> 
| 10>                          ****END OF INPUT****
================================================================================

                       ****************************
                       * Single Point Calculation *
                       ****************************

---------------------------------
CARTESIAN COORDINATES (ANGSTROEM)
---------------------------------
  C      4.303993   -0.099044   -0.019986
  C      0.095379    0.041847   -0.250332
  C      0.727206   -1.205028   -0.115214
  C      2.122929   -1.212411   -0.043556
  C      2.874308   -0.020154   -0.101380
  C      2.228091    1.234157   -0.236580
  C      0.828539    1.228178   -0.309060
  H      2.668303   -2.150773    0.059972
  H      0.289670    2.170928   -0.414345
  C     -0.115666   -2.468406   -0.049589
  H     -0.784199   -2.484013   -0.930720
  H     -0.791676   -2.389160    0.822893
  C      0.636247   -3.799827    0.026362
  H      1.309912   -3.896981   -0.845049
  H      1.286422   -3.811728    0.920477
  C     -0.301843   -5.011708    0.074983
  H     -0.977280   -4.914794    0.945461
  H     -0.955453   -5.002515   -0.817199
  C      0.442407   -6.347212    0.151027
  H      1.079450   -6.399990    1.050835
  H      1.097598   -6.491215   -0.725436
  C      3.053158    2.505621   -0.293993
  H      3.669351    2.559915    0.622764
  H      3.788282    2.406081   -1.113865
  C      2.286495    3.819607   -0.461501
  H      1.683582    3.789097   -1.387366
  H      1.571864    3.952366    0.370090
  C      3.218416    5.039823   -0.514112
  H      3.844016    5.071239    0.400108
  H      3.946453    4.894522   -1.346232
  C      2.505214    6.343014   -0.678289
  H      1.561879    6.348293   -1.239679
  C      3.174852    7.653563   -0.417869
  H      3.874748    7.897348   -1.251684
  H      3.824892    7.567710    0.475950
  C      2.204128    8.830751   -0.238803
  H      1.570192    8.913846   -1.141092
  H      1.516816    8.605008    0.596374
  C      2.912091   10.163176    0.016523
  H      3.531850   10.118821    0.928896
  H      3.579244   10.430027   -0.821537
  C      5.515728   -0.175457    0.048577
  H      6.584104   -0.243307    0.110603
  H     -0.257066   -7.198161    0.187741
  H      2.190725   10.986727    0.143833
  H     -0.996407    0.085398   -0.311066

----------------------------
CARTESIAN COORDINATES (A.U.)
----------------------------
  NO LB      ZA    FRAG     MASS         X           Y           Z
   0 C     6.0000    0    12.011    8.133368   -0.187165   -0.037768
   1 C     6.0000    0    12.011    0.180239    0.079078   -0.473059
   2 C     6.0000    0    12.011    1.374220   -2.277173   -0.217723
   3 C     6.0000    0    12.011    4.011755   -2.291125   -0.082310
   4 C     6.0000    0    12.011    5.431655   -0.038085   -0.191581
   5 C     6.0000    0    12.011    4.210482    2.332219   -0.447072
   6 C     6.0000    0    12.011    1.565712    2.320921   -0.584040
   7 H     1.0000    0     1.008    5.042361   -4.064372    0.113331
   8 H     1.0000    0     1.008    0.547398    4.102459   -0.782998
   9 C     6.0000    0    12.011   -0.218578   -4.664611   -0.093709
  10 H     1.0000    0     1.008   -1.481922   -4.694104   -1.758806
  11 H     1.0000    0     1.008   -1.496052   -4.514858    1.555042
  12 C     6.0000    0    12.011    1.202332   -7.180633    0.049817
  13 H     1.0000    0     1.008    2.475375   -7.364228   -1.596911
  14 H     1.0000    0     1.008    2.430986   -7.203122    1.739450
  15 C     6.0000    0    12.011   -0.570401   -9.470755    0.141698
  16 H     1.0000    0     1.008   -1.846792   -9.287615    1.786663
  17 H     1.0000    0     1.008   -1.805544   -9.453382   -1.544282
  18 C     6.0000    0    12.011    0.836027  -11.994492    0.285399
  19 H     1.0000    0     1.008    2.039866  -12.094228    1.985790
  20 H     1.0000    0     1.008    2.074160  -12.266619   -1.370876
  21 C     6.0000    0    12.011    5.769632    4.734937   -0.555566
  22 H     1.0000    0     1.008    6.934068    4.837539    1.176852
  23 H     1.0000    0     1.008    7.158815    4.546834   -2.104900
  24 C     6.0000    0    12.011    4.320850    7.218011   -0.872110
  25 H     1.0000    0     1.008    3.181510    7.160355   -2.621742
  26 H     1.0000    0     1.008    2.970393    7.468889    0.699368
  27 C     6.0000    0    12.011    6.081926    9.523885   -0.971530
  28 H     1.0000    0     1.008    7.264138    9.583253    0.756095
  29 H     1.0000    0     1.008    7.457715    9.249306   -2.544009
  30 C     6.0000    0    12.011    4.734168   11.986560   -1.281780
  31 H     1.0000    0     1.008    2.951523   11.996535   -2.342654
  32 C     6.0000    0    12.011    5.999601   14.463137   -0.789657
  33 H     1.0000    0     1.008    7.322213   14.923825   -2.365340
  34 H     1.0000    0     1.008    7.227999   14.300899    0.899416
  35 C     6.0000    0    12.011    4.165199   16.687701   -0.451272
  36 H     1.0000    0     1.008    2.967233   16.844727   -2.156351
  37 H     1.0000    0     1.008    2.866366   16.261108    1.126983
  38 C     6.0000    0    12.011    5.503055   19.205619    0.031224
  39 H     1.0000    0     1.008    6.674230   19.121801    1.755359
  40 H     1.0000    0     1.008    6.763791   19.709896   -1.552480
  41 C     6.0000    0    12.011   10.423215   -0.331566    0.091797
  42 H     1.0000    0     1.008   12.442153   -0.459784    0.209009
  43 H     1.0000    0     1.008   -0.485785  -13.602553    0.354779
  44 H     1.0000    0     1.008    4.139869   20.761905    0.271806
  45 H     1.0000    0     1.008   -1.882936    0.161379   -0.587830

--------------------------------
INTERNAL COORDINATES (ANGSTROEM)
--------------------------------
 C      0   0   0     0.000000000000     0.00000000     0.00000000
 C      1   0   0     4.217267605314     0.00000000     0.00000000
 C      2   1   0     1.404335839355    61.05917944     0.00000000
 C      3   2   1     1.397581289152   117.31855105   359.93081548
 C      4   3   2     1.410457667856   121.69815711     0.11280711
 C      5   4   3     1.417452211844   120.60070249   359.94306814
 C      2   1   3     1.395835449026    60.43048081   179.97823380
 H      4   3   2     1.090263092744   120.59538612   180.10419748
 H      7   2   1     1.090981785792   118.62367839   179.98227717
 C      3   2   1     1.520152664705   119.51119788   179.74922628
 H     10   3   2     1.106152145971   108.20656321    53.65462085
 H     10   3   2     1.106568332075   108.25502794   300.29265110
 C     10   3   2     1.530955288703   116.90996100   176.98913102
 H     13  10   3     1.105722139290   109.66648721   302.49624649
 H     13  10   3     1.105582149477   109.77419113    58.74925706
 C     13  10   3     1.533307519737   112.85800538   180.55849391
 H     16  13  10     1.106046784222   109.22748351   302.30666372
 H     16  13  10     1.106019083694   109.23256118    57.65818003
 C     16  13  10     1.530771518507   113.18292093   179.99942115
 H     19  16  13     1.103750193219   111.27394370    59.69080120
 H     19  16  13     1.103721263703   111.28414851   299.98960799
 C      6   5   4     1.516789682418   119.82821011   179.86898971
 H     22   6   5     1.105931011271   108.23126521   302.70895442
 H     22   6   5     1.105670120289   108.31613910    55.34037549
 C     22   6   5     1.530486753679   116.82974887   179.12097525
 H     25  22   6     1.105288044218   109.95170627   301.81226574
 H     25  22   6     1.104475093840   110.17614524    58.68228741
 C     25  22   6     1.536285203199   112.44463511   180.27562253
 H     28  25  22     1.108224109920   109.67589191   303.25821190
 H     28  25  22     1.115156146016   108.54752561    56.88788539
 C     28  25  22     1.494630551553   114.00612795   179.95834673
 H     31  28  25     1.097755836451   118.06150904   329.04861691
 C     31  28  25     1.494580520597   122.11484849   164.61718009
 H     33  31  28     1.115586911276   110.02797811    74.78797326
 H     33  31  28     1.108528193491   109.59174295   320.32599168
 C     33  31  28     1.536275400507   114.14916441   196.93810627
 H     36  33  31     1.105850040393   108.94728716   302.67732659
 H     36  33  31     1.104934005282   108.94123051    57.87595306
 C     36  33  31     1.530280503978   113.22300645   180.41624551
 H     39  36  33     1.103853937675   111.26410751   300.31032679
 H     39  36  33     1.103923792860   111.30930330    59.97330787
 C      1   2   3     1.216076144828   178.30857588     1.10884777
 H     42   1   5     1.072323332254   179.91234577   284.13399622
 H     19  16  13     1.102145667214   111.51164448   179.82761984
 H     39  36  33     1.102186211315   111.53521094   180.17984320
 H      2   1   3     1.094340127783   179.63013783   183.26556386

---------------------------
INTERNAL COORDINATES (A.U.)
---------------------------
 C      0   0   0     0.000000000000     0.00000000     0.00000000
 C      1   0   0     7.969480807502     0.00000000     0.00000000
 C      2   1   0     2.653810136432    61.05917944     0.00000000
 C      3   2   1     2.641045886390   117.31855105   359.93081548
 C      4   3   2     2.665378715737   121.69815711     0.11280711
 C      5   4   3     2.678596488306   120.60070249   359.94306814
 C      2   1   3     2.637746726678    60.43048081   179.97823380
 H      4   3   2     2.060298659208   120.59538612   180.10419748
 H      7   2   1     2.061656792244   118.62367839   179.98227717
 C      3   2   1     2.872672218043   119.51119788   179.74922628
 H     10   3   2     2.090324618335   108.20656321    53.65462085
 H     10   3   2     2.091111096091   108.25502794   300.29265110
 C     10   3   2     2.893086218928   116.90996100   176.98913102
 H     13  10   3     2.089512023472   109.66648721   302.49624649
 H     13  10   3     2.089247481064   109.77419113    58.74925706
 C     13  10   3     2.897531291385   112.85800538   180.55849391
 H     16  13  10     2.090125513485   109.22748351   302.30666372
 H     16  13  10     2.090073167072   109.23256118    57.65818003
 C     16  13  10     2.892738943585   113.18292093   179.99942115
 H     19  16  13     2.085785585446   111.27394370    59.69080120
 H     19  16  13     2.085730916585   111.28414851   299.98960799
 C      6   5   4     2.866317102528   119.82821011   179.86898971
 H     22   6   5     2.089906734314   108.23126521   302.70895442
 H     22   6   5     2.089413721806   108.31613910    55.34037549
 C     22   6   5     2.892200816048   116.82974887   179.12097525
 H     25  22   6     2.088691702669   109.95170627   301.81226574
 H     25  22   6     2.087155449095   110.17614524    58.68228741
 C     25  22   6     2.903158297642   112.44463511   180.27562253
 H     28  25  22     2.094240062757   109.67589191   303.25821190
 H     28  25  22     2.107339712530   108.54752561    56.88788539
 C     28  25  22     2.824442413826   114.00612795   179.95834673
 H     31  28  25     2.074457892805   118.06150904   329.04861691
 C     31  28  25     2.824347869022   122.11484849   164.61718009
 H     33  31  28     2.108153740899   110.02797811    74.78797326
 H     33  31  28     2.094814697429   109.59174295   320.32599168
 C     33  31  28     2.903139773239   114.14916441   196.93810627
 H     36  33  31     2.089753721529   108.94728716   302.67732659
 H     36  33  31     2.088022666040   108.94123051    57.87595306
 C     36  33  31     2.891811060598   113.22300645   180.41624551
 H     39  36  33     2.085981634057   111.26410751   300.31032679
 H     39  36  33     2.086113641225   111.30930330    59.97330787
 C      1   2   3     2.298050871720   178.30857588     1.10884777
 H     42   1   5     2.026397424974   179.91234577   284.13399622
 H     19  16  13     2.082753470722   111.51164448   179.82761984
 H     39  36  33     2.082830087969   111.53521094   180.17984320
 H      2   1   3     2.068003138871   179.63013783   183.26556386

---------------------
BASIS SET INFORMATION
---------------------
There are 2 groups of distinct atoms

 Group   1 Type C   : 17s4p1d contracted to 3s2p1d pattern {881/31/1}
 Group   2 Type H   : 4s1p contracted to 2s1p pattern {31/1}

Atom   0C    basis set group =>   1
Atom   1C    basis set group =>   1
Atom   2C    basis set group =>   1
Atom   3C    basis set group =>   1
Atom   4C    basis set group =>   1
Atom   5C    basis set group =>   1
Atom   6C    basis set group =>   1
Atom   7H    basis set group =>   2
Atom   8H    basis set group =>   2
Atom   9C    basis set group =>   1
Atom  10H    basis set group =>   2
Atom  11H    basis set group =>   2
Atom  12C    basis set group =>   1
Atom  13H    basis set group =>   2
Atom  14H    basis set group =>   2
Atom  15C    basis set group =>   1
Atom  16H    basis set group =>   2
Atom  17H    basis set group =>   2
Atom  18C    basis set group =>   1
Atom  19H    basis set group =>   2
Atom  20H    basis set group =>   2
Atom  21C    basis set group =>   1
Atom  22H    basis set group =>   2
Atom  23H    basis set group =>   2
Atom  24C    basis set group =>   1
Atom  25H    basis set group =>   2
Atom  26H    basis set group =>   2
Atom  27C    basis set group =>   1
Atom  28H    basis set group =>   2
Atom  29H    basis set group =>   2
Atom  30C    basis set group =>   1
Atom  31H    basis set group =>   2
Atom  32C    basis set group =>   1
Atom  33H    basis set group =>   2
Atom  34H    basis set group =>   2
Atom  35C    basis set group =>   1
Atom  36H    basis set group =>   2
Atom  37H    basis set group =>   2
Atom  38C    basis set group =>   1
Atom  39H    basis set group =>   2
Atom  40H    basis set group =>   2
Atom  41C    basis set group =>   1
Atom  42H    basis set group =>   2
Atom  43H    basis set group =>   2
Atom  44H    basis set group =>   2
Atom  45H    basis set group =>   2
---------------------------------
AUXILIARY/J BASIS SET INFORMATION
---------------------------------
There are 2 groups of distinct atoms

 Group   1 Type C   : 14s11p10d2f contracted to 14s11p10d2f pattern {11111111111111/11111111111/1111111111/11}
 Group   2 Type H   : 9s2p1d contracted to 9s2p1d pattern {111111111/11/1}

Atom   0C    basis set group =>   1
Atom   1C    basis set group =>   1
Atom   2C    basis set group =>   1
Atom   3C    basis set group =>   1
Atom   4C    basis set group =>   1
Atom   5C    basis set group =>   1
Atom   6C    basis set group =>   1
Atom   7H    basis set group =>   2
Atom   8H    basis set group =>   2
Atom   9C    basis set group =>   1
Atom  10H    basis set group =>   2
Atom  11H    basis set group =>   2
Atom  12C    basis set group =>   1
Atom  13H    basis set group =>   2
Atom  14H    basis set group =>   2
Atom  15C    basis set group =>   1
Atom  16H    basis set group =>   2
Atom  17H    basis set group =>   2
Atom  18C    basis set group =>   1
Atom  19H    basis set group =>   2
Atom  20H    basis set group =>   2
Atom  21C    basis set group =>   1
Atom  22H    basis set group =>   2
Atom  23H    basis set group =>   2
Atom  24C    basis set group =>   1
Atom  25H    basis set group =>   2
Atom  26H    basis set group =>   2
Atom  27C    basis set group =>   1
Atom  28H    basis set group =>   2
Atom  29H    basis set group =>   2
Atom  30C    basis set group =>   1
Atom  31H    basis set group =>   2
Atom  32C    basis set group =>   1
Atom  33H    basis set group =>   2
Atom  34H    basis set group =>   2
Atom  35C    basis set group =>   1
Atom  36H    basis set group =>   2
Atom  37H    basis set group =>   2
Atom  38C    basis set group =>   1
Atom  39H    basis set group =>   2
Atom  40H    basis set group =>   2
Atom  41C    basis set group =>   1
Atom  42H    basis set group =>   2
Atom  43H    basis set group =>   2
Atom  44H    basis set group =>   2
Atom  45H    basis set group =>   2
---------------------------------
AUXILIARY/C BASIS SET INFORMATION
---------------------------------
There are 2 groups of distinct atoms

 Group   1 Type C   : 14s11p10d2f contracted to 14s11p10d2f pattern {11111111111111/11111111111/1111111111/11}
 Group   2 Type H   : 9s2p1d contracted to 9s2p1d pattern {111111111/11/1}

Atom   0C    basis set group =>   1
Atom   1C    basis set group =>   1
Atom   2C    basis set group =>   1
Atom   3C    basis set group =>   1
Atom   4C    basis set group =>   1
Atom   5C    basis set group =>   1
Atom   6C    basis set group =>   1
Atom   7H    basis set group =>   2
Atom   8H    basis set group =>   2
Atom   9C    basis set group =>   1
Atom  10H    basis set group =>   2
Atom  11H    basis set group =>   2
Atom  12C    basis set group =>   1
Atom  13H    basis set group =>   2
Atom  14H    basis set group =>   2
Atom  15C    basis set group =>   1
Atom  16H    basis set group =>   2
Atom  17H    basis set group =>   2
Atom  18C    basis set group =>   1
Atom  19H    basis set group =>   2
Atom  20H    basis set group =>   2
Atom  21C    basis set group =>   1
Atom  22H    basis set group =>   2
Atom  23H    basis set group =>   2
Atom  24C    basis set group =>   1
Atom  25H    basis set group =>   2
Atom  26H    basis set group =>   2
Atom  27C    basis set group =>   1
Atom  28H    basis set group =>   2
Atom  29H    basis set group =>   2
Atom  30C    basis set group =>   1
Atom  31H    basis set group =>   2
Atom  32C    basis set group =>   1
Atom  33H    basis set group =>   2
Atom  34H    basis set group =>   2
Atom  35C    basis set group =>   1
Atom  36H    basis set group =>   2
Atom  37H    basis set group =>   2
Atom  38C    basis set group =>   1
Atom  39H    basis set group =>   2
Atom  40H    basis set group =>   2
Atom  41C    basis set group =>   1
Atom  42H    basis set group =>   2
Atom  43H    basis set group =>   2
Atom  44H    basis set group =>   2
Atom  45H    basis set group =>   2
----------------------------------
AUXILIARY/JK BASIS SET INFORMATION
----------------------------------
There are 2 groups of distinct atoms

 Group   1 Type C   : 14s11p10d2f contracted to 14s11p10d2f pattern {11111111111111/11111111111/1111111111/11}
 Group   2 Type H   : 9s2p1d contracted to 9s2p1d pattern {111111111/11/1}

Atom   0C    basis set group =>   1
Atom   1C    basis set group =>   1
Atom   2C    basis set group =>   1
Atom   3C    basis set group =>   1
Atom   4C    basis set group =>   1
Atom   5C    basis set group =>   1
Atom   6C    basis set group =>   1
Atom   7H    basis set group =>   2
Atom   8H    basis set group =>   2
Atom   9C    basis set group =>   1
Atom  10H    basis set group =>   2
Atom  11H    basis set group =>   2
Atom  12C    basis set group =>   1
Atom  13H    basis set group =>   2
Atom  14H    basis set group =>   2
Atom  15C    basis set group =>   1
Atom  16H    basis set group =>   2
Atom  17H    basis set group =>   2
Atom  18C    basis set group =>   1
Atom  19H    basis set group =>   2
Atom  20H    basis set group =>   2
Atom  21C    basis set group =>   1
Atom  22H    basis set group =>   2
Atom  23H    basis set group =>   2
Atom  24C    basis set group =>   1
Atom  25H    basis set group =>   2
Atom  26H    basis set group =>   2
Atom  27C    basis set group =>   1
Atom  28H    basis set group =>   2
Atom  29H    basis set group =>   2
Atom  30C    basis set group =>   1
Atom  31H    basis set group =>   2
Atom  32C    basis set group =>   1
Atom  33H    basis set group =>   2
Atom  34H    basis set group =>   2
Atom  35C    basis set group =>   1
Atom  36H    basis set group =>   2
Atom  37H    basis set group =>   2
Atom  38C    basis set group =>   1
Atom  39H    basis set group =>   2
Atom  40H    basis set group =>   2
Atom  41C    basis set group =>   1
Atom  42H    basis set group =>   2
Atom  43H    basis set group =>   2
Atom  44H    basis set group =>   2
Atom  45H    basis set group =>   2

Checking for AutoStart:
The File: cc-pVDZ.gbw exists
Trying to determine its content:
     ... Fine, the file contains calculation information
     ... Fine, the calculation information was read
     ... Fine, the file contains a basis set
     ... Fine, the basis set was read
     ... Fine, the file contains a geometry
     ... Fine, the geometry was read
     ... Fine, the file contains a set of orbitals
     ... Fine, the orbitals can be read
     => possible old guess file was deleted
     => GBW file was renamed to GES file
     => GES file is set as startup file
     => Guess is set to MORead
     ... now leaving AutoStart



           ************************************************************
           *        Program running with 16 parallel MPI-processes    *
           *              working on a common directory               *
           ************************************************************
------------------------------------------------------------------------------
                           ORCA GTO INTEGRAL CALCULATION
                           -- RI-GTO INTEGRALS CHOSEN --
------------------------------------------------------------------------------
------------------------------------------------------------------------------
                   ___                                                        
                  /   \      - P O W E R E D   B Y -                         
                 /     \                                                     
                 |  |  |   _    _      __       _____    __    __             
                 |  |  |  | |  | |    /  \     |  _  \  |  |  /  |          
                  \  \/   | |  | |   /    \    | | | |  |  | /  /          
                 / \  \   | |__| |  /  /\  \   | |_| |  |  |/  /          
                |  |  |   |  __  | /  /__\  \  |    /   |      \           
                |  |  |   | |  | | |   __   |  |    \   |  |\   \          
                \     /   | |  | | |  |  |  |  | |\  \  |  | \   \       
                 \___/    |_|  |_| |__|  |__|  |_| \__\ |__|  \__/        
                                                                              
                      - O R C A' S   B I G   F R I E N D -                    
                                      &                                       
                       - I N T E G R A L  F E E D E R -                       
                                                                              
 v1 FN, 2020, v2 2021                                                         
------------------------------------------------------------------------------


Reading SHARK input file cc-pVDZ.SHARKINP.tmp ... ok
----------------------
SHARK INTEGRAL PACKAGE
----------------------

Number of atoms                             ...     46
Number of basis functions                   ...    515
Number of shells                            ...    309
Maximum angular momentum                    ...      2
Integral batch strategy                     ... SHARK/LIBINT Hybrid
RI-J (if used) integral strategy            ... SPLIT-RIJ (Revised 2003 algorithm where possible)
Printlevel                                  ...      1
Contraction scheme used                     ... PARTIAL GENERAL contraction
Coulomb Range Separation                    ... NOT USED
Exchange Range Separation                   ... NOT USED
Finite Nucleus Model                        ... NOT USED
Auxiliary Coulomb fitting basis             ... AVAILABLE
   # of basis functions in Aux-J            ...   2649
   # of shells in Aux-J                     ...   1027
   Maximum angular momentum in Aux-J        ...      3
Auxiliary J/K fitting basis                 ... AVAILABLE
   # of basis functions in Aux-JK           ...   2649
   # of shells in Aux-JK                    ...   1027
   Maximum angular momentum in Aux-JK       ...      3
Auxiliary Correlation fitting basis         ... AVAILABLE
   # of basis functions in Aux-C            ...   2649
   # of shells in Aux-C                     ...   1027
   Maximum angular momentum in Aux-C        ...      3
Auxiliary 'external' fitting basis          ... NOT available
Integral threshold                          ...     1.000000e-10
Primitive cut-off                           ...     1.000000e-11
Primitive pair pre-selection threshold      ...     1.000000e-11

Calculating pre-screening integrals         ... done (  0.0 sec) Dimension = 309
Calculating pre-screening integrals (ORCA)  ... done (  0.1 sec) Dimension = 195
Organizing shell pair data                  ... done (  0.1 sec)
Shell pair information
Total number of shell pairs                 ...     47895
Shell pairs after pre-screening             ...     20182
Total number of primitive shell pairs       ...     80739
Primitive shell pairs kept                  ...     28321
          la=0 lb=0:   9049 shell pairs
          la=1 lb=0:   7075 shell pairs
          la=1 lb=1:   1246 shell pairs
          la=2 lb=0:   1988 shell pairs
          la=2 lb=1:    712 shell pairs
          la=2 lb=2:    112 shell pairs

Calculating one electron integrals          ... done (  0.0 sec)
Calculating RI/J V-Matrix + Cholesky decomp.... done (  0.6 sec)
Calculating RI/JK V-Matrix + Cholesky decomp... done (  0.6 sec)
Calculating RI/C V-Matrix + Cholesky decomp.... done (  0.5 sec)
Calculating Nuclear repulsion               ... done (  0.0 sec) ENN=   1246.903824399165 Eh

SHARK setup successfully completed in   2.5 seconds

Maximum memory used throughout the entire GTOINT-calculation: 32.2 MB


           ************************************************************
           *        Program running with 16 parallel MPI-processes    *
           *              working on a common directory               *
           ************************************************************
-------------------------------------------------------------------------------
                                 ORCA SCF
-------------------------------------------------------------------------------

------------
SCF SETTINGS
------------
Hamiltonian:
 Density Functional     Method          .... DFT(GTOs)
 Exchange Functional    Exchange        .... B88
   X-Alpha parameter    XAlpha          ....  0.666667
   Becke's b parameter  XBeta           ....  0.004200
 Correlation Functional Correlation     .... LYP
 LDA part of GGA corr.  LDAOpt          .... VWN-5
 Gradients option       PostSCFGGA      .... off
 Hybrid DFT is turned on
   Fraction HF Exchange ScalHFX         ....  0.200000
   Scaling of DF-GGA-X  ScalDFX         ....  0.720000
   Scaling of DF-GGA-C  ScalDFC         ....  0.810000
   Scaling of DF-LDA-C  ScalLDAC        ....  1.000000
   Perturbative correction              ....  0.000000
   Density functional embedding theory  .... OFF
   NL short-range parameter             ....  4.800000
 RI-approximation to the Coulomb term is turned on
   Number of AuxJ basis functions       .... 2649
   RIJ-COSX (HFX calculated with COS-X)).... on


General Settings:
 Integral files         IntName         .... cc-pVDZ
 Hartree-Fock type      HFTyp           .... UHF
 Total Charge           Charge          ....    0
 Multiplicity           Mult            ....    2
 Number of Electrons    NEL             ....  141
 Basis Dimension        Dim             ....  401
 Nuclear Repulsion      ENuc            ....   1246.9038243992 Eh

Convergence Acceleration:
 DIIS                   CNVDIIS         .... on
   Start iteration      DIISMaxIt       ....    12
   Startup error        DIISStart       ....  0.200000
   # of expansion vecs  DIISMaxEq       ....     5
   Bias factor          DIISBfac        ....   1.050
   Max. coefficient     DIISMaxC        ....  10.000
 Trust-Rad. Augm. Hess. CNVTRAH         .... auto
   Auto Start mean grad. ratio tolernc. ....  1.125000
   Auto Start start iteration           ....     1
   Auto Start num. interpolation iter.  ....    10
   Max. Number of Micro iterations      ....    16
   Max. Number of Macro iterations      .... Maxiter - #DIIS iter
   Number of Davidson start vectors     ....     2
   Converg. threshold I  (grad. norm)   ....   5.000e-05
   Converg. threshold II (energy diff.) ....   1.000e-06
   Grad. Scal. Fac. for Micro threshold ....   0.100
   Minimum threshold for Micro iter.    ....   0.010
   NR start threshold (gradient norm)   ....   0.001
   Initial trust radius                 ....   0.400
   Minimum AH scaling param. (alpha)    ....   1.000
   Maximum AH scaling param. (alpha)    .... 1000.000
   Orbital update algorithm             .... Taylor
   White noise on init. David. guess    .... on
   Maximum white noise                  ....   0.010
   Quad. conv. algorithm                .... NR
 SOSCF                  CNVSOSCF        .... off
 Level Shifting         CNVShift        .... on
   Level shift para.    LevelShift      ....    0.2500
   Turn off err/grad.   ShiftErr        ....    0.0010
 Zerner damping         CNVZerner       .... off
 Static damping         CNVDamp         .... on
   Fraction old density DampFac         ....    0.7000
   Max. Damping (<1)    DampMax         ....    0.9800
   Min. Damping (>=0)   DampMin         ....    0.0000
   Turn off err/grad.   DampErr         ....    0.1000
 Fernandez-Rico         CNVRico         .... off

SCF Procedure:
 Maximum # iterations   MaxIter         ....   125
 SCF integral mode      SCFMode         .... Direct
   Integral package                     .... SHARK and LIBINT hybrid scheme
 Reset frequency        DirectResetFreq ....    20
 Integral Threshold     Thresh          ....  1.000e-10 Eh
 Primitive CutOff       TCut            ....  1.000e-11 Eh

Convergence Tolerance:
 Convergence Check Mode ConvCheckMode   .... Total+1el-Energy
 Convergence forced     ConvForced      .... 0
 Energy Change          TolE            ....  1.000e-06 Eh
 1-El. energy change                    ....  1.000e-03 Eh
 DIIS Error             TolErr          ....  1.000e-06


Diagonalization of the overlap matrix:
Smallest eigenvalue                        ... 1.539e-04
Time for diagonalization                   ...    0.040 sec
Threshold for overlap eigenvalues          ... 1.000e-08
Number of eigenvalues below threshold      ... 0
Time for construction of square roots      ...    0.038 sec
Total time needed                          ...    0.080 sec

---------------------
INITIAL GUESS: MOREAD
---------------------
Guess MOs are being read from file: cc-pVDZ.ges
Input Geometry matches current geometry (good)
Input basis set matches current basis set (good)
MOs were renormalized
MOs were reorthogonalized (Cholesky)
                      ------------------
                      INITIAL GUESS DONE (   0.2 sec)
                      ------------------
-------------------
DFT GRID GENERATION
-------------------

General Integration Accuracy     IntAcc      ... 4.388
Radial Grid Type                 RadialGrid  ... OptM3 with GC (2021)
Angular Grid (max. ang.)         AngularGrid ... 4 (Lebedev-302)
Angular grid pruning method      GridPruning ... 4 (adaptive)
Weight generation scheme         WeightScheme... Becke
Basis function cutoff            BFCut       ... 1.0000e-10
Integration weight cutoff        WCut        ... 1.0000e-14
Angular grids for H and He will be reduced by one unit
Partially contracted basis set               ... off
Rotationally invariant grid construction     ... off

Total number of grid points                  ...   199722
Total number of batches                      ...     3144
Average number of points per batch           ...       63
Average number of grid points per atom       ...     4342
Time for grid setup =    1.130 sec

--------------------
COSX GRID GENERATION
--------------------

GRIDX 1
-------
General Integration Accuracy     IntAcc      ... 3.816
Radial Grid Type                 RadialGrid  ... OptM3 with GC (2021)
Angular Grid (max. ang.)         AngularGrid ... 1 (Lebedev-50)
Angular grid pruning method      GridPruning ... 4 (adaptive)
Weight generation scheme         WeightScheme... Becke
Basis function cutoff            BFCut       ... 1.0000e-10
Integration weight cutoff        WCut        ... 1.0000e-14
Angular grids for H and He will be reduced by one unit
Partially contracted basis set               ... on
Rotationally invariant grid construction     ... off

Total number of grid points                  ...    25504
Total number of batches                      ...      424
Average number of points per batch           ...       60
Average number of grid points per atom       ...      554
UseSFitting                                  ... on

GRIDX 2
-------
General Integration Accuracy     IntAcc      ... 4.020
Radial Grid Type                 RadialGrid  ... OptM3 with GC (2021)
Angular Grid (max. ang.)         AngularGrid ... 2 (Lebedev-110)
Angular grid pruning method      GridPruning ... 4 (adaptive)
Weight generation scheme         WeightScheme... Becke
Basis function cutoff            BFCut       ... 1.0000e-10
Integration weight cutoff        WCut        ... 1.0000e-14
Angular grids for H and He will be reduced by one unit
Partially contracted basis set               ... on
Rotationally invariant grid construction     ... off

Total number of grid points                  ...    53567
Total number of batches                      ...      862
Average number of points per batch           ...       62
Average number of grid points per atom       ...     1164
UseSFitting                                  ... on

GRIDX 3
-------
General Integration Accuracy     IntAcc      ... 4.338
Radial Grid Type                 RadialGrid  ... OptM3 with GC (2021)
Angular Grid (max. ang.)         AngularGrid ... 3 (Lebedev-194)
Angular grid pruning method      GridPruning ... 4 (adaptive)
Weight generation scheme         WeightScheme... Becke
Basis function cutoff            BFCut       ... 1.0000e-10
Integration weight cutoff        WCut        ... 1.0000e-14
Angular grids for H and He will be reduced by one unit
Partially contracted basis set               ... on
Rotationally invariant grid construction     ... off

Total number of grid points                  ...   116746
Total number of batches                      ...     1847
Average number of points per batch           ...       63
Average number of grid points per atom       ...     2538
UseSFitting                                  ... on

Time for X-Grid setup             =    2.163 sec

 re-compute Schwartz prescreening matrix in partically contracted basis (1) ...done (   0.120 sec)
--------------
SCF ITERATIONS
--------------
ITER       Energy         Delta-E        Max-DP      RMS-DP      [F,P]     Damp
               ***  Starting incremental Fock matrix formation  ***
  0   -739.6954552553   0.000000000000 0.00001068  0.00000016  0.0000365 0.7000
                 **** Energy Check signals convergence ****

               *****************************************************
               *                     SUCCESS                       *
               *           SCF CONVERGED AFTER   1 CYCLES          *
               *****************************************************

Old exchange energy                            =    -21.608699485 Eh
New exchange energy                            =    -21.608691708 Eh
Exchange energy change after final integration =      0.000007776 Eh
Total energy after final integration           =   -739.695447487 Eh
Final COS-X integration done in                =     5.602 sec

----------------
TOTAL SCF ENERGY
----------------

Total Energy       :         -739.69544749 Eh          -20128.13642 eV

Components:
Nuclear Repulsion  :         1246.90382440 Eh           33929.97803 eV
Electronic Energy  :        -1986.59927189 Eh          -54058.11445 eV
One Electron Energy:        -3471.59968996 Eh          -94467.03017 eV
Two Electron Energy:         1485.00041808 Eh           40408.91573 eV
Max COSX asymmetry :            0.00000048 Eh               0.00001 eV

Virial components:
Potential Energy   :        -1473.97968168 Eh          -40109.02624 eV
Kinetic Energy     :          734.28423420 Eh           19980.88982 eV
Virial Ratio       :            2.00736937


DFT components:
N(Alpha)           :       71.000045489124 electrons
N(Beta)            :       70.000046728316 electrons
N(Total)           :      141.000092217440 electrons
E(X)               :      -85.625047297142 Eh       
E(C)               :       -5.415284812018 Eh       
E(XC)              :      -91.040332109160 Eh       
DFET-embed. en.    :        0.000000000000 Eh       

---------------
SCF CONVERGENCE
---------------

  Last Energy change         ...   -7.5551e-09  Tolerance :   1.0000e-06
  Last MAX-Density change    ...    3.9145e-06  Tolerance :   1.0000e-05
  Last RMS-Density change    ...    5.3678e-08  Tolerance :   1.0000e-06
  Last DIIS Error            ...    1.6959e-05  Tolerance :   1.0000e-06

             **** THE GBW FILE WAS UPDATED (cc-pVDZ.gbw) ****
             **** DENSITY cc-pVDZ.scfp WAS UPDATED ****
             **** ENERGY FILE WAS UPDATED (cc-pVDZ.en.tmp) ****
----------------------
UHF SPIN CONTAMINATION
----------------------

Warning: in a DFT calculation there is little theoretical justification to 
         calculate <S**2> as in Hartree-Fock theory. We will do it anyways
         but you should keep in mind that the values have only limited relevance

Expectation value of <S**2>     :     0.754004
Ideal value S*(S+1) for S=0.5   :     0.750000
Deviation                       :     0.004004

             **** THE GBW FILE WAS UPDATED (cc-pVDZ.gbw) ****
             **** DENSITY cc-pVDZ.scfp WAS UPDATED ****
----------------
ORBITAL ENERGIES
----------------
                 SPIN UP ORBITALS
  NO   OCC          E(Eh)            E(eV) 
   0   1.0000     -10.205347      -277.7016 
   1   1.0000     -10.195780      -277.4413 
   2   1.0000     -10.191989      -277.3381 
   3   1.0000     -10.187601      -277.2187 
   4   1.0000     -10.186892      -277.1994 
   5   1.0000     -10.186269      -277.1825 
   6   1.0000     -10.185022      -277.1485 
   7   1.0000     -10.184052      -277.1221 
   8   1.0000     -10.183507      -277.1073 
   9   1.0000     -10.182743      -277.0865 
  10   1.0000     -10.182078      -277.0684 
  11   1.0000     -10.181439      -277.0510 
  12   1.0000     -10.181369      -277.0491 
  13   1.0000     -10.181168      -277.0437 
  14   1.0000     -10.181119      -277.0423 
  15   1.0000     -10.180761      -277.0326 
  16   1.0000     -10.179317      -276.9933 
  17   1.0000     -10.175715      -276.8953 
  18   1.0000     -10.173856      -276.8447 
  19   1.0000      -0.863614       -23.5001 
  20   1.0000      -0.813171       -22.1275 
  21   1.0000      -0.803395       -21.8615 
  22   1.0000      -0.784569       -21.3492 
  23   1.0000      -0.776587       -21.1320 
  24   1.0000      -0.758550       -20.6412 
  25   1.0000      -0.731676       -19.9099 
  26   1.0000      -0.721272       -19.6268 
  27   1.0000      -0.705020       -19.1846 
  28   1.0000      -0.672367       -18.2960 
  29   1.0000      -0.639167       -17.3926 
  30   1.0000      -0.617992       -16.8164 
  31   1.0000      -0.609288       -16.5796 
  32   1.0000      -0.584551       -15.9064 
  33   1.0000      -0.577374       -15.7111 
  34   1.0000      -0.561608       -15.2821 
  35   1.0000      -0.559902       -15.2357 
  36   1.0000      -0.525164       -14.2904 
  37   1.0000      -0.493270       -13.4226 
  38   1.0000      -0.470379       -12.7997 
  39   1.0000      -0.470121       -12.7926 
  40   1.0000      -0.467112       -12.7108 
  41   1.0000      -0.459831       -12.5126 
  42   1.0000      -0.453962       -12.3529 
  43   1.0000      -0.430250       -11.7077 
  44   1.0000      -0.426977       -11.6186 
  45   1.0000      -0.422254       -11.4901 
  46   1.0000      -0.419035       -11.4025 
  47   1.0000      -0.412973       -11.2376 
  48   1.0000      -0.406604       -11.0643 
  49   1.0000      -0.405034       -11.0215 
  50   1.0000      -0.383814       -10.4441 
  51   1.0000      -0.379706       -10.3323 
  52   1.0000      -0.374663       -10.1951 
  53   1.0000      -0.363531        -9.8922 
  54   1.0000      -0.361744        -9.8435 
  55   1.0000      -0.353809        -9.6276 
  56   1.0000      -0.349246        -9.5035 
  57   1.0000      -0.347246        -9.4490 
  58   1.0000      -0.333604        -9.0778 
  59   1.0000      -0.330668        -8.9979 
  60   1.0000      -0.327828        -8.9206 
  61   1.0000      -0.325682        -8.8623 
  62   1.0000      -0.323594        -8.8054 
  63   1.0000      -0.322576        -8.7777 
  64   1.0000      -0.321148        -8.7389 
  65   1.0000      -0.313036        -8.5181 
  66   1.0000      -0.298424        -8.1205 
  67   1.0000      -0.270306        -7.3554 
  68   1.0000      -0.240763        -6.5515 
  69   1.0000      -0.222498        -6.0545 
  70   1.0000      -0.180749        -4.9184 
  71   0.0000      -0.029952        -0.8150 
  72   0.0000       0.002665         0.0725 
  73   0.0000       0.049762         1.3541 
  74   0.0000       0.062055         1.6886 
  75   0.0000       0.064732         1.7614 
  76   0.0000       0.072430         1.9709 
  77   0.0000       0.076555         2.0832 
  78   0.0000       0.077199         2.1007 
  79   0.0000       0.082858         2.2547 
  80   0.0000       0.086539         2.3549 
  81   0.0000       0.093264         2.5378 
  82   0.0000       0.095968         2.6114 
  83   0.0000       0.097131         2.6431 
  84   0.0000       0.100710         2.7405 
  85   0.0000       0.104278         2.8376 
  86   0.0000       0.113181         3.0798 
  87   0.0000       0.115284         3.1370 
  88   0.0000       0.128145         3.4870 
  89   0.0000       0.136632         3.7180 
  90   0.0000       0.141549         3.8518 
  91   0.0000       0.148420         4.0387 
  92   0.0000       0.152344         4.1455 
  93   0.0000       0.157037         4.2732 
  94   0.0000       0.159202         4.3321 
  95   0.0000       0.160752         4.3743 
  96   0.0000       0.162011         4.4085 
  97   0.0000       0.167005         4.5444 
  98   0.0000       0.172295         4.6884 
  99   0.0000       0.178177         4.8484 
 100   0.0000       0.179200         4.8763 
 101   0.0000       0.184001         5.0069 
 102   0.0000       0.199341         5.4243 
 103   0.0000       0.203284         5.5316 
 104   0.0000       0.212213         5.7746 
 105   0.0000       0.216914         5.9025 
 106   0.0000       0.226183         6.1548 
 107   0.0000       0.233088         6.3426 
 108   0.0000       0.236665         6.4400 
 109   0.0000       0.240448         6.5429 
 110   0.0000       0.256259         6.9732 
 111   0.0000       0.271620         7.3911 
 112   0.0000       0.279859         7.6154 
 113   0.0000       0.287058         7.8113 
 114   0.0000       0.296326         8.0634 
 115   0.0000       0.329953         8.9785 
 116   0.0000       0.337621         9.1871 
 117   0.0000       0.353208         9.6113 
 118   0.0000       0.361328         9.8322 
 119   0.0000       0.374740        10.1972 
 120   0.0000       0.408797        11.1239 
 121   0.0000       0.412071        11.2130 
 122   0.0000       0.413536        11.2529 
 123   0.0000       0.416787        11.3414 
 124   0.0000       0.420547        11.4437 
 125   0.0000       0.420732        11.4487 
 126   0.0000       0.426071        11.5940 
 127   0.0000       0.437201        11.8968 
 128   0.0000       0.448545        12.2055 
 129   0.0000       0.455204        12.3867 
 130   0.0000       0.459239        12.4965 
 131   0.0000       0.463579        12.6146 
 132   0.0000       0.473497        12.8845 
 133   0.0000       0.480561        13.0767 
 134   0.0000       0.487263        13.2591 
 135   0.0000       0.489783        13.3277 
 136   0.0000       0.497461        13.5366 
 137   0.0000       0.503707        13.7066 
 138   0.0000       0.505224        13.7478 
 139   0.0000       0.518338        14.1047 
 140   0.0000       0.523684        14.2502 
 141   0.0000       0.526261        14.3203 
 142   0.0000       0.535501        14.5717 
 143   0.0000       0.536948        14.6111 
 144   0.0000       0.545913        14.8550 
 145   0.0000       0.555790        15.1238 
 146   0.0000       0.569044        15.4845 
 147   0.0000       0.574686        15.6380 
 148   0.0000       0.580844        15.8056 
 149   0.0000       0.598638        16.2898 
 150   0.0000       0.601929        16.3793 
 151   0.0000       0.609105        16.5746 
 152   0.0000       0.610950        16.6248 
 153   0.0000       0.615180        16.7399 
 154   0.0000       0.618983        16.8434 
 155   0.0000       0.627078        17.0637 
 156   0.0000       0.629401        17.1269 
 157   0.0000       0.634670        17.2703 
 158   0.0000       0.637888        17.3578 
 159   0.0000       0.642984        17.4965 
 160   0.0000       0.644876        17.5480 
 161   0.0000       0.646807        17.6005 
 162   0.0000       0.651270        17.7220 
 163   0.0000       0.656733        17.8706 
 164   0.0000       0.658234        17.9115 
 165   0.0000       0.658626        17.9221 
 166   0.0000       0.659680        17.9508 
 167   0.0000       0.661353        17.9963 
 168   0.0000       0.662883        18.0380 
 169   0.0000       0.665634        18.1128 
 170   0.0000       0.670544        18.2464 
 171   0.0000       0.672905        18.3107 
 172   0.0000       0.679236        18.4830 
 173   0.0000       0.683998        18.6125 
 174   0.0000       0.685528        18.6542 
 175   0.0000       0.690458        18.7883 
 176   0.0000       0.695340        18.9212 
 177   0.0000       0.697029        18.9671 
 178   0.0000       0.703006        19.1298 
 179   0.0000       0.706196        19.2166 
 180   0.0000       0.712801        19.3963 
 181   0.0000       0.714617        19.4457 
 182   0.0000       0.719728        19.5848 
 183   0.0000       0.721098        19.6221 
 184   0.0000       0.726278        19.7630 
 185   0.0000       0.731322        19.9003 
 186   0.0000       0.737416        20.0661 
 187   0.0000       0.743198        20.2234 
 188   0.0000       0.760940        20.7062 
 189   0.0000       0.766123        20.8473 
 190   0.0000       0.777229        21.1495 
 191   0.0000       0.779126        21.2011 
 192   0.0000       0.803471        21.8636 
 193   0.0000       0.813967        22.1492 
 194   0.0000       0.817126        22.2351 
 195   0.0000       0.834386        22.7048 
 196   0.0000       0.844579        22.9822 
 197   0.0000       0.851384        23.1673 
 198   0.0000       0.858399        23.3582 
 199   0.0000       0.878774        23.9127 
 200   0.0000       0.893001        24.2998 
 201   0.0000       0.901701        24.5365 
 202   0.0000       0.909239        24.7416 
 203   0.0000       0.926982        25.2245 
 204   0.0000       0.935352        25.4522 
 205   0.0000       0.974864        26.5274 
 206   0.0000       0.988999        26.9120 
 207   0.0000       0.995860        27.0987 
 208   0.0000       1.005331        27.3564 
 209   0.0000       1.008881        27.4531 
 210   0.0000       1.020119        27.7588 
 211   0.0000       1.031683        28.0735 
 212   0.0000       1.036519        28.2051 
 213   0.0000       1.048305        28.5258 
 214   0.0000       1.056224        28.7413 
 215   0.0000       1.058045        28.7909 
 216   0.0000       1.070552        29.1312 
 217   0.0000       1.082275        29.4502 
 218   0.0000       1.086838        29.5744 
 219   0.0000       1.103720        30.0337 
 220   0.0000       1.141541        31.0629 
 221   0.0000       1.152257        31.3545 
 222   0.0000       1.159654        31.5558 
 223   0.0000       1.190561        32.3968 
 224   0.0000       1.205556        32.8048 
 225   0.0000       1.206670        32.8352 
 226   0.0000       1.212746        33.0005 
 227   0.0000       1.215709        33.0811 
 228   0.0000       1.216299        33.0972 
 229   0.0000       1.218238        33.1499 
 230   0.0000       1.223947        33.3053 
 231   0.0000       1.225078        33.3361 
 232   0.0000       1.233092        33.5541 
 233   0.0000       1.248307        33.9682 
 234   0.0000       1.269596        34.5475 
 235   0.0000       1.286920        35.0189 
 236   0.0000       1.293164        35.1888 
 237   0.0000       1.312220        35.7073 
 238   0.0000       1.317884        35.8614 
 239   0.0000       1.320927        35.9442 
 240   0.0000       1.333520        36.2869 
 241   0.0000       1.339503        36.4497 
 242   0.0000       1.340608        36.4798 
 243   0.0000       1.351759        36.7832 
 244   0.0000       1.365472        37.1564 
 245   0.0000       1.386487        37.7282 
 246   0.0000       1.412130        38.4260 
 247   0.0000       1.415154        38.5083 
 248   0.0000       1.426429        38.8151 
 249   0.0000       1.427714        38.8501 
 250   0.0000       1.428404        38.8688 
 251   0.0000       1.432568        38.9822 
 252   0.0000       1.447859        39.3983 
 253   0.0000       1.462095        39.7856 
 254   0.0000       1.469904        39.9981 
 255   0.0000       1.472424        40.0667 
 256   0.0000       1.486555        40.4512 
 257   0.0000       1.495080        40.6832 
 258   0.0000       1.505014        40.9535 
 259   0.0000       1.508174        41.0395 
 260   0.0000       1.519025        41.3348 
 261   0.0000       1.526714        41.5440 
 262   0.0000       1.550875        42.2015 
 263   0.0000       1.554263        42.2936 
 264   0.0000       1.586469        43.1700 
 265   0.0000       1.594226        43.3811 
 266   0.0000       1.598090        43.4862 
 267   0.0000       1.605617        43.6910 
 268   0.0000       1.611153        43.8417 
 269   0.0000       1.619742        44.0754 
 270   0.0000       1.626754        44.2662 
 271   0.0000       1.628090        44.3026 
 272   0.0000       1.628732        44.3200 
 273   0.0000       1.631265        44.3890 
 274   0.0000       1.632746        44.4293 
 275   0.0000       1.639611        44.6161 
 276   0.0000       1.646030        44.7908 
 277   0.0000       1.647691        44.8360 
 278   0.0000       1.650912        44.9236 
 279   0.0000       1.659315        45.1522 
 280   0.0000       1.664634        45.2970 
 281   0.0000       1.666790        45.3557 
 282   0.0000       1.673350        45.5342 
 283   0.0000       1.678277        45.6682 
 284   0.0000       1.686882        45.9024 
 285   0.0000       1.689294        45.9680 
 286   0.0000       1.694817        46.1183 
 287   0.0000       1.696816        46.1727 
 288   0.0000       1.699184        46.2372 
 289   0.0000       1.703035        46.3419 
 290   0.0000       1.706348        46.4321 
 291   0.0000       1.714492        46.6537 
 292   0.0000       1.716499        46.7083 
 293   0.0000       1.718408        46.7603 
 294   0.0000       1.720113        46.8067 
 295   0.0000       1.726094        46.9694 
 296   0.0000       1.736088        47.2413 
 297   0.0000       1.744825        47.4791 
 298   0.0000       1.755124        47.7593 
 299   0.0000       1.759908        47.8895 
 300   0.0000       1.764088        48.0033 
 301   0.0000       1.767802        48.1043 
 302   0.0000       1.771641        48.2088 
 303   0.0000       1.777709        48.3739 
 304   0.0000       1.782126        48.4941 
 305   0.0000       1.795428        48.8561 
 306   0.0000       1.797081        48.9011 
 307   0.0000       1.799140        48.9571 
 308   0.0000       1.806705        49.1629 
 309   0.0000       1.822113        49.5822 
 310   0.0000       1.830496        49.8103 
 311   0.0000       1.842913        50.1482 
 312   0.0000       1.853836        50.4454 
 313   0.0000       1.859087        50.5883 
 314   0.0000       1.869000        50.8581 
 315   0.0000       1.873843        50.9899 
 316   0.0000       1.881636        51.2019 
 317   0.0000       1.894075        51.5404 
 318   0.0000       1.906089        51.8673 
 319   0.0000       1.918442        52.2035 
 320   0.0000       1.925983        52.4087 
 321   0.0000       1.945314        52.9347 
 322   0.0000       1.945466        52.9388 
 323   0.0000       1.962073        53.3907 
 324   0.0000       1.966352        53.5072 
 325   0.0000       1.972685        53.6795 
 326   0.0000       1.982590        53.9490 
 327   0.0000       1.996570        54.3294 
 328   0.0000       2.006461        54.5986 
 329   0.0000       2.015746        54.8512 
 330   0.0000       2.026559        55.1455 
 331   0.0000       2.042884        55.5897 
 332   0.0000       2.046039        55.6756 
 333   0.0000       2.053629        55.8821 
 334   0.0000       2.070030        56.3284 
 335   0.0000       2.089554        56.8597 
 336   0.0000       2.096799        57.0568 
 337   0.0000       2.102200        57.2038 
 338   0.0000       2.107141        57.3382 
 339   0.0000       2.118044        57.6349 
 340   0.0000       2.144141        58.3450 
 341   0.0000       2.154001        58.6133 
 342   0.0000       2.166933        58.9652 
 343   0.0000       2.170985        59.0755 
 344   0.0000       2.183352        59.4120 
 345   0.0000       2.196192        59.7614 
 346   0.0000       2.203026        59.9474 
 347   0.0000       2.213204        60.2243 
 348   0.0000       2.221897        60.4609 
 349   0.0000       2.230298        60.6895 
 350   0.0000       2.235596        60.8337 
 351   0.0000       2.244539        61.0770 
 352   0.0000       2.259938        61.4960 
 353   0.0000       2.267059        61.6898 
 354   0.0000       2.279972        62.0412 
 355   0.0000       2.283841        62.1465 
 356   0.0000       2.296362        62.4872 
 357   0.0000       2.306834        62.7722 
 358   0.0000       2.310220        62.8643 
 359   0.0000       2.316091        63.0240 
 360   0.0000       2.319645        63.1208 
 361   0.0000       2.330233        63.4089 
 362   0.0000       2.333607        63.5007 
 363   0.0000       2.344583        63.7993 
 364   0.0000       2.357352        64.1468 
 365   0.0000       2.377276        64.6890 
 366   0.0000       2.387800        64.9753 
 367   0.0000       2.406471        65.4834 
 368   0.0000       2.411599        65.6229 
 369   0.0000       2.412953        65.6598 
 370   0.0000       2.416607        65.7592 
 371   0.0000       2.428047        66.0705 
 372   0.0000       2.438117        66.3445 
 373   0.0000       2.444150        66.5087 
 374   0.0000       2.452738        66.7424 
 375   0.0000       2.477998        67.4298 
 376   0.0000       2.479436        67.4689 
 377   0.0000       2.488598        67.7182 
 378   0.0000       2.521841        68.6228 
 379   0.0000       2.530584        68.8607 
 380   0.0000       2.548799        69.3563 
 381   0.0000       2.556923        69.5774 
 382   0.0000       2.582974        70.2863 
 383   0.0000       2.599586        70.7383 
 384   0.0000       2.604757        70.8790 
 385   0.0000       2.645658        71.9920 
 386   0.0000       2.656873        72.2972 
 387   0.0000       2.663800        72.4857 
 388   0.0000       2.669977        72.6538 
 389   0.0000       2.711678        73.7885 
 390   0.0000       2.716246        73.9128 
 391   0.0000       2.729135        74.2636 
 392   0.0000       2.736968        74.4767 
 393   0.0000       2.740330        74.5682 
 394   0.0000       2.797495        76.1237 
 395   0.0000       2.813786        76.5670 
 396   0.0000       2.830425        77.0198 
 397   0.0000       2.884951        78.5035 
 398   0.0000       2.936171        79.8973 
 399   0.0000       3.196961        86.9937 
 400   0.0000       3.419826        93.0582 

                 SPIN DOWN ORBITALS
  NO   OCC          E(Eh)            E(eV) 
   0   1.0000     -10.205340      -277.7014 
   1   1.0000     -10.195788      -277.4415 
   2   1.0000     -10.191984      -277.3380 
   3   1.0000     -10.187601      -277.2187 
   4   1.0000     -10.186892      -277.1994 
   5   1.0000     -10.186271      -277.1825 
   6   1.0000     -10.185024      -277.1486 
   7   1.0000     -10.184046      -277.1220 
   8   1.0000     -10.183641      -277.1109 
   9   1.0000     -10.183492      -277.1069 
  10   1.0000     -10.182078      -277.0684 
  11   1.0000     -10.181694      -277.0580 
  12   1.0000     -10.181437      -277.0510 
  13   1.0000     -10.181369      -277.0491 
  14   1.0000     -10.180870      -277.0356 
  15   1.0000     -10.179041      -276.9858 
  16   1.0000     -10.175715      -276.8953 
  17   1.0000     -10.173845      -276.8444 
  18   1.0000     -10.167296      -276.6662 
  19   1.0000      -0.863591       -23.4995 
  20   1.0000      -0.811261       -22.0755 
  21   1.0000      -0.797509       -21.7013 
  22   1.0000      -0.783323       -21.3153 
  23   1.0000      -0.776460       -21.1285 
  24   1.0000      -0.756962       -20.5980 
  25   1.0000      -0.727214       -19.7885 
  26   1.0000      -0.721269       -19.6267 
  27   1.0000      -0.701687       -19.0939 
  28   1.0000      -0.671626       -18.2759 
  29   1.0000      -0.638069       -17.3627 
  30   1.0000      -0.617434       -16.8012 
  31   1.0000      -0.607069       -16.5192 
  32   1.0000      -0.583283       -15.8719 
  33   1.0000      -0.576743       -15.6940 
  34   1.0000      -0.559677       -15.2296 
  35   1.0000      -0.546056       -14.8589 
  36   1.0000      -0.524860       -14.2822 
  37   1.0000      -0.492945       -13.4137 
  38   1.0000      -0.470296       -12.7974 
  39   1.0000      -0.468162       -12.7393 
  40   1.0000      -0.463843       -12.6218 
  41   1.0000      -0.459513       -12.5040 
  42   1.0000      -0.452060       -12.3012 
  43   1.0000      -0.427808       -11.6412 
  44   1.0000      -0.425321       -11.5736 
  45   1.0000      -0.421681       -11.4745 
  46   1.0000      -0.418867       -11.3979 
  47   1.0000      -0.412685       -11.2297 
  48   1.0000      -0.403275       -10.9737 
  49   1.0000      -0.399512       -10.8713 
  50   1.0000      -0.381674       -10.3859 
  51   1.0000      -0.376526       -10.2458 
  52   1.0000      -0.373917       -10.1748 
  53   1.0000      -0.362629        -9.8676 
  54   1.0000      -0.360133        -9.7997 
  55   1.0000      -0.352913        -9.6032 
  56   1.0000      -0.347760        -9.4630 
  57   1.0000      -0.345826        -9.4104 
  58   1.0000      -0.332585        -9.0501 
  59   1.0000      -0.328643        -8.9428 
  60   1.0000      -0.326400        -8.8818 
  61   1.0000      -0.324904        -8.8411 
  62   1.0000      -0.323295        -8.7973 
  63   1.0000      -0.321855        -8.7581 
  64   1.0000      -0.319786        -8.7018 
  65   1.0000      -0.310488        -8.4488 
  66   1.0000      -0.298388        -8.1196 
  67   1.0000      -0.270300        -7.3552 
  68   1.0000      -0.240708        -6.5500 
  69   1.0000      -0.222433        -6.0527 
  70   0.0000      -0.036184        -0.9846 
  71   0.0000      -0.029730        -0.8090 
  72   0.0000       0.002769         0.0753 
  73   0.0000       0.049810         1.3554 
  74   0.0000       0.062065         1.6889 
  75   0.0000       0.065795         1.7904 
  76   0.0000       0.072946         1.9850 
  77   0.0000       0.076935         2.0935 
  78   0.0000       0.077346         2.1047 
  79   0.0000       0.083616         2.2753 
  80   0.0000       0.087357         2.3771 
  81   0.0000       0.093735         2.5507 
  82   0.0000       0.096279         2.6199 
  83   0.0000       0.097246         2.6462 
  84   0.0000       0.101557         2.7635 
  85   0.0000       0.105646         2.8748 
  86   0.0000       0.113615         3.0916 
  87   0.0000       0.115435         3.1411 
  88   0.0000       0.128229         3.4893 
  89   0.0000       0.136992         3.7277 
  90   0.0000       0.142863         3.8875 
  91   0.0000       0.148509         4.0411 
  92   0.0000       0.153729         4.1832 
  93   0.0000       0.157684         4.2908 
  94   0.0000       0.159540         4.3413 
  95   0.0000       0.162274         4.4157 
  96   0.0000       0.163781         4.4567 
  97   0.0000       0.169215         4.6046 
  98   0.0000       0.172813         4.7025 
  99   0.0000       0.178929         4.8689 
 100   0.0000       0.180627         4.9151 
 101   0.0000       0.185190         5.0393 
 102   0.0000       0.199491         5.4284 
 103   0.0000       0.207016         5.6332 
 104   0.0000       0.212481         5.7819 
 105   0.0000       0.217833         5.9275 
 106   0.0000       0.226781         6.1710 
 107   0.0000       0.233538         6.3549 
 108   0.0000       0.238246         6.4830 
 109   0.0000       0.242252         6.5920 
 110   0.0000       0.257441         7.0053 
 111   0.0000       0.272179         7.4064 
 112   0.0000       0.285481         7.7683 
 113   0.0000       0.288151         7.8410 
 114   0.0000       0.298165         8.1135 
 115   0.0000       0.331286         9.0148 
 116   0.0000       0.339408         9.2358 
 117   0.0000       0.353920         9.6307 
 118   0.0000       0.361653         9.8411 
 119   0.0000       0.374867        10.2007 
 120   0.0000       0.409368        11.1395 
 121   0.0000       0.412105        11.2139 
 122   0.0000       0.414402        11.2764 
 123   0.0000       0.418038        11.3754 
 124   0.0000       0.420576        11.4444 
 125   0.0000       0.421866        11.4796 
 126   0.0000       0.427814        11.6414 
 127   0.0000       0.437946        11.9171 
 128   0.0000       0.449116        12.2211 
 129   0.0000       0.457316        12.4442 
 130   0.0000       0.465677        12.6717 
 131   0.0000       0.475391        12.9361 
 132   0.0000       0.479834        13.0569 
 133   0.0000       0.481689        13.1074 
 134   0.0000       0.487861        13.2754 
 135   0.0000       0.496360        13.5066 
 136   0.0000       0.498663        13.5693 
 137   0.0000       0.504498        13.7281 
 138   0.0000       0.509102        13.8534 
 139   0.0000       0.520128        14.1534 
 140   0.0000       0.523831        14.2542 
 141   0.0000       0.528007        14.3678 
 142   0.0000       0.537342        14.6218 
 143   0.0000       0.539150        14.6710 
 144   0.0000       0.545947        14.8560 
 145   0.0000       0.558712        15.2033 
 146   0.0000       0.570786        15.5319 
 147   0.0000       0.577186        15.7060 
 148   0.0000       0.592185        16.1142 
 149   0.0000       0.601114        16.3572 
 150   0.0000       0.608505        16.5583 
 151   0.0000       0.609615        16.5885 
 152   0.0000       0.612905        16.6780 
 153   0.0000       0.616180        16.7671 
 154   0.0000       0.619375        16.8540 
 155   0.0000       0.628949        17.1146 
 156   0.0000       0.632467        17.2103 
 157   0.0000       0.635580        17.2950 
 158   0.0000       0.639242        17.3947 
 159   0.0000       0.643273        17.5044 
 160   0.0000       0.646187        17.5836 
 161   0.0000       0.648330        17.6420 
 162   0.0000       0.651700        17.7337 
 163   0.0000       0.657905        17.9025 
 164   0.0000       0.658782        17.9264 
 165   0.0000       0.660383        17.9699 
 166   0.0000       0.660949        17.9853 
 167   0.0000       0.661836        18.0095 
 168   0.0000       0.664821        18.0907 
 169   0.0000       0.668370        18.1873 
 170   0.0000       0.672154        18.2903 
 171   0.0000       0.673378        18.3236 
 172   0.0000       0.680865        18.5273 
 173   0.0000       0.685372        18.6499 
 174   0.0000       0.686701        18.6861 
 175   0.0000       0.690680        18.7943 
 176   0.0000       0.696219        18.9451 
 177   0.0000       0.697965        18.9926 
 178   0.0000       0.703771        19.1506 
 179   0.0000       0.707203        19.2440 
 180   0.0000       0.713953        19.4276 
 181   0.0000       0.715886        19.4803 
 182   0.0000       0.721255        19.6263 
 183   0.0000       0.722612        19.6633 
 184   0.0000       0.728071        19.8118 
 185   0.0000       0.732438        19.9306 
 186   0.0000       0.740371        20.1465 
 187   0.0000       0.744070        20.2472 
 188   0.0000       0.761325        20.7167 
 189   0.0000       0.771248        20.9867 
 190   0.0000       0.777358        21.1530 
 191   0.0000       0.783123        21.3099 
 192   0.0000       0.803536        21.8653 
 193   0.0000       0.814024        22.1507 
 194   0.0000       0.821366        22.3505 
 195   0.0000       0.834643        22.7118 
 196   0.0000       0.847213        23.0538 
 197   0.0000       0.854625        23.2555 
 198   0.0000       0.859027        23.3753 
 199   0.0000       0.882211        24.0062 
 200   0.0000       0.894137        24.3307 
 201   0.0000       0.906838        24.6763 
 202   0.0000       0.914216        24.8771 
 203   0.0000       0.927361        25.2348 
 204   0.0000       0.940778        25.5999 
 205   0.0000       0.975939        26.5566 
 206   0.0000       0.993188        27.0260 
 207   0.0000       0.995946        27.1011 
 208   0.0000       1.006687        27.3933 
 209   0.0000       1.008920        27.4541 
 210   0.0000       1.026083        27.9211 
 211   0.0000       1.032540        28.0968 
 212   0.0000       1.037009        28.2185 
 213   0.0000       1.048339        28.5268 
 214   0.0000       1.056543        28.7500 
 215   0.0000       1.062477        28.9115 
 216   0.0000       1.070906        29.1408 
 217   0.0000       1.086820        29.5739 
 218   0.0000       1.086904        29.5762 
 219   0.0000       1.105156        30.0728 
 220   0.0000       1.142376        31.0856 
 221   0.0000       1.152556        31.3626 
 222   0.0000       1.160882        31.5892 
 223   0.0000       1.191018        32.4092 
 224   0.0000       1.205687        32.8084 
 225   0.0000       1.207218        32.8501 
 226   0.0000       1.213775        33.0285 
 227   0.0000       1.215870        33.0855 
 228   0.0000       1.217925        33.1414 
 229   0.0000       1.219372        33.1808 
 230   0.0000       1.224951        33.3326 
 231   0.0000       1.226100        33.3639 
 232   0.0000       1.234174        33.5836 
 233   0.0000       1.249036        33.9880 
 234   0.0000       1.271421        34.5971 
 235   0.0000       1.287016        35.0215 
 236   0.0000       1.300887        35.3989 
 237   0.0000       1.314982        35.7825 
 238   0.0000       1.319951        35.9177 
 239   0.0000       1.323701        36.0197 
 240   0.0000       1.333731        36.2927 
 241   0.0000       1.339633        36.4533 
 242   0.0000       1.342328        36.5266 
 243   0.0000       1.353651        36.8347 
 244   0.0000       1.373621        37.3781 
 245   0.0000       1.398267        38.0488 
 246   0.0000       1.412161        38.4268 
 247   0.0000       1.416653        38.5491 
 248   0.0000       1.426435        38.8153 
 249   0.0000       1.428309        38.8663 
 250   0.0000       1.429316        38.8937 
 251   0.0000       1.436345        39.0849 
 252   0.0000       1.449092        39.4318 
 253   0.0000       1.462285        39.7908 
 254   0.0000       1.471495        40.0414 
 255   0.0000       1.473079        40.0845 
 256   0.0000       1.486823        40.4585 
 257   0.0000       1.496089        40.7106 
 258   0.0000       1.508154        41.0390 
 259   0.0000       1.513630        41.1880 
 260   0.0000       1.520723        41.3810 
 261   0.0000       1.527446        41.5639 
 262   0.0000       1.552623        42.2490 
 263   0.0000       1.556301        42.3491 
 264   0.0000       1.586691        43.1761 
 265   0.0000       1.594330        43.3839 
 266   0.0000       1.598244        43.4904 
 267   0.0000       1.607143        43.7326 
 268   0.0000       1.612034        43.8657 
 269   0.0000       1.621701        44.1287 
 270   0.0000       1.627731        44.2928 
 271   0.0000       1.628485        44.3133 
 272   0.0000       1.630411        44.3657 
 273   0.0000       1.631996        44.4089 
 274   0.0000       1.635544        44.5054 
 275   0.0000       1.640663        44.6447 
 276   0.0000       1.647510        44.8310 
[...]
  Y           0.3478405            0.4021427           -0.8469287
  Z          -0.6287074            0.7701780            0.1074844

Notes:  (1) The A matrix conforms to the "SAI" spin Hamiltonian convention.
        (2) Tensor is right-handed.

 -----------------------------------------------------------
 Nucleus  43H : A:ISTP=    1 I=  0.5 P=533.5514 MHz/au**3
                Q:ISTP=    2 I=  1.0 Q=  0.0029 barn     
 -----------------------------------------------------------
 Solving for nuclear perturbation:
Forming RHS of the CP-SCF equations         ... 
Calc. nucleus orbit integrals (SHARK)       ... done

------------------------------------------------------------------------------
                           ORCA CP-SCF CALCULATION
------------------------------------------------------------------------------

Input orbitals are from        ... cc-pVDZ.gbw
Input Perturbation             ... cc-pVDZ.pin.tmp
Wavefunction output            ... cc-pVDZ.pout.tmp
Perturbation mode              ... Imaginary perturbation
Solver                         ... POPLE
Max. number of iterations      ... 64
Convergence tolerance          ... 1.000e-03
Integral handling              ... Direct
DFT GridXC                     ... 1
COSX GridX                     ... 1
COSX IntAccX                   ... 3.067
COSX Algorithm                 ... Auto
Number of perturbations        ... 3
Number of operators            ... 2
Orbital ranges used for CP-SCF:
 Operator 0:  Orbitals   0... 70  to  71...400
 Operator 1:  Orbitals   0... 69  to  70...400
Variables per perturbation     ... 46600
DFT calculation                         ... on
XC functional terms                     ... off
Hybrid DFT                              ... on
   Exchange mixing (SCF)                ...  0.200
   Exchange mixing (CP-SCF)             ...  0.200
   GGA exch. scaling(SCF)               ...  0.720
   GGA exch. scaling (CP-SCF)           ...  0.720
   GGA corr. scaling (SCF)              ...  0.810
   GGA corr. scaling (CP-SCF)           ...  0.810

CP-SCF GRID
-----------

General Integration Accuracy     IntAcc      ... 3.467
Radial Grid Type                 RadialGrid  ... OptM3 with GC (2021)
Angular Grid (max. ang.)         AngularGrid ... 1 (Lebedev-50)
Angular grid pruning method      GridPruning ... 4 (adaptive)
Weight generation scheme         WeightScheme... Becke
Basis function cutoff            BFCut       ... 1.0000e-10
Integration weight cutoff        WCut        ... 1.0000e-14
Angular grids for H and He will be reduced by one unit
Partially contracted basis set               ... off
Rotationally invariant grid construction     ... off

Total number of grid points                  ...    27924
Total number of batches                      ...      456
Average number of points per batch           ...       61
Average number of grid points per atom       ...      607

CP-SCF GRIDX
------------

General Integration Accuracy     IntAcc      ... 3.067
Radial Grid Type                 RadialGrid  ... OptM3 with GC (2021)
Angular Grid (max. ang.)         AngularGrid ... 1 (Lebedev-50)
Angular grid pruning method      GridPruning ... 4 (adaptive)
Weight generation scheme         WeightScheme... Becke
Basis function cutoff            BFCut       ... 1.0000e-10
Integration weight cutoff        WCut        ... 1.0000e-14
Angular grids for H and He will be reduced by one unit
Partially contracted basis set               ... on
Rotationally invariant grid construction     ... off

Total number of grid points                  ...    13278
Total number of batches                      ...      237
Average number of points per batch           ...       56
Average number of grid points per atom       ...      289

Memory available               ... 896.6 MB
Memory needed per perturbation ...  10.1 MB
Perturbations treated per batch... 3
Number of batches              ... 1
     CP-SCF ITERATION   0:   3.6523e-02 (   1.4 sec   0/  3 done)
     CP-SCF ITERATION   1:   5.7345e-04 (   1.4 sec   3/  3 done)
                    *** THE CP-SCF HAS CONVERGED ***

Forming final perturbed densities           ... done
Transforming perturbed density to AO basis  ... done

 Raw HFC matrix (all values in MHz): 
 -----------------------------------
                -0.0258               0.0182              -0.0012
                 0.0182               0.0553              -0.0050
                -0.0012              -0.0050              -0.0294

 A(FC)           0.0000               0.0000               0.0000
 A(SD)          -0.0296              -0.0298               0.0595
 A(ORB+DIA)      0.0000               0.0000               0.0000    A(PC) =   0.0000
 A(ORB)         -0.0000              -0.0000               0.0000    A(PC) =   0.0000
 A(DIA)          0.0000               0.0000               0.0000    A(PC) =   0.0000
             ----------           ----------           ----------
 A(Tot)         -0.0296              -0.0298               0.0595    A(iso)=    0.0000
 Orientation: 
  X           0.7232016            0.6583528           -0.2086886
  Y          -0.1936633           -0.0967301           -0.9762878
  Z          -0.6629283            0.7464682            0.0575434

Notes:  (1) The A matrix conforms to the "SAI" spin Hamiltonian convention.
        (2) Tensor is right-handed.

 -----------------------------------------------------------
 Nucleus  44H : A:ISTP=    1 I=  0.5 P=533.5514 MHz/au**3
                Q:ISTP=    2 I=  1.0 Q=  0.0029 barn     
 -----------------------------------------------------------
 Solving for nuclear perturbation:
Forming RHS of the CP-SCF equations         ... 
Calc. nucleus orbit integrals (SHARK)       ... done

------------------------------------------------------------------------------
                           ORCA CP-SCF CALCULATION
------------------------------------------------------------------------------

Input orbitals are from        ... cc-pVDZ.gbw
Input Perturbation             ... cc-pVDZ.pin.tmp
Wavefunction output            ... cc-pVDZ.pout.tmp
Perturbation mode              ... Imaginary perturbation
Solver                         ... POPLE
Max. number of iterations      ... 64
Convergence tolerance          ... 1.000e-03
Integral handling              ... Direct
DFT GridXC                     ... 1
COSX GridX                     ... 1
COSX IntAccX                   ... 3.067
COSX Algorithm                 ... Auto
Number of perturbations        ... 3
Number of operators            ... 2
Orbital ranges used for CP-SCF:
 Operator 0:  Orbitals   0... 70  to  71...400
 Operator 1:  Orbitals   0... 69  to  70...400
Variables per perturbation     ... 46600
DFT calculation                         ... on
XC functional terms                     ... off
Hybrid DFT                              ... on
   Exchange mixing (SCF)                ...  0.200
   Exchange mixing (CP-SCF)             ...  0.200
   GGA exch. scaling(SCF)               ...  0.720
   GGA exch. scaling (CP-SCF)           ...  0.720
   GGA corr. scaling (SCF)              ...  0.810
   GGA corr. scaling (CP-SCF)           ...  0.810

CP-SCF GRID
-----------

General Integration Accuracy     IntAcc      ... 3.467
Radial Grid Type                 RadialGrid  ... OptM3 with GC (2021)
Angular Grid (max. ang.)         AngularGrid ... 1 (Lebedev-50)
Angular grid pruning method      GridPruning ... 4 (adaptive)
Weight generation scheme         WeightScheme... Becke
Basis function cutoff            BFCut       ... 1.0000e-10
Integration weight cutoff        WCut        ... 1.0000e-14
Angular grids for H and He will be reduced by one unit
Partially contracted basis set               ... off
Rotationally invariant grid construction     ... off

Total number of grid points                  ...    27924
Total number of batches                      ...      456
Average number of points per batch           ...       61
Average number of grid points per atom       ...      607

CP-SCF GRIDX
------------

General Integration Accuracy     IntAcc      ... 3.067
Radial Grid Type                 RadialGrid  ... OptM3 with GC (2021)
Angular Grid (max. ang.)         AngularGrid ... 1 (Lebedev-50)
Angular grid pruning method      GridPruning ... 4 (adaptive)
Weight generation scheme         WeightScheme... Becke
Basis function cutoff            BFCut       ... 1.0000e-10
Integration weight cutoff        WCut        ... 1.0000e-14
Angular grids for H and He will be reduced by one unit
Partially contracted basis set               ... on
Rotationally invariant grid construction     ... off

Total number of grid points                  ...    13278
Total number of batches                      ...      237
Average number of points per batch           ...       56
Average number of grid points per atom       ...      289

Memory available               ... 896.2 MB
Memory needed per perturbation ...  10.1 MB
Perturbations treated per batch... 3
Number of batches              ... 1
     CP-SCF ITERATION   0:   3.6367e-02 (   1.5 sec   0/  3 done)
     CP-SCF ITERATION   1:   5.2932e-04 (   1.4 sec   3/  3 done)
                    *** THE CP-SCF HAS CONVERGED ***

Forming final perturbed densities           ... done
Transforming perturbed density to AO basis  ... done

 Raw HFC matrix (all values in MHz): 
 -----------------------------------
                -0.8508              -0.2520              -0.1414
                -0.2520               1.1463               0.3317
                -0.1414               0.3316              -0.9365

 A(FC)          -0.2138              -0.2138              -0.2138
 A(SD)          -0.6107              -0.8356               1.4463
 A(ORB+DIA)     -0.0001              -0.0002               0.0006    A(PC) =   0.0001
 A(ORB)         -0.0000              -0.0002               0.0004    A(PC) =   0.0001
 A(DIA)         -0.0001              -0.0000               0.0001    A(PC) =   0.0000
             ----------           ----------           ----------
 A(Tot)         -0.8246              -1.0495               1.2331    A(iso)=   -0.2137
 Orientation: 
  X           0.8451332            0.5187390            0.1290726
  Y           0.1920018           -0.0692285           -0.9789498
  Z          -0.4988839            0.8521252           -0.1581061

Notes:  (1) The A matrix conforms to the "SAI" spin Hamiltonian convention.
        (2) Tensor is right-handed.

 -----------------------------------------------------------
 Nucleus  45H : A:ISTP=    1 I=  0.5 P=533.5514 MHz/au**3
                Q:ISTP=    2 I=  1.0 Q=  0.0029 barn     
 -----------------------------------------------------------
 Solving for nuclear perturbation:
Forming RHS of the CP-SCF equations         ... 
Calc. nucleus orbit integrals (SHARK)       ... done

------------------------------------------------------------------------------
                           ORCA CP-SCF CALCULATION
------------------------------------------------------------------------------

Input orbitals are from        ... cc-pVDZ.gbw
Input Perturbation             ... cc-pVDZ.pin.tmp
Wavefunction output            ... cc-pVDZ.pout.tmp
Perturbation mode              ... Imaginary perturbation
Solver                         ... POPLE
Max. number of iterations      ... 64
Convergence tolerance          ... 1.000e-03
Integral handling              ... Direct
DFT GridXC                     ... 1
COSX GridX                     ... 1
COSX IntAccX                   ... 3.067
COSX Algorithm                 ... Auto
Number of perturbations        ... 3
Number of operators            ... 2
Orbital ranges used for CP-SCF:
 Operator 0:  Orbitals   0... 70  to  71...400
 Operator 1:  Orbitals   0... 69  to  70...400
Variables per perturbation     ... 46600
DFT calculation                         ... on
XC functional terms                     ... off
Hybrid DFT                              ... on
   Exchange mixing (SCF)                ...  0.200
   Exchange mixing (CP-SCF)             ...  0.200
   GGA exch. scaling(SCF)               ...  0.720
   GGA exch. scaling (CP-SCF)           ...  0.720
   GGA corr. scaling (SCF)              ...  0.810
   GGA corr. scaling (CP-SCF)           ...  0.810

CP-SCF GRID
-----------

General Integration Accuracy     IntAcc      ... 3.467
Radial Grid Type                 RadialGrid  ... OptM3 with GC (2021)
Angular Grid (max. ang.)         AngularGrid ... 1 (Lebedev-50)
Angular grid pruning method      GridPruning ... 4 (adaptive)
Weight generation scheme         WeightScheme... Becke
Basis function cutoff            BFCut       ... 1.0000e-10
Integration weight cutoff        WCut        ... 1.0000e-14
Angular grids for H and He will be reduced by one unit
Partially contracted basis set               ... off
Rotationally invariant grid construction     ... off

Total number of grid points                  ...    27924
Total number of batches                      ...      456
Average number of points per batch           ...       61
Average number of grid points per atom       ...      607

CP-SCF GRIDX
------------

General Integration Accuracy     IntAcc      ... 3.067
Radial Grid Type                 RadialGrid  ... OptM3 with GC (2021)
Angular Grid (max. ang.)         AngularGrid ... 1 (Lebedev-50)
Angular grid pruning method      GridPruning ... 4 (adaptive)
Weight generation scheme         WeightScheme... Becke
Basis function cutoff            BFCut       ... 1.0000e-10
Integration weight cutoff        WCut        ... 1.0000e-14
Angular grids for H and He will be reduced by one unit
Partially contracted basis set               ... on
Rotationally invariant grid construction     ... off

Total number of grid points                  ...    13278
Total number of batches                      ...      237
Average number of points per batch           ...       56
Average number of grid points per atom       ...      289

Memory available               ... 895.8 MB
Memory needed per perturbation ...  10.1 MB
Perturbations treated per batch... 3
Number of batches              ... 1
     CP-SCF ITERATION   0:   4.2804e-02 (   1.4 sec   0/  3 done)
     CP-SCF ITERATION   1:   1.6661e-03 (   1.5 sec   2/  3 done)
     CP-SCF ITERATION   2:   7.5468e-05 (   1.0 sec   3/  3 done)
                    *** THE CP-SCF HAS CONVERGED ***

Forming final perturbed densities           ... done
Transforming perturbed density to AO basis  ... done

 Raw HFC matrix (all values in MHz): 
 -----------------------------------
                -0.0449               0.2678              -0.0126
                 0.2679               0.2730              -0.0167
                -0.0125              -0.0166              -0.1990

 A(FC)           0.0096               0.0096               0.0096
 A(SD)          -0.2053              -0.2111               0.4164
 A(ORB+DIA)     -0.0000               0.0000               0.0001    A(PC) =   0.0000
 A(ORB)         -0.0000              -0.0000               0.0001    A(PC) =   0.0000
 A(DIA)          0.0000               0.0000               0.0000    A(PC) =   0.0000
             ----------           ----------           ----------
 A(Tot)         -0.1956              -0.2015               0.4262    A(iso)=    0.0097
 Orientation: 
  X          -0.7182741            0.4892928            0.4946463
  Y           0.4299706           -0.2467747            0.8684627
  Z           0.5469987            0.8364776           -0.0331296

Notes:  (1) The A matrix conforms to the "SAI" spin Hamiltonian convention.
        (2) Tensor is right-handed.


--------------------------------------------------------------------------------
----------------------------------------------------------------------------
                           ORCA EULER ANGLE PROGRAM
----------------------------------------------------------------------------

Only g-tensor available        -->  using g-tensor as reference tensor

Reference tensor               ...  g

g-tensor ordering              ...  |g_min> --> |gx>
                                    |g_mid> --> |gy>
                                    |g_max> --> |gz>

A- and EFG-tensor ordering     ...  the axes |Ax>, |Qx>, |Ay>, etc. are assigned
                                    such that the Euler rotation is minimal. You
                                    can find the respective eigenvalues as Ax,
                                    EFGx, Ay, etc. in the tables below.
                                    The relation of |Ax>, |Ay>,  etc. to Amin, Amid, etc.
                                    (as printed in the ORCA EPR/NMR CALCULATION Output)
                                    is obtained in the detailed printout.

Euler rotation around          ...  z - y - z
   First rotation              -->  by alpha around z
   Second rotation             -->  by beta around y'
   Third rotation              -->  by gamma around z''
   Positive / Negative angle   -->  clockwise / counterclockwise rotation

Plot EFG-tensors                    (-)
Plot HFC-tensors                    (-)
Detailed Printout                   (-)

-------------------------------------------------------------------------
          Euler rotation of hyperfine tensor to g-tensor
-------------------------------------------------------------------------

-------------------------------------------------------------------
 Atom  |   Alpha    Beta    Gamma   |   Ax       Ay       Az 
       |          [degrees]         |           [MHz]         
-------------------------------------------------------------------
  7H     -169.3     38.9    166.5      -0.12     0.27    -0.11
  8H     -136.5     52.7    134.7      -0.75     1.35    -0.71
 10H     -130.7     39.3    130.0      -0.06     0.22    -0.06
 11H      -46.3     33.7     22.4      -0.06     0.22    -0.06
 13H      -28.9     33.3     22.5      -0.07     0.14    -0.07
 14H      -19.2     36.2      4.0      -0.07     0.14    -0.07
 16H      -46.9     29.1     27.5      -0.05     0.09    -0.05
 17H      -49.7     33.1     37.4      -0.05     0.09    -0.05
 19H      -26.2     26.3     13.5      -0.04     0.07    -0.04
 20H      -31.0     29.3     24.7      -0.04     0.07    -0.04
 22H      127.5     17.7   -140.4      -0.35     2.76    -0.31
 23H        1.7     22.6      4.5       0.08     3.04    -0.49
 25H     -101.7     33.1    112.7      -4.15     4.00    -4.32
 26H      -34.6     32.9      3.2      -4.31     4.82    -5.72
 28H      -44.2     47.2     81.5      34.18    33.37    47.47
 29H       64.4     26.2    -34.5     109.37   120.30   107.38
 31H      -42.2     12.2     43.4     -55.90   -91.64   -16.01
 33H      -89.1     37.1     60.8     109.58   120.55   107.62
 34H       41.0     30.9    -74.4      31.46    30.62    44.66
 36H      128.5     21.3   -133.9      -4.19     4.01    -4.34
 37H        5.0     35.2     26.2      -4.33     4.76    -5.81
 39H     -137.8     47.7    165.9      -0.34     2.67    -0.31
 40H      -40.6     25.1     35.4       0.10     2.93    -0.42
 42H       42.8     35.5    -30.5      -0.18     0.34    -0.18
 43H      -40.1     28.1     27.8      -0.03     0.06    -0.03
 44H       -8.2     36.7     17.5      -0.82     1.23    -1.05
 45H      -56.5     42.0     31.6      -0.20     0.43    -0.20
-------------------------------------------------------------------


Maximum memory used throughout the entire EPRNMR-calculation: 181.0 MB

Timings for individual modules:

Sum of individual times         ...     3268.885 sec (=  54.481 min)
GTO integral calculation        ...        5.029 sec (=   0.084 min)   0.2 %
Spin-Orbit-Coupling Matrices    ...        7.355 sec (=   0.123 min)   0.2 %
SCF iterations                  ...       24.313 sec (=   0.405 min)   0.7 %
EPR/NMR calculation             ...     3232.187 sec (=  53.870 min)  98.9 %
                             ****ORCA TERMINATED NORMALLY****
TOTAL RUN TIME: 0 days 0 hours 54 minutes 33 seconds 436 msec
