
                                 *****************
                                 * O   R   C   A *
                                 *****************

                                            #,                                       
                                            ###                                      
                                            ####                                     
                                            #####                                    
                                            ######                                   
                                           ########,                                 
                                     ,,################,,,,,                         
                               ,,#################################,,                 
                          ,,##########################################,,             
                       ,#########################################, ''#####,          
                    ,#############################################,,   '####,        
                  ,##################################################,,,,####,       
                ,###########''''           ''''###############################       
              ,#####''   ,,,,##########,,,,          '''####'''          '####       
            ,##' ,,,,###########################,,,                        '##       
           ' ,,###''''                  '''############,,,                           
         ,,##''                                '''############,,,,        ,,,,,,###''
      ,#''                                            '''#######################'''  
     '                                                          ''''####''''         
             ,#######,   #######,   ,#######,      ##                                
            ,#'     '#,  ##    ##  ,#'     '#,    #''#        ######   ,####,        
            ##       ##  ##   ,#'  ##            #'  '#       #        #'  '#        
            ##       ##  #######   ##           ,######,      #####,   #    #        
            '#,     ,#'  ##    ##  '#,     ,#' ,#      #,         ##   #,  ,#        
             '#######'   ##     ##  '#######'  #'      '#     #####' # '####'        



                  #######################################################
                  #                        -***-                        #
                  #          Department of theory and spectroscopy      #
                  #    Directorship and core code : Frank Neese         #
                  #        Max Planck Institute fuer Kohlenforschung    #
                  #                Kaiser Wilhelm Platz 1               #
                  #                 D-45470 Muelheim/Ruhr               #
                  #                      Germany                        #
                  #                                                     #
                  #                  All rights reserved                #
                  #                        -***-                        #
                  #######################################################


                         Program Version 5.0.4 -  RELEASE  -


 With contributions from (in alphabetic order):
   Daniel Aravena         : Magnetic Suceptibility
   Michael Atanasov       : Ab Initio Ligand Field Theory (pilot matlab implementation)
   Alexander A. Auer      : GIAO ZORA, VPT2 properties, NMR spectrum
   Ute Becker             : Parallelization
   Giovanni Bistoni       : ED, misc. LED, open-shell LED, HFLD
   Martin Brehm           : Molecular dynamics
   Dmytro Bykov           : SCF Hessian
   Vijay G. Chilkuri      : MRCI spin determinant printing, contributions to CSF-ICE
   Dipayan Datta          : RHF DLPNO-CCSD density
   Achintya Kumar Dutta   : EOM-CC, STEOM-CC
   Dmitry Ganyushin       : Spin-Orbit,Spin-Spin,Magnetic field MRCI
   Miquel Garcia          : C-PCM and meta-GGA Hessian, CC/C-PCM, Gaussian charge scheme
   Yang Guo               : DLPNO-NEVPT2, F12-NEVPT2, CIM, IAO-localization
   Andreas Hansen         : Spin unrestricted coupled pair/coupled cluster methods
   Benjamin Helmich-Paris : MC-RPA, TRAH-SCF, COSX integrals
   Lee Huntington         : MR-EOM, pCC
   Robert Izsak           : Overlap fitted RIJCOSX, COSX-SCS-MP3, EOM
   Marcus Kettner         : VPT2
   Christian Kollmar      : KDIIS, OOCD, Brueckner-CCSD(T), CCSD density, CASPT2, CASPT2-K
   Simone Kossmann        : Meta GGA functionals, TD-DFT gradient, OOMP2, MP2 Hessian
   Martin Krupicka        : Initial AUTO-CI
   Lucas Lang             : DCDCAS
   Marvin Lechner         : AUTO-CI (C++ implementation), FIC-MRCC
   Dagmar Lenk            : GEPOL surface, SMD
   Dimitrios Liakos       : Extrapolation schemes; Compound Job, initial MDCI parallelization
   Dimitrios Manganas     : Further ROCIS development; embedding schemes
   Dimitrios Pantazis     : SARC Basis sets
   Anastasios Papadopoulos: AUTO-CI, single reference methods and gradients
   Taras Petrenko         : DFT Hessian,TD-DFT gradient, ASA, ECA, R-Raman, ABS, FL, XAS/XES, NRVS
   Peter Pinski           : DLPNO-MP2, DLPNO-MP2 Gradient
   Christoph Reimann      : Effective Core Potentials
   Marius Retegan         : Local ZFS, SOC
   Christoph Riplinger    : Optimizer, TS searches, QM/MM, DLPNO-CCSD(T), (RO)-DLPNO pert. Triples
   Tobias Risthaus        : Range-separated hybrids, TD-DFT gradient, RPA, STAB
   Michael Roemelt        : Original ROCIS implementation
   Masaaki Saitow         : Open-shell DLPNO-CCSD energy and density
   Barbara Sandhoefer     : DKH picture change effects
   Avijit Sen             : IP-ROCIS
   Kantharuban Sivalingam : CASSCF convergence, NEVPT2, FIC-MRCI
   Bernardo de Souza      : ESD, SOC TD-DFT
   Georgi Stoychev        : AutoAux, RI-MP2 NMR, DLPNO-MP2 response
   Willem Van den Heuvel  : Paramagnetic NMR
   Boris Wezisla          : Elementary symmetry handling
   Frank Wennmohs         : Technical directorship


 We gratefully acknowledge several colleagues who have allowed us to
 interface, adapt or use parts of their codes:
   Stefan Grimme, W. Hujo, H. Kruse, P. Pracht,  : VdW corrections, initial TS optimization,
                  C. Bannwarth, S. Ehlert          DFT functionals, gCP, sTDA/sTD-DF
   Ed Valeev, F. Pavosevic, A. Kumar             : LibInt (2-el integral package), F12 methods
   Garnet Chan, S. Sharma, J. Yang, R. Olivares  : DMRG
   Ulf Ekstrom                                   : XCFun DFT Library
   Mihaly Kallay                                 : mrcc  (arbitrary order and MRCC methods)
   Jiri Pittner, Ondrej Demel                    : Mk-CCSD
   Frank Weinhold                                : gennbo (NPA and NBO analysis)
   Christopher J. Cramer and Donald G. Truhlar   : smd solvation model
   Lars Goerigk                                  : TD-DFT with DH, B97 family of functionals
   V. Asgeirsson, H. Jonsson                     : NEB implementation
   FAccTs GmbH                                   : IRC, NEB, NEB-TS, DLPNO-Multilevel, CI-OPT
                                                   MM, QMMM, 2- and 3-layer-ONIOM, Crystal-QMMM,
                                                   LR-CPCM, SF, NACMEs, symmetry and pop. for TD-DFT,
                                                   nearIR, NL-DFT gradient (VV10), updates on ESD,
                                                   ML-optimized integration grids
   S Lehtola, MJT Oliveira, MAL Marques          : LibXC Library
   Liviu Ungur et al                             : ANISO software


 Your calculation uses the libint2 library for the computation of 2-el integrals
 For citations please refer to: http://libint.valeyev.net

 Your ORCA version has been built with support for libXC version: 5.1.0
 For citations please refer to: https://tddft.org/programs/libxc/

 This ORCA versions uses:
   CBLAS   interface :  Fast vector & matrix operations
   LAPACKE interface :  Fast linear algebra routines
   SCALAPACK package :  Parallel linear algebra routines
   Shared memory     :  Shared parallel matrices
   BLAS/LAPACK       :  OpenBLAS 0.3.15  USE64BITINT DYNAMIC_ARCH NO_AFFINITY SkylakeX SINGLE_THREADED
        Core in use  :  SkylakeX
   Copyright (c) 2011-2014, The OpenBLAS Project




***************************************
The coordinates will be read from file: opt_cc-pVDZ.xyz
***************************************


================================================================================

----- Orbital basis set information -----
Your calculation utilizes the basis: cc-pVDZ 
       H, B-Ne : Obtained from the ccRepo (grant-hill.group.shef.ac.uk/ccrepo) Feb. 2017
                 T. H. Dunning, Jr., J. Chem. Phys. 90, 1007 (1989)
            He : Obtained from the ccRepo (grant-hill.group.shef.ac.uk/ccrepo) Feb. 2017
                 D. E. Woon, T. H. Dunning, Jr., J. Chem. Phys. 100, 2975 (1994)
  Li-Be, Na-Mg : Obtained from the ccRepo (grant-hill.group.shef.ac.uk/ccrepo) Feb. 2017
                 B. P. Prascher, D. E. Woon, K. A. Peterson, T. H. Dunning, Jr., A. K. Wilson, Theor. Chem. Acc. 128, 69 (2011)
         Al-Ar : Obtained from the ccRepo (grant-hill.group.shef.ac.uk/ccrepo) Feb. 2017
                 D. E. Woon, T. H. Dunning, Jr., J. Chem. Phys. 98, 1358 (1993)
            Ca : Obtained from the Peterson Research Group Website (tyr0.chem.wsu.edu/~kipeters) Feb. 2017
                 J. Koput, K. A. Peterson, J. Phys. Chem. 106, 9595 (2002)
         Sc-Zn : Obtained from the ccRepo (grant-hill.group.shef.ac.uk/ccrepo) Feb. 2017
                 N. B. Balabanov, K. A. Peterson, J. Chem. Phys. 123, 064107 (2005)
                 N. B. Balabanov, K. A. Peterson, J. Chem. Phys. 125, 074110 (2006)
         Ga-Kr : Obtained from the ccRepo (grant-hill.group.shef.ac.uk/ccrepo) Feb. 2017
                 A. K. Wilson, D. E. Woon, K. A. Peterson, T. H. Dunning, Jr., J. Chem. Phys. 110, 7667 (1999)

----- AuxJ basis set information -----
Your calculation utilizes the AutoAux generation procedure.
  G. L. Stoychev, A. A. Auer, F. Neese, J. Chem. Theory Comput. 13, 554 (2017)

----- AuxC basis set information -----
Your calculation utilizes the AutoAux generation procedure.
  G. L. Stoychev, A. A. Auer, F. Neese, J. Chem. Theory Comput. 13, 554 (2017)

----- AuxJK basis set information -----
Your calculation utilizes the AutoAux generation procedure.
  G. L. Stoychev, A. A. Auer, F. Neese, J. Chem. Theory Comput. 13, 554 (2017)

================================================================================
                                        WARNINGS
                       Please study these warnings very carefully!
================================================================================

WARNING: Old DensityContainer found on disk!
         Will remove this file - 
         If you want to keep old densities, please start your calculation with a different basename. 


WARNING: your system is open-shell and RHF/RKS was chosen
  ===> : WILL SWITCH to UHF/UKS


INFO   : the flag for use of the SHARK integral package has been found!

================================================================================
                                       INPUT FILE
================================================================================
NAME = cc-pVDZ.inp
|  1> ! B3LYP cc-pVDZ AUTOAUX
|  2> %pal nprocs 16 end
|  3> *XYZFile 0 2 opt_cc-pVDZ.xyz
|  4> %EPRNMR
|  5>         GTENSOR   TRUE
|  6>         NUCLEI    = ALL H {SHIFT, AISO, ADIP, AORB}
|  7>         ORI       CenterOfElCharge
|  8> END
|  9> 
| 10>                          ****END OF INPUT****
================================================================================

                       ****************************
                       * Single Point Calculation *
                       ****************************

---------------------------------
CARTESIAN COORDINATES (ANGSTROEM)
---------------------------------
  C      4.302806   -0.098134   -0.018100
  C      0.094380    0.040825   -0.250086
  C      0.726644   -1.205804   -0.114693
  C      2.122363   -1.212548   -0.042464
  C      2.873074   -0.019871   -0.100081
  C      2.226449    1.234162   -0.235562
  C      0.826888    1.227637   -0.308566
  H      2.668260   -2.150562    0.061344
  H      0.287878    2.170265   -0.413989
  C     -0.115757   -2.469504   -0.049398
  H     -0.784433   -2.484996   -0.930401
  H     -0.791472   -2.391005    0.823364
  C      0.636859   -3.800618    0.025685
  H      1.310681   -3.896765   -0.845718
  H      1.286960   -3.812799    0.919851
  C     -0.300551   -5.013047    0.073307
  H     -0.976195   -4.917196    0.943743
  H     -0.954030   -5.003610   -0.818966
  C      0.444482   -6.348174    0.148493
  H      1.081377   -6.401246    1.048389
  H      1.099929   -6.491118   -0.727952
  C      3.051057    2.505911   -0.292904
  H      3.668167    2.559803    0.623235
  H      3.785388    2.407214   -1.113607
  C      2.283852    3.819752   -0.458943
  H      1.680300    3.789813   -1.384400
  H      1.569824    3.951823    0.373297
  C      3.215454    5.040204   -0.511554
  H      3.842152    5.071039    0.401948
  H      3.943060    4.895111   -1.344183
  C      2.502381    6.343514   -0.674882
  H      1.558197    6.349126   -1.234730
  C      3.174480    7.653419   -0.417957
  H      3.872970    7.894934   -1.253714
  H      3.826781    7.568284    0.474268
  C      2.206189    8.832605   -0.238778
  H      1.570048    8.914844   -1.139584
  H      1.520708    8.609629    0.598668
  C      2.916990   10.164338    0.011968
  H      3.538968   10.120938    0.922877
  H      3.582459   10.428329   -0.828333
  C      5.514547   -0.173963    0.051006
  H      6.582925   -0.241351    0.113496
  H     -0.254488   -7.199571    0.184421
  H      2.197279   10.989323    0.139374
  H     -0.997339    0.084218   -0.311252

----------------------------
CARTESIAN COORDINATES (A.U.)
----------------------------
  NO LB      ZA    FRAG     MASS         X           Y           Z
   0 C     6.0000    0    12.011    8.131126   -0.185446   -0.034203
   1 C     6.0000    0    12.011    0.178352    0.077148   -0.472594
   2 C     6.0000    0    12.011    1.373158   -2.278639   -0.216739
   3 C     6.0000    0    12.011    4.010684   -2.291384   -0.080246
   4 C     6.0000    0    12.011    5.429322   -0.037550   -0.189126
   5 C     6.0000    0    12.011    4.207379    2.332229   -0.445148
   6 C     6.0000    0    12.011    1.562592    2.319897   -0.583105
   7 H     1.0000    0     1.008    5.042281   -4.063973    0.115924
   8 H     1.0000    0     1.008    0.544011    4.101207   -0.782326
   9 C     6.0000    0    12.011   -0.218749   -4.666686   -0.093348
  10 H     1.0000    0     1.008   -1.482364   -4.695961   -1.758203
  11 H     1.0000    0     1.008   -1.495666   -4.518344    1.555932
  12 C     6.0000    0    12.011    1.203489   -7.182128    0.048537
  13 H     1.0000    0     1.008    2.476829   -7.363819   -1.598175
  14 H     1.0000    0     1.008    2.432002   -7.205146    1.738266
  15 C     6.0000    0    12.011   -0.567958   -9.473287    0.138531
  16 H     1.0000    0     1.008   -1.844741   -9.292154    1.783415
  17 H     1.0000    0     1.008   -1.802855   -9.455453   -1.547622
  18 C     6.0000    0    12.011    0.839949  -11.996310    0.280611
  19 H     1.0000    0     1.008    2.043506  -12.096602    1.981168
  20 H     1.0000    0     1.008    2.078565  -12.266436   -1.375629
  21 C     6.0000    0    12.011    5.765662    4.735486   -0.553509
  22 H     1.0000    0     1.008    6.931830    4.837327    1.177744
  23 H     1.0000    0     1.008    7.153347    4.548975   -2.104413
  24 C     6.0000    0    12.011    4.315855    7.218285   -0.867277
  25 H     1.0000    0     1.008    3.175307    7.161709   -2.616138
  26 H     1.0000    0     1.008    2.966538    7.467863    0.705430
  27 C     6.0000    0    12.011    6.076327    9.524604   -0.966698
  28 H     1.0000    0     1.008    7.260615    9.582874    0.759571
  29 H     1.0000    0     1.008    7.451304    9.250419   -2.540138
  30 C     6.0000    0    12.011    4.728815   11.987504   -1.275342
  31 H     1.0000    0     1.008    2.944565   11.998110   -2.333302
  32 C     6.0000    0    12.011    5.998898   14.462866   -0.789823
  33 H     1.0000    0     1.008    7.318853   14.919263   -2.369175
  34 H     1.0000    0     1.008    7.231569   14.301984    0.896236
  35 C     6.0000    0    12.011    4.169094   16.691204   -0.451225
  36 H     1.0000    0     1.008    2.966961   16.846613   -2.153502
  37 H     1.0000    0     1.008    2.873721   16.269841    1.131318
  38 C     6.0000    0    12.011    5.512312   19.207814    0.022616
  39 H     1.0000    0     1.008    6.687680   19.125802    1.743985
  40 H     1.0000    0     1.008    6.769866   19.706686   -1.565323
  41 C     6.0000    0    12.011   10.420984   -0.328742    0.096388
  42 H     1.0000    0     1.008   12.439926   -0.456087    0.214476
  43 H     1.0000    0     1.008   -0.480912  -13.605217    0.348506
  44 H     1.0000    0     1.008    4.152256   20.766810    0.263378
  45 H     1.0000    0     1.008   -1.884697    0.159148   -0.588182

--------------------------------
INTERNAL COORDINATES (ANGSTROEM)
--------------------------------
 C      0   0   0     0.000000000000     0.00000000     0.00000000
 C      1   0   0     4.217105530291     0.00000000     0.00000000
 C      2   1   0     1.404340607361    61.06291307     0.00000000
 C      3   2   1     1.397602712121   117.31489788   359.93194501
 C      4   3   2     1.410448794995   121.69115955     0.10944914
 C      5   4   3     1.417419134118   120.61201289   359.94629931
 C      2   1   3     1.395890261584    60.43833641   179.97790769
 H      4   3   2     1.090252308328   120.60423621   180.10142207
 H      7   2   1     1.090959933241   118.64618602   179.98733148
 C      3   2   1     1.520144760041   119.51108384   179.75002613
 H     10   3   2     1.106134990688   108.20568161    53.61343617
 H     10   3   2     1.106555833609   108.25828540   300.23771315
 C     10   3   2     1.530991313683   116.90176320   176.93915757
 H     13  10   3     1.105723044134   109.66520662   302.52616992
 H     13  10   3     1.105582275603   109.77360860    58.77628640
 C     13  10   3     1.533293418317   112.86015807   180.58827229
 H     16  13  10     1.106047205970   109.23119060   302.30766639
 H     16  13  10     1.106018452634   109.23344168    57.66059659
 C     16  13  10     1.530780226902   113.18117024   180.00011104
 H     19  16  13     1.103750078399   111.27364191    59.69500023
 H     19  16  13     1.103721128745   111.28362834   299.99381172
 C      6   5   4     1.516776616073   119.82836868   179.87706786
 H     22   6   5     1.105911587285   108.23452814   302.79409059
 H     22   6   5     1.105683785269   108.31759655    55.42711296
 C     22   6   5     1.530473558993   116.83020158   179.19639869
 H     25  22   6     1.105279434597   109.95725739   301.79939095
 H     25  22   6     1.104492599820   110.18017799    58.67926971
 C     25  22   6     1.536278704493   112.43953992   180.27408857
 H     28  25  22     1.108236262163   109.68143817   303.28125536
 H     28  25  22     1.115228101202   108.53272160    56.86185165
 C     28  25  22     1.494579084205   114.02776742   179.93388064
 H     31  28  25     1.097699994822   118.07163714   329.12207671
 C     31  28  25     1.494516318619   122.07044961   164.80536242
 H     33  31  28     1.115664955794   110.02969843    74.71142157
 H     33  31  28     1.108516560569   109.61416024   320.27324186
 C     33  31  28     1.536284460581   114.16404565   196.85166220
 H     36  33  31     1.105844002055   108.94419098   302.71916496
 H     36  33  31     1.104951888177   108.93609623    57.91507154
 C     36  33  31     1.530236389528   113.22433590   180.45582741
 H     39  36  33     1.103854861247   111.26809291   300.30310915
 H     39  36  33     1.103922970503   111.30919906    59.96883857
 C      1   2   3     1.216076131379   178.30977763     0.99896788
 H     42   1   5     1.072323695837   179.91222948   286.32227307
 H     19  16  13     1.102145936682   111.51200823   179.83216723
 H     39  36  33     1.102187143297   111.53256405   180.17512736
 H      2   1   3     1.094291665333   179.61229899   182.95796724

---------------------------
INTERNAL COORDINATES (A.U.)
---------------------------
 C      0   0   0     0.000000000000     0.00000000     0.00000000
 C      1   0   0     7.969174530095     0.00000000     0.00000000
 C      2   1   0     2.653819146657    61.06291307     0.00000000
 C      3   2   1     2.641086369934   117.31489788   359.93194501
 C      4   3   2     2.665361948459   121.69115955     0.10944914
 C      5   4   3     2.678533980462   120.61201289   359.94629931
 C      2   1   3     2.637850307401    60.43833641   179.97790769
 H      4   3   2     2.060278279615   120.60423621   180.10142207
 H      7   2   1     2.061615496907   118.64618602   179.98733148
 C      3   2   1     2.872657280393   119.51108384   179.75002613
 H     10   3   2     2.090292199548   108.20568161    53.61343617
 H     10   3   2     2.091087477413   108.25828540   300.23771315
 C     10   3   2     2.893154296274   116.90176320   176.93915757
 H     13  10   3     2.089513733379   109.66520662   302.52616992
 H     13  10   3     2.089247719407   109.77360860    58.77628640
 C     13  10   3     2.897504643562   112.86015807   180.58827229
 H     16  13  10     2.090126310472   109.23119060   302.30766639
 H     16  13  10     2.090071974542   109.23344168    57.66059659
 C     16  13  10     2.892755400067   113.18117024   180.00011104
 H     19  16  13     2.085785368469   111.27364191    59.69500023
 H     19  16  13     2.085730661550   111.28362834   299.99381172
 C      6   5   4     2.866292410713   119.82836868   179.87706786
 H     22   6   5     2.089870028298   108.23452814   302.79409059
 H     22   6   5     2.089439544875   108.31759655    55.42711296
 C     22   6   5     2.892175881705   116.83020158   179.19639869
 H     25  22   6     2.088675432844   109.95725739   301.79939095
 H     25  22   6     2.087188530602   110.18017799    58.67926971
 C     25  22   6     2.903146016868   112.43953992   180.27408857
 H     28  25  22     2.094263027168   109.68143817   303.28125536
 H     28  25  22     2.107475688124   108.53272160    56.86185165
 C     28  25  22     2.824345154634   114.02776742   179.93388064
 H     31  28  25     2.074352367420   118.07163714   329.12207671
 C     31  28  25     2.824226544866   122.07044961   164.80536242
 H     33  31  28     2.108301223664   110.02969843    74.71142157
 H     33  31  28     2.094792714392   109.61416024   320.27324186
 C     33  31  28     2.903156894297   114.16404565   196.85166220
 H     36  33  31     2.089742310723   108.94419098   302.71916496
 H     36  33  31     2.088056459813   108.93609623    57.91507154
 C     36  33  31     2.891727696368   113.22433590   180.45582741
 H     39  36  33     2.085983379355   111.26809291   300.30310915
 H     39  36  33     2.086112087196   111.30919906    59.96883857
 C      1   2   3     2.298050846304   178.30977763     0.99896788
 H     42   1   5     2.026398112045   179.91222948   286.32227307
 H     19  16  13     2.082753979943   111.51200823   179.83216723
 H     39  36  33     2.082831849161   111.53256405   180.17512736
 H      2   1   3     2.067911558112   179.61229899   182.95796724

---------------------
BASIS SET INFORMATION
---------------------
There are 2 groups of distinct atoms

 Group   1 Type C   : 17s4p1d contracted to 3s2p1d pattern {881/31/1}
 Group   2 Type H   : 4s1p contracted to 2s1p pattern {31/1}

Atom   0C    basis set group =>   1
Atom   1C    basis set group =>   1
Atom   2C    basis set group =>   1
Atom   3C    basis set group =>   1
Atom   4C    basis set group =>   1
Atom   5C    basis set group =>   1
Atom   6C    basis set group =>   1
Atom   7H    basis set group =>   2
Atom   8H    basis set group =>   2
Atom   9C    basis set group =>   1
Atom  10H    basis set group =>   2
Atom  11H    basis set group =>   2
Atom  12C    basis set group =>   1
Atom  13H    basis set group =>   2
Atom  14H    basis set group =>   2
Atom  15C    basis set group =>   1
Atom  16H    basis set group =>   2
Atom  17H    basis set group =>   2
Atom  18C    basis set group =>   1
Atom  19H    basis set group =>   2
Atom  20H    basis set group =>   2
Atom  21C    basis set group =>   1
Atom  22H    basis set group =>   2
Atom  23H    basis set group =>   2
Atom  24C    basis set group =>   1
Atom  25H    basis set group =>   2
Atom  26H    basis set group =>   2
Atom  27C    basis set group =>   1
Atom  28H    basis set group =>   2
Atom  29H    basis set group =>   2
Atom  30C    basis set group =>   1
Atom  31H    basis set group =>   2
Atom  32C    basis set group =>   1
Atom  33H    basis set group =>   2
Atom  34H    basis set group =>   2
Atom  35C    basis set group =>   1
Atom  36H    basis set group =>   2
Atom  37H    basis set group =>   2
Atom  38C    basis set group =>   1
Atom  39H    basis set group =>   2
Atom  40H    basis set group =>   2
Atom  41C    basis set group =>   1
Atom  42H    basis set group =>   2
Atom  43H    basis set group =>   2
Atom  44H    basis set group =>   2
Atom  45H    basis set group =>   2
---------------------------------
AUXILIARY/J BASIS SET INFORMATION
---------------------------------
There are 2 groups of distinct atoms

 Group   1 Type C   : 14s11p10d2f contracted to 14s11p10d2f pattern {11111111111111/11111111111/1111111111/11}
 Group   2 Type H   : 9s2p1d contracted to 9s2p1d pattern {111111111/11/1}

Atom   0C    basis set group =>   1
Atom   1C    basis set group =>   1
Atom   2C    basis set group =>   1
Atom   3C    basis set group =>   1
Atom   4C    basis set group =>   1
Atom   5C    basis set group =>   1
Atom   6C    basis set group =>   1
Atom   7H    basis set group =>   2
Atom   8H    basis set group =>   2
Atom   9C    basis set group =>   1
Atom  10H    basis set group =>   2
Atom  11H    basis set group =>   2
Atom  12C    basis set group =>   1
Atom  13H    basis set group =>   2
Atom  14H    basis set group =>   2
Atom  15C    basis set group =>   1
Atom  16H    basis set group =>   2
Atom  17H    basis set group =>   2
Atom  18C    basis set group =>   1
Atom  19H    basis set group =>   2
Atom  20H    basis set group =>   2
Atom  21C    basis set group =>   1
Atom  22H    basis set group =>   2
Atom  23H    basis set group =>   2
Atom  24C    basis set group =>   1
Atom  25H    basis set group =>   2
Atom  26H    basis set group =>   2
Atom  27C    basis set group =>   1
Atom  28H    basis set group =>   2
Atom  29H    basis set group =>   2
Atom  30C    basis set group =>   1
Atom  31H    basis set group =>   2
Atom  32C    basis set group =>   1
Atom  33H    basis set group =>   2
Atom  34H    basis set group =>   2
Atom  35C    basis set group =>   1
Atom  36H    basis set group =>   2
Atom  37H    basis set group =>   2
Atom  38C    basis set group =>   1
Atom  39H    basis set group =>   2
Atom  40H    basis set group =>   2
Atom  41C    basis set group =>   1
Atom  42H    basis set group =>   2
Atom  43H    basis set group =>   2
Atom  44H    basis set group =>   2
Atom  45H    basis set group =>   2
---------------------------------
AUXILIARY/C BASIS SET INFORMATION
---------------------------------
There are 2 groups of distinct atoms

 Group   1 Type C   : 14s11p10d2f contracted to 14s11p10d2f pattern {11111111111111/11111111111/1111111111/11}
 Group   2 Type H   : 9s2p1d contracted to 9s2p1d pattern {111111111/11/1}

Atom   0C    basis set group =>   1
Atom   1C    basis set group =>   1
Atom   2C    basis set group =>   1
Atom   3C    basis set group =>   1
Atom   4C    basis set group =>   1
Atom   5C    basis set group =>   1
Atom   6C    basis set group =>   1
Atom   7H    basis set group =>   2
Atom   8H    basis set group =>   2
Atom   9C    basis set group =>   1
Atom  10H    basis set group =>   2
Atom  11H    basis set group =>   2
Atom  12C    basis set group =>   1
Atom  13H    basis set group =>   2
Atom  14H    basis set group =>   2
Atom  15C    basis set group =>   1
Atom  16H    basis set group =>   2
Atom  17H    basis set group =>   2
Atom  18C    basis set group =>   1
Atom  19H    basis set group =>   2
Atom  20H    basis set group =>   2
Atom  21C    basis set group =>   1
Atom  22H    basis set group =>   2
Atom  23H    basis set group =>   2
Atom  24C    basis set group =>   1
Atom  25H    basis set group =>   2
Atom  26H    basis set group =>   2
Atom  27C    basis set group =>   1
Atom  28H    basis set group =>   2
Atom  29H    basis set group =>   2
Atom  30C    basis set group =>   1
Atom  31H    basis set group =>   2
Atom  32C    basis set group =>   1
Atom  33H    basis set group =>   2
Atom  34H    basis set group =>   2
Atom  35C    basis set group =>   1
Atom  36H    basis set group =>   2
Atom  37H    basis set group =>   2
Atom  38C    basis set group =>   1
Atom  39H    basis set group =>   2
Atom  40H    basis set group =>   2
Atom  41C    basis set group =>   1
Atom  42H    basis set group =>   2
Atom  43H    basis set group =>   2
Atom  44H    basis set group =>   2
Atom  45H    basis set group =>   2
----------------------------------
AUXILIARY/JK BASIS SET INFORMATION
----------------------------------
There are 2 groups of distinct atoms

 Group   1 Type C   : 14s11p10d2f contracted to 14s11p10d2f pattern {11111111111111/11111111111/1111111111/11}
 Group   2 Type H   : 9s2p1d contracted to 9s2p1d pattern {111111111/11/1}

Atom   0C    basis set group =>   1
Atom   1C    basis set group =>   1
Atom   2C    basis set group =>   1
Atom   3C    basis set group =>   1
Atom   4C    basis set group =>   1
Atom   5C    basis set group =>   1
Atom   6C    basis set group =>   1
Atom   7H    basis set group =>   2
Atom   8H    basis set group =>   2
Atom   9C    basis set group =>   1
Atom  10H    basis set group =>   2
Atom  11H    basis set group =>   2
Atom  12C    basis set group =>   1
Atom  13H    basis set group =>   2
Atom  14H    basis set group =>   2
Atom  15C    basis set group =>   1
Atom  16H    basis set group =>   2
Atom  17H    basis set group =>   2
Atom  18C    basis set group =>   1
Atom  19H    basis set group =>   2
Atom  20H    basis set group =>   2
Atom  21C    basis set group =>   1
Atom  22H    basis set group =>   2
Atom  23H    basis set group =>   2
Atom  24C    basis set group =>   1
Atom  25H    basis set group =>   2
Atom  26H    basis set group =>   2
Atom  27C    basis set group =>   1
Atom  28H    basis set group =>   2
Atom  29H    basis set group =>   2
Atom  30C    basis set group =>   1
Atom  31H    basis set group =>   2
Atom  32C    basis set group =>   1
Atom  33H    basis set group =>   2
Atom  34H    basis set group =>   2
Atom  35C    basis set group =>   1
Atom  36H    basis set group =>   2
Atom  37H    basis set group =>   2
Atom  38C    basis set group =>   1
Atom  39H    basis set group =>   2
Atom  40H    basis set group =>   2
Atom  41C    basis set group =>   1
Atom  42H    basis set group =>   2
Atom  43H    basis set group =>   2
Atom  44H    basis set group =>   2
Atom  45H    basis set group =>   2

Checking for AutoStart:
The File: cc-pVDZ.gbw exists
Trying to determine its content:
     ... Fine, the file contains calculation information
     ... Fine, the calculation information was read
     ... Fine, the file contains a basis set
     ... Fine, the basis set was read
     ... Fine, the file contains a geometry
     ... Fine, the geometry was read
     ... Fine, the file contains a set of orbitals
     ... Fine, the orbitals can be read
     => possible old guess file was deleted
     => GBW file was renamed to GES file
     => GES file is set as startup file
     => Guess is set to MORead
     ... now leaving AutoStart



           ************************************************************
           *        Program running with 16 parallel MPI-processes    *
           *              working on a common directory               *
           ************************************************************
------------------------------------------------------------------------------
                           ORCA GTO INTEGRAL CALCULATION
                           -- RI-GTO INTEGRALS CHOSEN --
------------------------------------------------------------------------------
------------------------------------------------------------------------------
                   ___                                                        
                  /   \      - P O W E R E D   B Y -                         
                 /     \                                                     
                 |  |  |   _    _      __       _____    __    __             
                 |  |  |  | |  | |    /  \     |  _  \  |  |  /  |          
                  \  \/   | |  | |   /    \    | | | |  |  | /  /          
                 / \  \   | |__| |  /  /\  \   | |_| |  |  |/  /          
                |  |  |   |  __  | /  /__\  \  |    /   |      \           
                |  |  |   | |  | | |   __   |  |    \   |  |\   \          
                \     /   | |  | | |  |  |  |  | |\  \  |  | \   \       
                 \___/    |_|  |_| |__|  |__|  |_| \__\ |__|  \__/        
                                                                              
                      - O R C A' S   B I G   F R I E N D -                    
                                      &                                       
                       - I N T E G R A L  F E E D E R -                       
                                                                              
 v1 FN, 2020, v2 2021                                                         
------------------------------------------------------------------------------


Reading SHARK input file cc-pVDZ.SHARKINP.tmp ... ok
----------------------
SHARK INTEGRAL PACKAGE
----------------------

Number of atoms                             ...     46
Number of basis functions                   ...    515
Number of shells                            ...    309
Maximum angular momentum                    ...      2
Integral batch strategy                     ... SHARK/LIBINT Hybrid
RI-J (if used) integral strategy            ... SPLIT-RIJ (Revised 2003 algorithm where possible)
Printlevel                                  ...      1
Contraction scheme used                     ... PARTIAL GENERAL contraction
Coulomb Range Separation                    ... NOT USED
Exchange Range Separation                   ... NOT USED
Finite Nucleus Model                        ... NOT USED
Auxiliary Coulomb fitting basis             ... AVAILABLE
   # of basis functions in Aux-J            ...   2649
   # of shells in Aux-J                     ...   1027
   Maximum angular momentum in Aux-J        ...      3
Auxiliary J/K fitting basis                 ... AVAILABLE
   # of basis functions in Aux-JK           ...   2649
   # of shells in Aux-JK                    ...   1027
   Maximum angular momentum in Aux-JK       ...      3
Auxiliary Correlation fitting basis         ... AVAILABLE
   # of basis functions in Aux-C            ...   2649
   # of shells in Aux-C                     ...   1027
   Maximum angular momentum in Aux-C        ...      3
Auxiliary 'external' fitting basis          ... NOT available
Integral threshold                          ...     1.000000e-10
Primitive cut-off                           ...     1.000000e-11
Primitive pair pre-selection threshold      ...     1.000000e-11

Calculating pre-screening integrals         ... done (  0.0 sec) Dimension = 309
Calculating pre-screening integrals (ORCA)  ... done (  0.1 sec) Dimension = 195
Organizing shell pair data                  ... done (  0.1 sec)
Shell pair information
Total number of shell pairs                 ...     47895
Shell pairs after pre-screening             ...     20180
Total number of primitive shell pairs       ...     80739
Primitive shell pairs kept                  ...     28320
          la=0 lb=0:   9049 shell pairs
          la=1 lb=0:   7073 shell pairs
          la=1 lb=1:   1246 shell pairs
          la=2 lb=0:   1988 shell pairs
          la=2 lb=1:    712 shell pairs
          la=2 lb=2:    112 shell pairs

Calculating one electron integrals          ... done (  0.0 sec)
Calculating RI/J V-Matrix + Cholesky decomp.... done (  0.4 sec)
Calculating RI/JK V-Matrix + Cholesky decomp... done (  0.4 sec)
Calculating RI/C V-Matrix + Cholesky decomp.... done (  0.4 sec)
Calculating Nuclear repulsion               ... done (  0.0 sec) ENN=   1246.889446385646 Eh

SHARK setup successfully completed in   1.9 seconds

Maximum memory used throughout the entire GTOINT-calculation: 32.2 MB


           ************************************************************
           *        Program running with 16 parallel MPI-processes    *
           *              working on a common directory               *
           ************************************************************
-------------------------------------------------------------------------------
                                 ORCA SCF
-------------------------------------------------------------------------------

------------
SCF SETTINGS
------------
Hamiltonian:
 Density Functional     Method          .... DFT(GTOs)
 Exchange Functional    Exchange        .... B88
   X-Alpha parameter    XAlpha          ....  0.666667
   Becke's b parameter  XBeta           ....  0.004200
 Correlation Functional Correlation     .... LYP
 LDA part of GGA corr.  LDAOpt          .... VWN-5
 Gradients option       PostSCFGGA      .... off
 Hybrid DFT is turned on
   Fraction HF Exchange ScalHFX         ....  0.200000
   Scaling of DF-GGA-X  ScalDFX         ....  0.720000
   Scaling of DF-GGA-C  ScalDFC         ....  0.810000
   Scaling of DF-LDA-C  ScalLDAC        ....  1.000000
   Perturbative correction              ....  0.000000
   Density functional embedding theory  .... OFF
   NL short-range parameter             ....  4.800000
 RI-approximation to the Coulomb term is turned on
   Number of AuxJ basis functions       .... 2649
   RIJ-COSX (HFX calculated with COS-X)).... on


General Settings:
 Integral files         IntName         .... cc-pVDZ
 Hartree-Fock type      HFTyp           .... UHF
 Total Charge           Charge          ....    0
 Multiplicity           Mult            ....    2
 Number of Electrons    NEL             ....  141
 Basis Dimension        Dim             ....  401
 Nuclear Repulsion      ENuc            ....   1246.8894463856 Eh

Convergence Acceleration:
 DIIS                   CNVDIIS         .... on
   Start iteration      DIISMaxIt       ....    12
   Startup error        DIISStart       ....  0.200000
   # of expansion vecs  DIISMaxEq       ....     5
   Bias factor          DIISBfac        ....   1.050
   Max. coefficient     DIISMaxC        ....  10.000
 Trust-Rad. Augm. Hess. CNVTRAH         .... auto
   Auto Start mean grad. ratio tolernc. ....  1.125000
   Auto Start start iteration           ....     1
   Auto Start num. interpolation iter.  ....    10
   Max. Number of Micro iterations      ....    16
   Max. Number of Macro iterations      .... Maxiter - #DIIS iter
   Number of Davidson start vectors     ....     2
   Converg. threshold I  (grad. norm)   ....   5.000e-05
   Converg. threshold II (energy diff.) ....   1.000e-06
   Grad. Scal. Fac. for Micro threshold ....   0.100
   Minimum threshold for Micro iter.    ....   0.010
   NR start threshold (gradient norm)   ....   0.001
   Initial trust radius                 ....   0.400
   Minimum AH scaling param. (alpha)    ....   1.000
   Maximum AH scaling param. (alpha)    .... 1000.000
   Orbital update algorithm             .... Taylor
   White noise on init. David. guess    .... on
   Maximum white noise                  ....   0.010
   Quad. conv. algorithm                .... NR
 SOSCF                  CNVSOSCF        .... off
 Level Shifting         CNVShift        .... on
   Level shift para.    LevelShift      ....    0.2500
   Turn off err/grad.   ShiftErr        ....    0.0010
 Zerner damping         CNVZerner       .... off
 Static damping         CNVDamp         .... on
   Fraction old density DampFac         ....    0.7000
   Max. Damping (<1)    DampMax         ....    0.9800
   Min. Damping (>=0)   DampMin         ....    0.0000
   Turn off err/grad.   DampErr         ....    0.1000
 Fernandez-Rico         CNVRico         .... off

SCF Procedure:
 Maximum # iterations   MaxIter         ....   125
 SCF integral mode      SCFMode         .... Direct
   Integral package                     .... SHARK and LIBINT hybrid scheme
 Reset frequency        DirectResetFreq ....    20
 Integral Threshold     Thresh          ....  1.000e-10 Eh
 Primitive CutOff       TCut            ....  1.000e-11 Eh

Convergence Tolerance:
 Convergence Check Mode ConvCheckMode   .... Total+1el-Energy
 Convergence forced     ConvForced      .... 0
 Energy Change          TolE            ....  1.000e-06 Eh
 1-El. energy change                    ....  1.000e-03 Eh
 DIIS Error             TolErr          ....  1.000e-06


Diagonalization of the overlap matrix:
Smallest eigenvalue                        ... 1.539e-04
Time for diagonalization                   ...    0.030 sec
Threshold for overlap eigenvalues          ... 1.000e-08
Number of eigenvalues below threshold      ... 0
Time for construction of square roots      ...    0.035 sec
Total time needed                          ...    0.066 sec

---------------------
INITIAL GUESS: MOREAD
---------------------
Guess MOs are being read from file: cc-pVDZ.ges
Input geometry compatible with but different from current geometry
Input basis set matches current basis set (good)
MOs were renormalized
MOs were reorthogonalized (Cholesky)
                      ------------------
                      INITIAL GUESS DONE (   0.1 sec)
                      ------------------
-------------------
DFT GRID GENERATION
-------------------

General Integration Accuracy     IntAcc      ... 4.388
Radial Grid Type                 RadialGrid  ... OptM3 with GC (2021)
Angular Grid (max. ang.)         AngularGrid ... 4 (Lebedev-302)
Angular grid pruning method      GridPruning ... 4 (adaptive)
Weight generation scheme         WeightScheme... Becke
Basis function cutoff            BFCut       ... 1.0000e-10
Integration weight cutoff        WCut        ... 1.0000e-14
Angular grids for H and He will be reduced by one unit
Partially contracted basis set               ... off
Rotationally invariant grid construction     ... off

Total number of grid points                  ...   199725
Total number of batches                      ...     3145
Average number of points per batch           ...       63
Average number of grid points per atom       ...     4342
Time for grid setup =    1.088 sec

--------------------
COSX GRID GENERATION
--------------------

GRIDX 1
-------
General Integration Accuracy     IntAcc      ... 3.816
Radial Grid Type                 RadialGrid  ... OptM3 with GC (2021)
Angular Grid (max. ang.)         AngularGrid ... 1 (Lebedev-50)
Angular grid pruning method      GridPruning ... 4 (adaptive)
Weight generation scheme         WeightScheme... Becke
Basis function cutoff            BFCut       ... 1.0000e-10
Integration weight cutoff        WCut        ... 1.0000e-14
Angular grids for H and He will be reduced by one unit
Partially contracted basis set               ... on
Rotationally invariant grid construction     ... off

Total number of grid points                  ...    25504
Total number of batches                      ...      424
Average number of points per batch           ...       60
Average number of grid points per atom       ...      554
UseSFitting                                  ... on

GRIDX 2
-------
General Integration Accuracy     IntAcc      ... 4.020
Radial Grid Type                 RadialGrid  ... OptM3 with GC (2021)
Angular Grid (max. ang.)         AngularGrid ... 2 (Lebedev-110)
Angular grid pruning method      GridPruning ... 4 (adaptive)
Weight generation scheme         WeightScheme... Becke
Basis function cutoff            BFCut       ... 1.0000e-10
Integration weight cutoff        WCut        ... 1.0000e-14
Angular grids for H and He will be reduced by one unit
Partially contracted basis set               ... on
Rotationally invariant grid construction     ... off

Total number of grid points                  ...    53566
Total number of batches                      ...      862
Average number of points per batch           ...       62
Average number of grid points per atom       ...     1164
UseSFitting                                  ... on

GRIDX 3
-------
General Integration Accuracy     IntAcc      ... 4.338
Radial Grid Type                 RadialGrid  ... OptM3 with GC (2021)
Angular Grid (max. ang.)         AngularGrid ... 3 (Lebedev-194)
Angular grid pruning method      GridPruning ... 4 (adaptive)
Weight generation scheme         WeightScheme... Becke
Basis function cutoff            BFCut       ... 1.0000e-10
Integration weight cutoff        WCut        ... 1.0000e-14
Angular grids for H and He will be reduced by one unit
Partially contracted basis set               ... on
Rotationally invariant grid construction     ... off

Total number of grid points                  ...   116749
Total number of batches                      ...     1847
Average number of points per batch           ...       63
Average number of grid points per atom       ...     2538
UseSFitting                                  ... on

Time for X-Grid setup             =    1.918 sec

 re-compute Schwartz prescreening matrix in partically contracted basis (1) ...done (   0.102 sec)
--------------
SCF ITERATIONS
--------------
ITER       Energy         Delta-E        Max-DP      RMS-DP      [F,P]     Damp
               ***  Starting incremental Fock matrix formation  ***
  0   -739.6954412621   0.000000000000 0.00010263  0.00000168  0.0004574 0.7000
  1   -739.6954446156  -0.000003353429 0.00009377  0.00000155  0.0003607 0.7000
                               ***Turning on DIIS***
  2   -739.6954472563  -0.000002640704 0.00025600  0.00000435  0.0002701 0.0000
               *** Restarting incremental Fock matrix formation ***
                                   *** Resetting DIIS ***
  3   -739.6954542700  -0.000007013752 0.00008373  0.00000065  0.0000502 0.0000
                 **** Energy Check signals convergence ****

               *****************************************************
               *                     SUCCESS                       *
               *           SCF CONVERGED AFTER   4 CYCLES          *
               *****************************************************

Old exchange energy                            =    -21.608697040 Eh
New exchange energy                            =    -21.608692241 Eh
Exchange energy change after final integration =      0.000004799 Eh
Total energy after final integration           =   -739.695449550 Eh
Final COS-X integration done in                =     6.703 sec

----------------
TOTAL SCF ENERGY
----------------

Total Energy       :         -739.69544955 Eh          -20128.13648 eV

Components:
Nuclear Repulsion  :         1246.88944639 Eh           33929.58678 eV
Electronic Energy  :        -1986.58489594 Eh          -54057.72326 eV
One Electron Energy:        -3471.57044395 Eh          -94466.23435 eV
Two Electron Energy:         1484.98554801 Eh           40408.51109 eV
Max COSX asymmetry :            0.00000049 Eh               0.00001 eV

Virial components:
Potential Energy   :        -1473.97966078 Eh          -40109.02567 eV
Kinetic Energy     :          734.28421123 Eh           19980.88920 eV
Virial Ratio       :            2.00736941


DFT components:
N(Alpha)           :       71.000043350870 electrons
N(Beta)            :       70.000044553764 electrons
N(Total)           :      141.000087904634 electrons
E(X)               :      -85.625038299900 Eh       
E(C)               :       -5.415283953164 Eh       
E(XC)              :      -91.040322253064 Eh       
DFET-embed. en.    :        0.000000000000 Eh       

---------------
SCF CONVERGENCE
---------------

  Last Energy change         ...   -7.9096e-08  Tolerance :   1.0000e-06
  Last MAX-Density change    ...    0.0000e+00  Tolerance :   1.0000e-05
  Last RMS-Density change    ...    0.0000e+00  Tolerance :   1.0000e-06
  Last DIIS Error            ...    1.4100e-05  Tolerance :   1.0000e-06

             **** THE GBW FILE WAS UPDATED (cc-pVDZ.gbw) ****
             **** DENSITY cc-pVDZ.scfp WAS UPDATED ****
             **** ENERGY FILE WAS UPDATED (cc-pVDZ.en.tmp) ****
----------------------
UHF SPIN CONTAMINATION
----------------------

Warning: in a DFT calculation there is little theoretical justification to 
         calculate <S**2> as in Hartree-Fock theory. We will do it anyways
         but you should keep in mind that the values have only limited relevance

Expectation value of <S**2>     :     0.754009
Ideal value S*(S+1) for S=0.5   :     0.750000
Deviation                       :     0.004009

             **** THE GBW FILE WAS UPDATED (cc-pVDZ.gbw) ****
             **** DENSITY cc-pVDZ.scfp WAS UPDATED ****
----------------
ORBITAL ENERGIES
----------------
                 SPIN UP ORBITALS
  NO   OCC          E(Eh)            E(eV) 
   0   1.0000     -10.205271      -277.6995 
   1   1.0000     -10.195723      -277.4397 
   2   1.0000     -10.192116      -277.3416 
   3   1.0000     -10.187646      -277.2199 
   4   1.0000     -10.186850      -277.1983 
   5   1.0000     -10.186369      -277.1852 
   6   1.0000     -10.185083      -277.1502 
   7   1.0000     -10.184077      -277.1228 
   8   1.0000     -10.183481      -277.1066 
   9   1.0000     -10.182734      -277.0863 
  10   1.0000     -10.182070      -277.0682 
  11   1.0000     -10.181409      -277.0502 
  12   1.0000     -10.181379      -277.0494 
  13   1.0000     -10.181157      -277.0434 
  14   1.0000     -10.181125      -277.0425 
  15   1.0000     -10.180744      -277.0321 
  16   1.0000     -10.179311      -276.9931 
  17   1.0000     -10.175704      -276.8950 
  18   1.0000     -10.173848      -276.8445 
  19   1.0000      -0.863623       -23.5004 
  20   1.0000      -0.813183       -22.1278 
  21   1.0000      -0.803402       -21.8617 
  22   1.0000      -0.784571       -21.3493 
  23   1.0000      -0.776576       -21.1317 
  24   1.0000      -0.758556       -20.6413 
  25   1.0000      -0.731687       -19.9102 
  26   1.0000      -0.721266       -19.6266 
  27   1.0000      -0.705029       -19.1848 
  28   1.0000      -0.672356       -18.2957 
  29   1.0000      -0.639177       -17.3929 
  30   1.0000      -0.617991       -16.8164 
  31   1.0000      -0.609298       -16.5798 
  32   1.0000      -0.584547       -15.9063 
  33   1.0000      -0.577374       -15.7111 
  34   1.0000      -0.561631       -15.2827 
  35   1.0000      -0.559916       -15.2361 
  36   1.0000      -0.525158       -14.2903 
  37   1.0000      -0.493269       -13.4225 
  38   1.0000      -0.470383       -12.7998 
  39   1.0000      -0.470105       -12.7922 
  40   1.0000      -0.467109       -12.7107 
  41   1.0000      -0.459844       -12.5130 
  42   1.0000      -0.453951       -12.3526 
  43   1.0000      -0.430258       -11.7079 
  44   1.0000      -0.426994       -11.6191 
  45   1.0000      -0.422261       -11.4903 
  46   1.0000      -0.419056       -11.4031 
  47   1.0000      -0.412981       -11.2378 
  48   1.0000      -0.406595       -11.0640 
  49   1.0000      -0.405042       -11.0218 
  50   1.0000      -0.383815       -10.4441 
  51   1.0000      -0.379684       -10.3317 
  52   1.0000      -0.374676       -10.1955 
  53   1.0000      -0.363523        -9.8920 
  54   1.0000      -0.361772        -9.8443 
  55   1.0000      -0.353823        -9.6280 
  56   1.0000      -0.349240        -9.5033 
  57   1.0000      -0.347258        -9.4494 
  58   1.0000      -0.333606        -9.0779 
  59   1.0000      -0.330666        -8.9979 
  60   1.0000      -0.327845        -8.9211 
  61   1.0000      -0.325689        -8.8624 
  62   1.0000      -0.323592        -8.8054 
  63   1.0000      -0.322570        -8.7776 
  64   1.0000      -0.321145        -8.7388 
  65   1.0000      -0.313031        -8.5180 
  66   1.0000      -0.298415        -8.1203 
  67   1.0000      -0.270285        -7.3548 
  68   1.0000      -0.240789        -6.5522 
  69   1.0000      -0.222498        -6.0545 
  70   1.0000      -0.180773        -4.9191 
  71   0.0000      -0.029946        -0.8149 
  72   0.0000       0.002631         0.0716 
  73   0.0000       0.049785         1.3547 
  74   0.0000       0.062050         1.6885 
  75   0.0000       0.064738         1.7616 
  76   0.0000       0.072426         1.9708 
  77   0.0000       0.076544         2.0829 
  78   0.0000       0.077199         2.1007 
  79   0.0000       0.082853         2.2546 
  80   0.0000       0.086534         2.3547 
  81   0.0000       0.093278         2.5382 
  82   0.0000       0.095966         2.6114 
  83   0.0000       0.097125         2.6429 
  84   0.0000       0.100708         2.7404 
  85   0.0000       0.104289         2.8378 
  86   0.0000       0.113186         3.0800 
  87   0.0000       0.115271         3.1367 
  88   0.0000       0.128139         3.4868 
  89   0.0000       0.136632         3.7179 
  90   0.0000       0.141550         3.8518 
  91   0.0000       0.148412         4.0385 
  92   0.0000       0.152338         4.1453 
  93   0.0000       0.157058         4.2738 
  94   0.0000       0.159201         4.3321 
  95   0.0000       0.160759         4.3745 
  96   0.0000       0.162024         4.4089 
  97   0.0000       0.167016         4.5447 
  98   0.0000       0.172283         4.6881 
  99   0.0000       0.178191         4.8488 
 100   0.0000       0.179195         4.8761 
 101   0.0000       0.184017         5.0074 
 102   0.0000       0.199341         5.4243 
 103   0.0000       0.203277         5.5315 
 104   0.0000       0.212198         5.7742 
 105   0.0000       0.216901         5.9022 
 106   0.0000       0.226179         6.1546 
 107   0.0000       0.233078         6.3424 
 108   0.0000       0.236686         6.4406 
 109   0.0000       0.240455         6.5431 
 110   0.0000       0.256263         6.9733 
 111   0.0000       0.271614         7.3910 
 112   0.0000       0.279869         7.6156 
 113   0.0000       0.287063         7.8114 
 114   0.0000       0.296316         8.0632 
 115   0.0000       0.329964         8.9788 
 116   0.0000       0.337614         9.1869 
 117   0.0000       0.353177         9.6104 
 118   0.0000       0.361337         9.8325 
 119   0.0000       0.374742        10.1973 
 120   0.0000       0.408809        11.1242 
 121   0.0000       0.412068        11.2129 
 122   0.0000       0.413533        11.2528 
 123   0.0000       0.416773        11.3410 
 124   0.0000       0.420537        11.4434 
 125   0.0000       0.420758        11.4494 
 126   0.0000       0.426071        11.5940 
 127   0.0000       0.437190        11.8966 
 128   0.0000       0.448531        12.2051 
 129   0.0000       0.455204        12.3867 
 130   0.0000       0.459268        12.4973 
 131   0.0000       0.463545        12.6137 
 132   0.0000       0.473511        12.8849 
 133   0.0000       0.480557        13.0766 
 134   0.0000       0.487243        13.2585 
 135   0.0000       0.489799        13.3281 
 136   0.0000       0.497432        13.5358 
 137   0.0000       0.503683        13.7059 
 138   0.0000       0.505225        13.7479 
 139   0.0000       0.518367        14.1055 
 140   0.0000       0.523684        14.2502 
 141   0.0000       0.526255        14.3201 
 142   0.0000       0.535503        14.5718 
 143   0.0000       0.536966        14.6116 
 144   0.0000       0.545912        14.8550 
 145   0.0000       0.555768        15.1232 
 146   0.0000       0.569020        15.4838 
 147   0.0000       0.574664        15.6374 
 148   0.0000       0.580879        15.8065 
 149   0.0000       0.598618        16.2892 
 150   0.0000       0.601926        16.3792 
 151   0.0000       0.609113        16.5748 
 152   0.0000       0.610971        16.6254 
 153   0.0000       0.615218        16.7409 
 154   0.0000       0.618981        16.8433 
 155   0.0000       0.627084        17.0638 
 156   0.0000       0.629392        17.1266 
 157   0.0000       0.634662        17.2700 
 158   0.0000       0.637881        17.3576 
 159   0.0000       0.642993        17.4967 
 160   0.0000       0.644861        17.5476 
 161   0.0000       0.646823        17.6010 
 162   0.0000       0.651284        17.7223 
 163   0.0000       0.656784        17.8720 
 164   0.0000       0.658232        17.9114 
 165   0.0000       0.658631        17.9223 
 166   0.0000       0.659664        17.9504 
 167   0.0000       0.661348        17.9962 
 168   0.0000       0.662918        18.0389 
 169   0.0000       0.665649        18.1132 
 170   0.0000       0.670564        18.2470 
 171   0.0000       0.672899        18.3105 
 172   0.0000       0.679258        18.4836 
 173   0.0000       0.683979        18.6120 
 174   0.0000       0.685518        18.6539 
 175   0.0000       0.690437        18.7878 
 176   0.0000       0.695356        18.9216 
 177   0.0000       0.697038        18.9674 
 178   0.0000       0.702999        19.1296 
 179   0.0000       0.706162        19.2157 
 180   0.0000       0.712835        19.3972 
 181   0.0000       0.714623        19.4459 
 182   0.0000       0.719746        19.5853 
 183   0.0000       0.721099        19.6221 
 184   0.0000       0.726251        19.7623 
 185   0.0000       0.731377        19.9018 
 186   0.0000       0.737360        20.0646 
 187   0.0000       0.743229        20.2243 
 188   0.0000       0.760924        20.7058 
 189   0.0000       0.765979        20.8434 
 190   0.0000       0.777243        21.1499 
 191   0.0000       0.779064        21.1994 
 192   0.0000       0.803461        21.8633 
 193   0.0000       0.813974        22.1494 
 194   0.0000       0.817173        22.2364 
 195   0.0000       0.834401        22.7052 
 196   0.0000       0.844693        22.9853 
 197   0.0000       0.851398        23.1677 
 198   0.0000       0.858407        23.3585 
 199   0.0000       0.878760        23.9123 
 200   0.0000       0.893010        24.3001 
 201   0.0000       0.901715        24.5369 
 202   0.0000       0.909233        24.7415 
 203   0.0000       0.926950        25.2236 
 204   0.0000       0.935329        25.4516 
 205   0.0000       0.974829        26.5265 
 206   0.0000       0.988951        26.9107 
 207   0.0000       0.995865        27.0989 
 208   0.0000       1.005355        27.3571 
 209   0.0000       1.008856        27.4524 
 210   0.0000       1.020051        27.7570 
 211   0.0000       1.031629        28.0721 
 212   0.0000       1.036510        28.2049 
 213   0.0000       1.048297        28.5256 
 214   0.0000       1.056157        28.7395 
 215   0.0000       1.057968        28.7888 
 216   0.0000       1.070553        29.1312 
 217   0.0000       1.082286        29.4505 
 218   0.0000       1.086829        29.5741 
 219   0.0000       1.103766        30.0350 
 220   0.0000       1.141690        31.0670 
 221   0.0000       1.152277        31.3551 
 222   0.0000       1.159706        31.5572 
 223   0.0000       1.190563        32.3969 
 224   0.0000       1.205557        32.8049 
 225   0.0000       1.206723        32.8366 
 226   0.0000       1.212776        33.0013 
 227   0.0000       1.215706        33.0811 
 228   0.0000       1.216331        33.0981 
 229   0.0000       1.218241        33.1500 
 230   0.0000       1.223964        33.3057 
 231   0.0000       1.225086        33.3363 
 232   0.0000       1.233049        33.5530 
 233   0.0000       1.248267        33.9671 
 234   0.0000       1.269633        34.5485 
 235   0.0000       1.286923        35.0190 
 236   0.0000       1.293088        35.1867 
 237   0.0000       1.312272        35.7087 
 238   0.0000       1.317948        35.8632 
 239   0.0000       1.320899        35.9435 
 240   0.0000       1.333532        36.2872 
 241   0.0000       1.339502        36.4497 
 242   0.0000       1.340694        36.4821 
 243   0.0000       1.351787        36.7840 
 244   0.0000       1.365357        37.1532 
 245   0.0000       1.386290        37.7229 
 246   0.0000       1.412153        38.4266 
 247   0.0000       1.415153        38.5083 
 248   0.0000       1.426429        38.8151 
 249   0.0000       1.427700        38.8497 
 250   0.0000       1.428406        38.8689 
 251   0.0000       1.432592        38.9828 
 252   0.0000       1.447834        39.3976 
 253   0.0000       1.462082        39.7853 
 254   0.0000       1.469930        39.9988 
 255   0.0000       1.472433        40.0669 
 256   0.0000       1.486546        40.4510 
 257   0.0000       1.495115        40.6842 
 258   0.0000       1.505140        40.9569 
 259   0.0000       1.508164        41.0392 
 260   0.0000       1.518995        41.3339 
 261   0.0000       1.526724        41.5443 
 262   0.0000       1.550854        42.2009 
 263   0.0000       1.554281        42.2941 
 264   0.0000       1.586464        43.1699 
 265   0.0000       1.594204        43.3805 
 266   0.0000       1.598115        43.4869 
 267   0.0000       1.605692        43.6931 
 268   0.0000       1.611177        43.8424 
 269   0.0000       1.619786        44.0766 
 270   0.0000       1.626752        44.2662 
 271   0.0000       1.628064        44.3019 
 272   0.0000       1.628694        44.3190 
 273   0.0000       1.631264        44.3889 
 274   0.0000       1.632823        44.4314 
 275   0.0000       1.639594        44.6156 
 276   0.0000       1.646055        44.7914 
 277   0.0000       1.647698        44.8361 
 278   0.0000       1.650907        44.9235 
 279   0.0000       1.659318        45.1523 
 280   0.0000       1.664603        45.2961 
 281   0.0000       1.666785        45.3555 
 282   0.0000       1.673344        45.5340 
 283   0.0000       1.678340        45.6700 
 284   0.0000       1.686883        45.9024 
 285   0.0000       1.689291        45.9680 
 286   0.0000       1.694795        46.1177 
 287   0.0000       1.696786        46.1719 
 288   0.0000       1.699170        46.2368 
 289   0.0000       1.702992        46.3408 
 290   0.0000       1.706312        46.4311 
 291   0.0000       1.714501        46.6540 
 292   0.0000       1.716481        46.7078 
 293   0.0000       1.718436        46.7610 
 294   0.0000       1.720168        46.8082 
 295   0.0000       1.726059        46.9684 
 296   0.0000       1.736215        47.2448 
 297   0.0000       1.744740        47.4768 
 298   0.0000       1.755137        47.7597 
 299   0.0000       1.759907        47.8895 
 300   0.0000       1.764099        48.0036 
 301   0.0000       1.767884        48.1066 
 302   0.0000       1.771624        48.2084 
 303   0.0000       1.777658        48.3725 
 304   0.0000       1.782123        48.4940 
 305   0.0000       1.795373        48.8546 
 306   0.0000       1.797039        48.8999 
 307   0.0000       1.799117        48.9565 
 308   0.0000       1.806565        49.1591 
 309   0.0000       1.822091        49.5816 
 310   0.0000       1.830480        49.8099 
 311   0.0000       1.842866        50.1469 
 312   0.0000       1.853861        50.4461 
 313   0.0000       1.859106        50.5889 
 314   0.0000       1.869033        50.8590 
 315   0.0000       1.873875        50.9907 
 316   0.0000       1.881628        51.2017 
 317   0.0000       1.894098        51.5410 
 318   0.0000       1.906237        51.8713 
 319   0.0000       1.918485        52.2046 
 320   0.0000       1.925986        52.4087 
 321   0.0000       1.945250        52.9329 
 322   0.0000       1.945453        52.9385 
 323   0.0000       1.962033        53.3896 
 324   0.0000       1.966468        53.5103 
 325   0.0000       1.972717        53.6803 
 326   0.0000       1.982683        53.9516 
 327   0.0000       1.996633        54.3311 
 328   0.0000       2.006522        54.6002 
 329   0.0000       2.015776        54.8520 
 330   0.0000       2.026581        55.1461 
 331   0.0000       2.042917        55.5906 
 332   0.0000       2.046087        55.6769 
 333   0.0000       2.053764        55.8858 
 334   0.0000       2.070032        56.3284 
 335   0.0000       2.089633        56.8618 
 336   0.0000       2.096828        57.0576 
 337   0.0000       2.102130        57.2019 
 338   0.0000       2.107129        57.3379 
 339   0.0000       2.118390        57.6443 
 340   0.0000       2.144170        58.3458 
 341   0.0000       2.153953        58.6120 
 342   0.0000       2.166797        58.9615 
 343   0.0000       2.171008        59.0761 
 344   0.0000       2.183341        59.4117 
 345   0.0000       2.196089        59.7586 
 346   0.0000       2.203035        59.9476 
 347   0.0000       2.213235        60.2252 
 348   0.0000       2.221873        60.4602 
 349   0.0000       2.230296        60.6894 
 350   0.0000       2.235589        60.8335 
 351   0.0000       2.244520        61.0765 
 352   0.0000       2.259945        61.4962 
 353   0.0000       2.267111        61.6912 
 354   0.0000       2.279956        62.0408 
 355   0.0000       2.283964        62.1498 
 356   0.0000       2.296463        62.4899 
 357   0.0000       2.306816        62.7716 
 358   0.0000       2.310223        62.8644 
 359   0.0000       2.316185        63.0266 
 360   0.0000       2.319644        63.1207 
 361   0.0000       2.330297        63.4106 
 362   0.0000       2.333565        63.4995 
 363   0.0000       2.344646        63.8011 
 364   0.0000       2.357332        64.1463 
 365   0.0000       2.377252        64.6883 
 366   0.0000       2.387694        64.9725 
 367   0.0000       2.406450        65.4828 
 368   0.0000       2.411599        65.6229 
 369   0.0000       2.412948        65.6597 
 370   0.0000       2.416596        65.7589 
 371   0.0000       2.428081        66.0714 
 372   0.0000       2.438076        66.3434 
 373   0.0000       2.444183        66.5096 
 374   0.0000       2.452813        66.7444 
 375   0.0000       2.478002        67.4299 
 376   0.0000       2.479483        67.4702 
 377   0.0000       2.488648        67.7195 
 378   0.0000       2.521836        68.6227 
 379   0.0000       2.530567        68.8602 
 380   0.0000       2.548778        69.3558 
 381   0.0000       2.556980        69.5790 
 382   0.0000       2.582994        70.2868 
 383   0.0000       2.599602        70.7388 
 384   0.0000       2.604760        70.8791 
 385   0.0000       2.645713        71.9935 
 386   0.0000       2.656814        72.2956 
 387   0.0000       2.663743        72.4841 
 388   0.0000       2.670174        72.6591 
 389   0.0000       2.711662        73.7881 
 390   0.0000       2.716194        73.9114 
 391   0.0000       2.729148        74.2639 
 392   0.0000       2.737056        74.4791 
 393   0.0000       2.740384        74.5696 
 394   0.0000       2.797592        76.1264 
 395   0.0000       2.813784        76.5669 
 396   0.0000       2.830421        77.0197 
 397   0.0000       2.884938        78.5032 
 398   0.0000       2.936183        79.8976 
 399   0.0000       3.196964        86.9938 
 400   0.0000       3.419767        93.0566 

                 SPIN DOWN ORBITALS
  NO   OCC          E(Eh)            E(eV) 
   0   1.0000     -10.205264      -277.6994 
   1   1.0000     -10.195731      -277.4400 
   2   1.0000     -10.192111      -277.3414 
   3   1.0000     -10.187646      -277.2200 
   4   1.0000     -10.186851      -277.1983 
   5   1.0000     -10.186371      -277.1853 
   6   1.0000     -10.185085      -277.1502 
   7   1.0000     -10.184071      -277.1227 
   8   1.0000     -10.183633      -277.1107 
   9   1.0000     -10.183467      -277.1062 
  10   1.0000     -10.182070      -277.0682 
  11   1.0000     -10.181679      -277.0576 
  12   1.0000     -10.181408      -277.0502 
  13   1.0000     -10.181379      -277.0494 
  14   1.0000     -10.180879      -277.0358 
  15   1.0000     -10.179035      -276.9856 
  16   1.0000     -10.175704      -276.8950 
  17   1.0000     -10.173837      -276.8442 
  18   1.0000     -10.167282      -276.6658 
  19   1.0000      -0.863601       -23.4998 
  20   1.0000      -0.811275       -22.0759 
  21   1.0000      -0.797516       -21.7015 
  22   1.0000      -0.783327       -21.3154 
  23   1.0000      -0.776449       -21.1282 
  24   1.0000      -0.756970       -20.5982 
  25   1.0000      -0.727224       -19.7888 
  26   1.0000      -0.721263       -19.6266 
  27   1.0000      -0.701698       -19.0942 
  28   1.0000      -0.671617       -18.2756 
  29   1.0000      -0.638079       -17.3630 
  30   1.0000      -0.617433       -16.8012 
  31   1.0000      -0.607079       -16.5195 
  32   1.0000      -0.583281       -15.8719 
  33   1.0000      -0.576741       -15.6939 
  34   1.0000      -0.559688       -15.2299 
  35   1.0000      -0.546082       -14.8596 
  36   1.0000      -0.524854       -14.2820 
  37   1.0000      -0.492944       -13.4137 
  38   1.0000      -0.470312       -12.7978 
  39   1.0000      -0.468150       -12.7390 
  40   1.0000      -0.463828       -12.6214 
  41   1.0000      -0.459529       -12.5044 
  42   1.0000      -0.452050       -12.3009 
  43   1.0000      -0.427817       -11.6415 
  44   1.0000      -0.425335       -11.5740 
  45   1.0000      -0.421686       -11.4747 
  46   1.0000      -0.418888       -11.3985 
  47   1.0000      -0.412696       -11.2300 
  48   1.0000      -0.403287       -10.9740 
  49   1.0000      -0.399489       -10.8706 
  50   1.0000      -0.381678       -10.3860 
  51   1.0000      -0.376507       -10.2453 
  52   1.0000      -0.373932       -10.1752 
  53   1.0000      -0.362623        -9.8675 
  54   1.0000      -0.360157        -9.8004 
  55   1.0000      -0.352928        -9.6037 
  56   1.0000      -0.347750        -9.4628 
  57   1.0000      -0.345836        -9.4107 
  58   1.0000      -0.332586        -9.0501 
  59   1.0000      -0.328639        -8.9427 
  60   1.0000      -0.326415        -8.8822 
  61   1.0000      -0.324919        -8.8415 
  62   1.0000      -0.323299        -8.7974 
  63   1.0000      -0.321860        -8.7583 
  64   1.0000      -0.319763        -8.7012 
  65   1.0000      -0.310484        -8.4487 
  66   1.0000      -0.298379        -8.1193 
  67   1.0000      -0.270279        -7.3547 
  68   1.0000      -0.240734        -6.5507 
  69   1.0000      -0.222433        -6.0527 
  70   0.0000      -0.036211        -0.9854 
  71   0.0000      -0.029724        -0.8088 
  72   0.0000       0.002735         0.0744 
  73   0.0000       0.049833         1.3560 
  74   0.0000       0.062060         1.6887 
  75   0.0000       0.065801         1.7905 
  76   0.0000       0.072943         1.9849 
  77   0.0000       0.076926         2.0933 
  78   0.0000       0.077345         2.1047 
  79   0.0000       0.083610         2.2751 
  80   0.0000       0.087352         2.3770 
  81   0.0000       0.093750         2.5511 
  82   0.0000       0.096279         2.6199 
  83   0.0000       0.097239         2.6460 
  84   0.0000       0.101551         2.7634 
  85   0.0000       0.105656         2.8751 
  86   0.0000       0.113620         3.0918 
  87   0.0000       0.115421         3.1408 
  88   0.0000       0.128223         3.4891 
  89   0.0000       0.136993         3.7278 
  90   0.0000       0.142860         3.8874 
  91   0.0000       0.148500         4.0409 
  92   0.0000       0.153715         4.1828 
  93   0.0000       0.157700         4.2912 
  94   0.0000       0.159536         4.3412 
  95   0.0000       0.162284         4.4160 
  96   0.0000       0.163771         4.4564 
  97   0.0000       0.169261         4.6058 
  98   0.0000       0.172800         4.7021 
  99   0.0000       0.178928         4.8689 
 100   0.0000       0.180646         4.9156 
 101   0.0000       0.185209         5.0398 
 102   0.0000       0.199493         5.4285 
 103   0.0000       0.207004         5.6329 
 104   0.0000       0.212466         5.7815 
 105   0.0000       0.217814         5.9270 
 106   0.0000       0.226777         6.1709 
 107   0.0000       0.233529         6.3546 
 108   0.0000       0.238267         6.4836 
 109   0.0000       0.242255         6.5921 
 110   0.0000       0.257445         7.0054 
 111   0.0000       0.272168         7.4061 
 112   0.0000       0.285486         7.7685 
 113   0.0000       0.288158         7.8412 
 114   0.0000       0.298160         8.1134 
 115   0.0000       0.331296         9.0150 
 116   0.0000       0.339400         9.2355 
 117   0.0000       0.353889         9.6298 
 118   0.0000       0.361662         9.8413 
 119   0.0000       0.374870        10.2007 
 120   0.0000       0.409378        11.1398 
 121   0.0000       0.412103        11.2139 
 122   0.0000       0.414400        11.2764 
 123   0.0000       0.418026        11.3751 
 124   0.0000       0.420563        11.4441 
 125   0.0000       0.421889        11.4802 
 126   0.0000       0.427816        11.6415 
 127   0.0000       0.437936        11.9168 
 128   0.0000       0.449102        12.2207 
 129   0.0000       0.457320        12.4443 
 130   0.0000       0.465681        12.6718 
 131   0.0000       0.475384        12.9359 
 132   0.0000       0.479845        13.0572 
 133   0.0000       0.481708        13.1079 
 134   0.0000       0.487847        13.2750 
 135   0.0000       0.496352        13.5064 
 136   0.0000       0.498627        13.5683 
 137   0.0000       0.504476        13.7275 
 138   0.0000       0.509120        13.8539 
 139   0.0000       0.520157        14.1542 
 140   0.0000       0.523832        14.2542 
 141   0.0000       0.528003        14.3677 
 142   0.0000       0.537335        14.6216 
 143   0.0000       0.539166        14.6715 
 144   0.0000       0.545946        14.8559 
 145   0.0000       0.558701        15.2030 
 146   0.0000       0.570773        15.5315 
 147   0.0000       0.577191        15.7062 
 148   0.0000       0.592186        16.1142 
 149   0.0000       0.601095        16.3566 
 150   0.0000       0.608503        16.5582 
 151   0.0000       0.609608        16.5883 
 152   0.0000       0.612938        16.6789 
 153   0.0000       0.616219        16.7682 
 154   0.0000       0.619379        16.8541 
 155   0.0000       0.628947        17.1145 
 156   0.0000       0.632463        17.2102 
 157   0.0000       0.635579        17.2950 
 158   0.0000       0.639234        17.3944 
 159   0.0000       0.643278        17.5045 
 160   0.0000       0.646186        17.5836 
 161   0.0000       0.648333        17.6420 
 162   0.0000       0.651711        17.7339 
 163   0.0000       0.657950        17.9037 
 164   0.0000       0.658784        17.9264 
 165   0.0000       0.660365        17.9694 
 166   0.0000       0.660955        17.9855 
 167   0.0000       0.661845        18.0097 
 168   0.0000       0.664855        18.0916 
 169   0.0000       0.668373        18.1874 
 170   0.0000       0.672165        18.2905 
 171   0.0000       0.673373        18.3234 
 172   0.0000       0.680887        18.5279 
 173   0.0000       0.685351        18.6494 
 174   0.0000       0.686696        18.6859 
 175   0.0000       0.690659        18.7938 
 176   0.0000       0.696234        18.9455 
 177   0.0000       0.697973        18.9928 
 178   0.0000       0.703767        19.1505 
 179   0.0000       0.707171        19.2431 
 180   0.0000       0.713965        19.4280 
 181   0.0000       0.715920        19.4812 
 182   0.0000       0.721234        19.6258 
 183   0.0000       0.722660        19.6646 
 184   0.0000       0.728055        19.8114 
 185   0.0000       0.732491        19.9321 
 186   0.0000       0.740314        20.1450 
 187   0.0000       0.744111        20.2483 
 188   0.0000       0.761325        20.7167 
 189   0.0000       0.771102        20.9828 
 190   0.0000       0.777373        21.1534 
 191   0.0000       0.783023        21.3071 
 192   0.0000       0.803525        21.8650 
 193   0.0000       0.814034        22.1510 
 194   0.0000       0.821400        22.3514 
 195   0.0000       0.834654        22.7121 
 196   0.0000       0.847321        23.0568 
 197   0.0000       0.854641        23.2560 
 198   0.0000       0.859043        23.3757 
 199   0.0000       0.882198        24.0058 
 200   0.0000       0.894160        24.3313 
 201   0.0000       0.906842        24.6764 
 202   0.0000       0.914185        24.8763 
 203   0.0000       0.927337        25.2341 
 204   0.0000       0.940761        25.5994 
 205   0.0000       0.975904        26.5557 
 206   0.0000       0.993151        27.0250 
 207   0.0000       0.995952        27.1012 
 208   0.0000       1.006704        27.3938 
 209   0.0000       1.008893        27.4534 
 210   0.0000       1.026045        27.9201 
 211   0.0000       1.032478        28.0952 
 212   0.0000       1.037003        28.2183 
 213   0.0000       1.048332        28.5266 
 214   0.0000       1.056480        28.7483 
 215   0.0000       1.062393        28.9092 
 216   0.0000       1.070907        29.1409 
 217   0.0000       1.086772        29.5726 
 218   0.0000       1.086900        29.5761 
 219   0.0000       1.105208        30.0742 
 220   0.0000       1.142518        31.0895 
 221   0.0000       1.152573        31.3631 
 222   0.0000       1.160944        31.5909 
 223   0.0000       1.191017        32.4092 
 224   0.0000       1.205683        32.8083 
 225   0.0000       1.207266        32.8514 
 226   0.0000       1.213782        33.0287 
 227   0.0000       1.215865        33.0854 
 228   0.0000       1.217947        33.1420 
 229   0.0000       1.219411        33.1819 
 230   0.0000       1.224951        33.3326 
 231   0.0000       1.226132        33.3647 
 232   0.0000       1.234127        33.5823 
 233   0.0000       1.248996        33.9869 
 234   0.0000       1.271453        34.5980 
 235   0.0000       1.287018        35.0215 
 236   0.0000       1.300790        35.3963 
 237   0.0000       1.314996        35.7829 
 238   0.0000       1.319971        35.9182 
 239   0.0000       1.323751        36.0211 
 240   0.0000       1.333747        36.2931 
 241   0.0000       1.339634        36.4533 
 242   0.0000       1.342391        36.5283 
 243   0.0000       1.353694        36.8359 
 244   0.0000       1.373631        37.3784 
 245   0.0000       1.398013        38.0419 
 246   0.0000       1.412182        38.4274 
 247   0.0000       1.416640        38.5487 
 248   0.0000       1.426435        38.8153 
 249   0.0000       1.428316        38.8664 
 250   0.0000       1.429296        38.8931 
 251   0.0000       1.436371        39.0856 
 252   0.0000       1.449045        39.4305 
 253   0.0000       1.462267        39.7903 
 254   0.0000       1.471495        40.0414 
 255   0.0000       1.473094        40.0849 
 256   0.0000       1.486813        40.4583 
 257   0.0000       1.496112        40.7113 
 258   0.0000       1.508143        41.0387 
 259   0.0000       1.513729        41.1907 
 260   0.0000       1.520774        41.3824 
 261   0.0000       1.527470        41.5646 
 262   0.0000       1.552608        42.2486 
 263   0.0000       1.556306        42.3492 
 264   0.0000       1.586682        43.1758 
 265   0.0000       1.594308        43.3833 
 266   0.0000       1.598269        43.4911 
[...]
  Y           0.3567587            0.3949520           -0.8466027
  Z          -0.6122602            0.7833245            0.1074251

Notes:  (1) The A matrix conforms to the "SAI" spin Hamiltonian convention.
        (2) Tensor is right-handed.

 -----------------------------------------------------------
 Nucleus  43H : A:ISTP=    1 I=  0.5 P=533.5514 MHz/au**3
                Q:ISTP=    2 I=  1.0 Q=  0.0029 barn     
 -----------------------------------------------------------
 Solving for nuclear perturbation:
Forming RHS of the CP-SCF equations         ... 
Calc. nucleus orbit integrals (SHARK)       ... done

------------------------------------------------------------------------------
                           ORCA CP-SCF CALCULATION
------------------------------------------------------------------------------

Input orbitals are from        ... cc-pVDZ.gbw
Input Perturbation             ... cc-pVDZ.pin.tmp
Wavefunction output            ... cc-pVDZ.pout.tmp
Perturbation mode              ... Imaginary perturbation
Solver                         ... POPLE
Max. number of iterations      ... 64
Convergence tolerance          ... 1.000e-03
Integral handling              ... Direct
DFT GridXC                     ... 1
COSX GridX                     ... 1
COSX IntAccX                   ... 3.067
COSX Algorithm                 ... Auto
Number of perturbations        ... 3
Number of operators            ... 2
Orbital ranges used for CP-SCF:
 Operator 0:  Orbitals   0... 70  to  71...400
 Operator 1:  Orbitals   0... 69  to  70...400
Variables per perturbation     ... 46600
DFT calculation                         ... on
XC functional terms                     ... off
Hybrid DFT                              ... on
   Exchange mixing (SCF)                ...  0.200
   Exchange mixing (CP-SCF)             ...  0.200
   GGA exch. scaling(SCF)               ...  0.720
   GGA exch. scaling (CP-SCF)           ...  0.720
   GGA corr. scaling (SCF)              ...  0.810
   GGA corr. scaling (CP-SCF)           ...  0.810

CP-SCF GRID
-----------

General Integration Accuracy     IntAcc      ... 3.467
Radial Grid Type                 RadialGrid  ... OptM3 with GC (2021)
Angular Grid (max. ang.)         AngularGrid ... 1 (Lebedev-50)
Angular grid pruning method      GridPruning ... 4 (adaptive)
Weight generation scheme         WeightScheme... Becke
Basis function cutoff            BFCut       ... 1.0000e-10
Integration weight cutoff        WCut        ... 1.0000e-14
Angular grids for H and He will be reduced by one unit
Partially contracted basis set               ... off
Rotationally invariant grid construction     ... off

Total number of grid points                  ...    27924
Total number of batches                      ...      456
Average number of points per batch           ...       61
Average number of grid points per atom       ...      607

CP-SCF GRIDX
------------

General Integration Accuracy     IntAcc      ... 3.067
Radial Grid Type                 RadialGrid  ... OptM3 with GC (2021)
Angular Grid (max. ang.)         AngularGrid ... 1 (Lebedev-50)
Angular grid pruning method      GridPruning ... 4 (adaptive)
Weight generation scheme         WeightScheme... Becke
Basis function cutoff            BFCut       ... 1.0000e-10
Integration weight cutoff        WCut        ... 1.0000e-14
Angular grids for H and He will be reduced by one unit
Partially contracted basis set               ... on
Rotationally invariant grid construction     ... off

Total number of grid points                  ...    13279
Total number of batches                      ...      237
Average number of points per batch           ...       56
Average number of grid points per atom       ...      289

Memory available               ... 896.6 MB
Memory needed per perturbation ...  10.1 MB
Perturbations treated per batch... 3
Number of batches              ... 1
     CP-SCF ITERATION   0:   3.6524e-02 (   1.3 sec   0/  3 done)
     CP-SCF ITERATION   1:   5.7346e-04 (   1.3 sec   3/  3 done)
                    *** THE CP-SCF HAS CONVERGED ***

Forming final perturbed densities           ... done
Transforming perturbed density to AO basis  ... done

 Raw HFC matrix (all values in MHz): 
 -----------------------------------
                -0.0258               0.0181              -0.0012
                 0.0181               0.0553              -0.0049
                -0.0012              -0.0049              -0.0294

 A(FC)           0.0000               0.0000               0.0000
 A(SD)          -0.0296              -0.0298               0.0595
 A(ORB+DIA)      0.0000               0.0000               0.0000    A(PC) =   0.0000
 A(ORB)         -0.0000              -0.0000               0.0000    A(PC) =   0.0000
 A(DIA)          0.0000               0.0000               0.0000    A(PC) =   0.0000
             ----------           ----------           ----------
 A(Tot)         -0.0296              -0.0298               0.0595    A(iso)=    0.0000
 Orientation: 
  X           0.7224502            0.6592953           -0.2083156
  Y          -0.1929339           -0.0970936           -0.9763961
  Z          -0.6639594            0.7455887            0.0570552

Notes:  (1) The A matrix conforms to the "SAI" spin Hamiltonian convention.
        (2) Tensor is right-handed.

 -----------------------------------------------------------
 Nucleus  44H : A:ISTP=    1 I=  0.5 P=533.5514 MHz/au**3
                Q:ISTP=    2 I=  1.0 Q=  0.0029 barn     
 -----------------------------------------------------------
 Solving for nuclear perturbation:
Forming RHS of the CP-SCF equations         ... 
Calc. nucleus orbit integrals (SHARK)       ... done

------------------------------------------------------------------------------
                           ORCA CP-SCF CALCULATION
------------------------------------------------------------------------------

Input orbitals are from        ... cc-pVDZ.gbw
Input Perturbation             ... cc-pVDZ.pin.tmp
Wavefunction output            ... cc-pVDZ.pout.tmp
Perturbation mode              ... Imaginary perturbation
Solver                         ... POPLE
Max. number of iterations      ... 64
Convergence tolerance          ... 1.000e-03
Integral handling              ... Direct
DFT GridXC                     ... 1
COSX GridX                     ... 1
COSX IntAccX                   ... 3.067
COSX Algorithm                 ... Auto
Number of perturbations        ... 3
Number of operators            ... 2
Orbital ranges used for CP-SCF:
 Operator 0:  Orbitals   0... 70  to  71...400
 Operator 1:  Orbitals   0... 69  to  70...400
Variables per perturbation     ... 46600
DFT calculation                         ... on
XC functional terms                     ... off
Hybrid DFT                              ... on
   Exchange mixing (SCF)                ...  0.200
   Exchange mixing (CP-SCF)             ...  0.200
   GGA exch. scaling(SCF)               ...  0.720
   GGA exch. scaling (CP-SCF)           ...  0.720
   GGA corr. scaling (SCF)              ...  0.810
   GGA corr. scaling (CP-SCF)           ...  0.810

CP-SCF GRID
-----------

General Integration Accuracy     IntAcc      ... 3.467
Radial Grid Type                 RadialGrid  ... OptM3 with GC (2021)
Angular Grid (max. ang.)         AngularGrid ... 1 (Lebedev-50)
Angular grid pruning method      GridPruning ... 4 (adaptive)
Weight generation scheme         WeightScheme... Becke
Basis function cutoff            BFCut       ... 1.0000e-10
Integration weight cutoff        WCut        ... 1.0000e-14
Angular grids for H and He will be reduced by one unit
Partially contracted basis set               ... off
Rotationally invariant grid construction     ... off

Total number of grid points                  ...    27924
Total number of batches                      ...      456
Average number of points per batch           ...       61
Average number of grid points per atom       ...      607

CP-SCF GRIDX
------------

General Integration Accuracy     IntAcc      ... 3.067
Radial Grid Type                 RadialGrid  ... OptM3 with GC (2021)
Angular Grid (max. ang.)         AngularGrid ... 1 (Lebedev-50)
Angular grid pruning method      GridPruning ... 4 (adaptive)
Weight generation scheme         WeightScheme... Becke
Basis function cutoff            BFCut       ... 1.0000e-10
Integration weight cutoff        WCut        ... 1.0000e-14
Angular grids for H and He will be reduced by one unit
Partially contracted basis set               ... on
Rotationally invariant grid construction     ... off

Total number of grid points                  ...    13279
Total number of batches                      ...      237
Average number of points per batch           ...       56
Average number of grid points per atom       ...      289

Memory available               ... 896.2 MB
Memory needed per perturbation ...  10.1 MB
Perturbations treated per batch... 3
Number of batches              ... 1
     CP-SCF ITERATION   0:   3.6366e-02 (   1.3 sec   0/  3 done)
     CP-SCF ITERATION   1:   5.2924e-04 (   1.3 sec   3/  3 done)
                    *** THE CP-SCF HAS CONVERGED ***

Forming final perturbed densities           ... done
Transforming perturbed density to AO basis  ... done

 Raw HFC matrix (all values in MHz): 
 -----------------------------------
                -0.8536              -0.2480              -0.1405
                -0.2480               1.1466               0.3285
                -0.1405               0.3284              -0.9377

 A(FC)          -0.2150              -0.2150              -0.2150
 A(SD)          -0.6107              -0.8350               1.4457
 A(ORB+DIA)     -0.0001              -0.0002               0.0006    A(PC) =   0.0001
 A(ORB)         -0.0000              -0.0002               0.0004    A(PC) =   0.0001
 A(DIA)         -0.0001              -0.0000               0.0001    A(PC) =   0.0000
             ----------           ----------           ----------
 A(Tot)         -0.8258              -1.0503               1.2313    A(iso)=   -0.2149
 Orientation: 
  X           0.8437111            0.5215497            0.1270334
  Y           0.1897061           -0.0683212           -0.9794610
  Z          -0.5021585            0.8504811           -0.1565845

Notes:  (1) The A matrix conforms to the "SAI" spin Hamiltonian convention.
        (2) Tensor is right-handed.

 -----------------------------------------------------------
 Nucleus  45H : A:ISTP=    1 I=  0.5 P=533.5514 MHz/au**3
                Q:ISTP=    2 I=  1.0 Q=  0.0029 barn     
 -----------------------------------------------------------
 Solving for nuclear perturbation:
Forming RHS of the CP-SCF equations         ... 
Calc. nucleus orbit integrals (SHARK)       ... done

------------------------------------------------------------------------------
                           ORCA CP-SCF CALCULATION
------------------------------------------------------------------------------

Input orbitals are from        ... cc-pVDZ.gbw
Input Perturbation             ... cc-pVDZ.pin.tmp
Wavefunction output            ... cc-pVDZ.pout.tmp
Perturbation mode              ... Imaginary perturbation
Solver                         ... POPLE
Max. number of iterations      ... 64
Convergence tolerance          ... 1.000e-03
Integral handling              ... Direct
DFT GridXC                     ... 1
COSX GridX                     ... 1
COSX IntAccX                   ... 3.067
COSX Algorithm                 ... Auto
Number of perturbations        ... 3
Number of operators            ... 2
Orbital ranges used for CP-SCF:
 Operator 0:  Orbitals   0... 70  to  71...400
 Operator 1:  Orbitals   0... 69  to  70...400
Variables per perturbation     ... 46600
DFT calculation                         ... on
XC functional terms                     ... off
Hybrid DFT                              ... on
   Exchange mixing (SCF)                ...  0.200
   Exchange mixing (CP-SCF)             ...  0.200
   GGA exch. scaling(SCF)               ...  0.720
   GGA exch. scaling (CP-SCF)           ...  0.720
   GGA corr. scaling (SCF)              ...  0.810
   GGA corr. scaling (CP-SCF)           ...  0.810

CP-SCF GRID
-----------

General Integration Accuracy     IntAcc      ... 3.467
Radial Grid Type                 RadialGrid  ... OptM3 with GC (2021)
Angular Grid (max. ang.)         AngularGrid ... 1 (Lebedev-50)
Angular grid pruning method      GridPruning ... 4 (adaptive)
Weight generation scheme         WeightScheme... Becke
Basis function cutoff            BFCut       ... 1.0000e-10
Integration weight cutoff        WCut        ... 1.0000e-14
Angular grids for H and He will be reduced by one unit
Partially contracted basis set               ... off
Rotationally invariant grid construction     ... off

Total number of grid points                  ...    27924
Total number of batches                      ...      456
Average number of points per batch           ...       61
Average number of grid points per atom       ...      607

CP-SCF GRIDX
------------

General Integration Accuracy     IntAcc      ... 3.067
Radial Grid Type                 RadialGrid  ... OptM3 with GC (2021)
Angular Grid (max. ang.)         AngularGrid ... 1 (Lebedev-50)
Angular grid pruning method      GridPruning ... 4 (adaptive)
Weight generation scheme         WeightScheme... Becke
Basis function cutoff            BFCut       ... 1.0000e-10
Integration weight cutoff        WCut        ... 1.0000e-14
Angular grids for H and He will be reduced by one unit
Partially contracted basis set               ... on
Rotationally invariant grid construction     ... off

Total number of grid points                  ...    13279
Total number of batches                      ...      237
Average number of points per batch           ...       56
Average number of grid points per atom       ...      289

Memory available               ... 895.8 MB
Memory needed per perturbation ...  10.1 MB
Perturbations treated per batch... 3
Number of batches              ... 1
     CP-SCF ITERATION   0:   4.2802e-02 (   1.3 sec   0/  3 done)
     CP-SCF ITERATION   1:   1.6661e-03 (   1.3 sec   2/  3 done)
     CP-SCF ITERATION   2:   7.5456e-05 (   0.9 sec   3/  3 done)
                    *** THE CP-SCF HAS CONVERGED ***

Forming final perturbed densities           ... done
Transforming perturbed density to AO basis  ... done

 Raw HFC matrix (all values in MHz): 
 -----------------------------------
                -0.0444               0.2676              -0.0124
                 0.2677               0.2743              -0.0165
                -0.0124              -0.0164              -0.1980

 A(FC)           0.0106               0.0106               0.0106
 A(SD)          -0.2053              -0.2111               0.4164
 A(ORB+DIA)     -0.0000               0.0000               0.0001    A(PC) =   0.0000
 A(ORB)         -0.0000              -0.0000               0.0001    A(PC) =   0.0000
 A(DIA)          0.0000               0.0000               0.0000    A(PC) =   0.0000
             ----------           ----------           ----------
 A(Tot)         -0.1947              -0.2005               0.4272    A(iso)=    0.0106
 Orientation: 
  X          -0.7097923            0.5021469            0.4940075
  Y           0.4247180           -0.2544142            0.8688429
  Z           0.5619693            0.8265119           -0.0326896

Notes:  (1) The A matrix conforms to the "SAI" spin Hamiltonian convention.
        (2) Tensor is right-handed.


--------------------------------------------------------------------------------
----------------------------------------------------------------------------
                           ORCA EULER ANGLE PROGRAM
----------------------------------------------------------------------------

Only g-tensor available        -->  using g-tensor as reference tensor

Reference tensor               ...  g

g-tensor ordering              ...  |g_min> --> |gx>
                                    |g_mid> --> |gy>
                                    |g_max> --> |gz>

A- and EFG-tensor ordering     ...  the axes |Ax>, |Qx>, |Ay>, etc. are assigned
                                    such that the Euler rotation is minimal. You
                                    can find the respective eigenvalues as Ax,
                                    EFGx, Ay, etc. in the tables below.
                                    The relation of |Ax>, |Ay>,  etc. to Amin, Amid, etc.
                                    (as printed in the ORCA EPR/NMR CALCULATION Output)
                                    is obtained in the detailed printout.

Euler rotation around          ...  z - y - z
   First rotation              -->  by alpha around z
   Second rotation             -->  by beta around y'
   Third rotation              -->  by gamma around z''
   Positive / Negative angle   -->  clockwise / counterclockwise rotation

Plot EFG-tensors                    (-)
Plot HFC-tensors                    (-)
Detailed Printout                   (-)

-------------------------------------------------------------------------
          Euler rotation of hyperfine tensor to g-tensor
-------------------------------------------------------------------------

-------------------------------------------------------------------
 Atom  |   Alpha    Beta    Gamma   |   Ax       Ay       Az 
       |          [degrees]         |           [MHz]         
-------------------------------------------------------------------
  7H     -169.1     38.5    166.5      -0.12     0.27    -0.11
  8H     -136.4     52.6    134.8      -0.75     1.34    -0.71
 10H     -130.4     39.2    129.8      -0.06     0.22    -0.06
 11H      -46.3     33.8     22.5      -0.06     0.22    -0.06
 13H      -28.8     33.4     22.5      -0.07     0.14    -0.07
 14H      -19.1     36.5      4.1      -0.07     0.14    -0.07
 16H      -47.0     29.2     27.7      -0.05     0.09    -0.05
 17H      -49.7     33.1     37.7      -0.05     0.09    -0.05
 19H      -26.2     26.4     13.6      -0.04     0.07    -0.04
 20H      -30.9     29.5     24.8      -0.04     0.07    -0.04
 22H      128.8     17.9   -141.7      -0.35     2.76    -0.30
 23H        1.5     22.7      4.7       0.09     3.04    -0.49
 25H     -101.3     33.0    112.4      -4.16     3.99    -4.33
 26H      -34.7     33.0      3.5      -4.32     4.80    -5.72
 28H      -44.1     47.3     81.6      34.37    33.57    47.66
 29H       64.0     26.3    -33.9     109.43   120.36   107.44
 31H      -42.3     12.2     43.5     -55.94   -91.68   -16.03
 33H      -89.2     37.2     60.8     109.66   120.61   107.70
 34H       41.2     30.8    -74.4      31.49    30.65    44.69
 36H      128.6     21.2   -133.9      -4.20     4.00    -4.35
 37H        4.8     35.2     26.3      -4.34     4.75    -5.82
 39H     -138.4     48.5    166.7      -0.34     2.67    -0.31
 40H      -40.7     25.1     35.5       0.11     2.94    -0.42
 42H       41.6     36.5    -28.9      -0.18     0.34    -0.18
 43H      -40.1     28.2     28.0      -0.03     0.06    -0.03
 44H       -8.4     36.6     17.6      -0.83     1.23    -1.05
 45H      -57.3     41.5     33.0      -0.19     0.43    -0.20
-------------------------------------------------------------------


Maximum memory used throughout the entire EPRNMR-calculation: 181.0 MB

Timings for individual modules:

Sum of individual times         ...     3242.695 sec (=  54.045 min)
GTO integral calculation        ...        4.217 sec (=   0.070 min)   0.1 %
Spin-Orbit-Coupling Matrices    ...        7.380 sec (=   0.123 min)   0.2 %
SCF iterations                  ...       37.636 sec (=   0.627 min)   1.2 %
EPR/NMR calculation             ...     3193.461 sec (=  53.224 min)  98.5 %
                             ****ORCA TERMINATED NORMALLY****
TOTAL RUN TIME: 0 days 0 hours 54 minutes 6 seconds 867 msec
