
                                 *****************
                                 * O   R   C   A *
                                 *****************

                                            #,                                       
                                            ###                                      
                                            ####                                     
                                            #####                                    
                                            ######                                   
                                           ########,                                 
                                     ,,################,,,,,                         
                               ,,#################################,,                 
                          ,,##########################################,,             
                       ,#########################################, ''#####,          
                    ,#############################################,,   '####,        
                  ,##################################################,,,,####,       
                ,###########''''           ''''###############################       
              ,#####''   ,,,,##########,,,,          '''####'''          '####       
            ,##' ,,,,###########################,,,                        '##       
           ' ,,###''''                  '''############,,,                           
         ,,##''                                '''############,,,,        ,,,,,,###''
      ,#''                                            '''#######################'''  
     '                                                          ''''####''''         
             ,#######,   #######,   ,#######,      ##                                
            ,#'     '#,  ##    ##  ,#'     '#,    #''#        ######   ,####,        
            ##       ##  ##   ,#'  ##            #'  '#       #        #'  '#        
            ##       ##  #######   ##           ,######,      #####,   #    #        
            '#,     ,#'  ##    ##  '#,     ,#' ,#      #,         ##   #,  ,#        
             '#######'   ##     ##  '#######'  #'      '#     #####' # '####'        



                  #######################################################
                  #                        -***-                        #
                  #          Department of theory and spectroscopy      #
                  #    Directorship and core code : Frank Neese         #
                  #        Max Planck Institute fuer Kohlenforschung    #
                  #                Kaiser Wilhelm Platz 1               #
                  #                 D-45470 Muelheim/Ruhr               #
                  #                      Germany                        #
                  #                                                     #
                  #                  All rights reserved                #
                  #                        -***-                        #
                  #######################################################


                         Program Version 5.0.4 -  RELEASE  -


 With contributions from (in alphabetic order):
   Daniel Aravena         : Magnetic Suceptibility
   Michael Atanasov       : Ab Initio Ligand Field Theory (pilot matlab implementation)
   Alexander A. Auer      : GIAO ZORA, VPT2 properties, NMR spectrum
   Ute Becker             : Parallelization
   Giovanni Bistoni       : ED, misc. LED, open-shell LED, HFLD
   Martin Brehm           : Molecular dynamics
   Dmytro Bykov           : SCF Hessian
   Vijay G. Chilkuri      : MRCI spin determinant printing, contributions to CSF-ICE
   Dipayan Datta          : RHF DLPNO-CCSD density
   Achintya Kumar Dutta   : EOM-CC, STEOM-CC
   Dmitry Ganyushin       : Spin-Orbit,Spin-Spin,Magnetic field MRCI
   Miquel Garcia          : C-PCM and meta-GGA Hessian, CC/C-PCM, Gaussian charge scheme
   Yang Guo               : DLPNO-NEVPT2, F12-NEVPT2, CIM, IAO-localization
   Andreas Hansen         : Spin unrestricted coupled pair/coupled cluster methods
   Benjamin Helmich-Paris : MC-RPA, TRAH-SCF, COSX integrals
   Lee Huntington         : MR-EOM, pCC
   Robert Izsak           : Overlap fitted RIJCOSX, COSX-SCS-MP3, EOM
   Marcus Kettner         : VPT2
   Christian Kollmar      : KDIIS, OOCD, Brueckner-CCSD(T), CCSD density, CASPT2, CASPT2-K
   Simone Kossmann        : Meta GGA functionals, TD-DFT gradient, OOMP2, MP2 Hessian
   Martin Krupicka        : Initial AUTO-CI
   Lucas Lang             : DCDCAS
   Marvin Lechner         : AUTO-CI (C++ implementation), FIC-MRCC
   Dagmar Lenk            : GEPOL surface, SMD
   Dimitrios Liakos       : Extrapolation schemes; Compound Job, initial MDCI parallelization
   Dimitrios Manganas     : Further ROCIS development; embedding schemes
   Dimitrios Pantazis     : SARC Basis sets
   Anastasios Papadopoulos: AUTO-CI, single reference methods and gradients
   Taras Petrenko         : DFT Hessian,TD-DFT gradient, ASA, ECA, R-Raman, ABS, FL, XAS/XES, NRVS
   Peter Pinski           : DLPNO-MP2, DLPNO-MP2 Gradient
   Christoph Reimann      : Effective Core Potentials
   Marius Retegan         : Local ZFS, SOC
   Christoph Riplinger    : Optimizer, TS searches, QM/MM, DLPNO-CCSD(T), (RO)-DLPNO pert. Triples
   Tobias Risthaus        : Range-separated hybrids, TD-DFT gradient, RPA, STAB
   Michael Roemelt        : Original ROCIS implementation
   Masaaki Saitow         : Open-shell DLPNO-CCSD energy and density
   Barbara Sandhoefer     : DKH picture change effects
   Avijit Sen             : IP-ROCIS
   Kantharuban Sivalingam : CASSCF convergence, NEVPT2, FIC-MRCI
   Bernardo de Souza      : ESD, SOC TD-DFT
   Georgi Stoychev        : AutoAux, RI-MP2 NMR, DLPNO-MP2 response
   Willem Van den Heuvel  : Paramagnetic NMR
   Boris Wezisla          : Elementary symmetry handling
   Frank Wennmohs         : Technical directorship


 We gratefully acknowledge several colleagues who have allowed us to
 interface, adapt or use parts of their codes:
   Stefan Grimme, W. Hujo, H. Kruse, P. Pracht,  : VdW corrections, initial TS optimization,
                  C. Bannwarth, S. Ehlert          DFT functionals, gCP, sTDA/sTD-DF
   Ed Valeev, F. Pavosevic, A. Kumar             : LibInt (2-el integral package), F12 methods
   Garnet Chan, S. Sharma, J. Yang, R. Olivares  : DMRG
   Ulf Ekstrom                                   : XCFun DFT Library
   Mihaly Kallay                                 : mrcc  (arbitrary order and MRCC methods)
   Jiri Pittner, Ondrej Demel                    : Mk-CCSD
   Frank Weinhold                                : gennbo (NPA and NBO analysis)
   Christopher J. Cramer and Donald G. Truhlar   : smd solvation model
   Lars Goerigk                                  : TD-DFT with DH, B97 family of functionals
   V. Asgeirsson, H. Jonsson                     : NEB implementation
   FAccTs GmbH                                   : IRC, NEB, NEB-TS, DLPNO-Multilevel, CI-OPT
                                                   MM, QMMM, 2- and 3-layer-ONIOM, Crystal-QMMM,
                                                   LR-CPCM, SF, NACMEs, symmetry and pop. for TD-DFT,
                                                   nearIR, NL-DFT gradient (VV10), updates on ESD,
                                                   ML-optimized integration grids
   S Lehtola, MJT Oliveira, MAL Marques          : LibXC Library
   Liviu Ungur et al                             : ANISO software


 Your calculation uses the libint2 library for the computation of 2-el integrals
 For citations please refer to: http://libint.valeyev.net

 Your ORCA version has been built with support for libXC version: 5.1.0
 For citations please refer to: https://tddft.org/programs/libxc/

 This ORCA versions uses:
   CBLAS   interface :  Fast vector & matrix operations
   LAPACKE interface :  Fast linear algebra routines
   SCALAPACK package :  Parallel linear algebra routines
   Shared memory     :  Shared parallel matrices
   BLAS/LAPACK       :  OpenBLAS 0.3.15  USE64BITINT DYNAMIC_ARCH NO_AFFINITY SkylakeX SINGLE_THREADED
        Core in use  :  SkylakeX
   Copyright (c) 2011-2014, The OpenBLAS Project




***************************************
The coordinates will be read from file: opt_EPRII.xyz
***************************************


================================================================================

----- Orbital basis set information -----
Your calculation utilizes the basis: EPR-II
   V. Barone, in Recent Advances in Density Functional Methods, Part 1 (ed. D. P. Chong), World Scientific, Singapore, 1995, p. 287.

----- AuxJ basis set information -----
Your calculation utilizes the AutoAux generation procedure.
  G. L. Stoychev, A. A. Auer, F. Neese, J. Chem. Theory Comput. 13, 554 (2017)

----- AuxC basis set information -----
Your calculation utilizes the AutoAux generation procedure.
  G. L. Stoychev, A. A. Auer, F. Neese, J. Chem. Theory Comput. 13, 554 (2017)

----- AuxJK basis set information -----
Your calculation utilizes the AutoAux generation procedure.
  G. L. Stoychev, A. A. Auer, F. Neese, J. Chem. Theory Comput. 13, 554 (2017)

================================================================================
                                        WARNINGS
                       Please study these warnings very carefully!
================================================================================

WARNING: Old DensityContainer found on disk!
         Will remove this file - 
         If you want to keep old densities, please start your calculation with a different basename. 


WARNING: your system is open-shell and RHF/RKS was chosen
  ===> : WILL SWITCH to UHF/UKS


INFO   : the flag for use of the SHARK integral package has been found!

================================================================================
                                       INPUT FILE
================================================================================
NAME = EPRII.inp
|  1> ! B3LYP EPR-II AUTOAUX
|  2> %pal nprocs 16 end
|  3> *XYZFile 0 2 opt_EPRII.xyz
|  4> %EPRNMR
|  5>         GTENSOR   TRUE
|  6>         NUCLEI    = ALL H {SHIFT, AISO, ADIP, AORB}
|  7>         ORI       CenterOfElCharge
|  8> END
|  9> 
| 10>                          ****END OF INPUT****
================================================================================

                       ****************************
                       * Single Point Calculation *
                       ****************************

---------------------------------
CARTESIAN COORDINATES (ANGSTROEM)
---------------------------------
  C      4.305985   -0.105874   -0.029654
  C      0.090699    0.037263   -0.298425
  C      0.722838   -1.212509   -0.143433
  C      2.121823   -1.222354   -0.060561
  C      2.873890   -0.026683   -0.124256
  C      2.231004    1.230473   -0.275467
  C      0.827866    1.227034   -0.362237
  H      2.660870   -2.156090    0.056151
  H      0.295462    2.165179   -0.480162
  C     -0.126129   -2.476691   -0.063131
  H     -0.787453   -2.504634   -0.940125
  H     -0.791368   -2.388970    0.807486
  C      0.633682   -3.809664    0.028958
  H      1.294140   -3.920459   -0.841431
  H      1.281606   -3.807374    0.915508
  C     -0.308038   -5.024871    0.104541
  H     -0.970725   -4.915341    0.973473
  H     -0.958337   -5.035405   -0.780405
  C      0.445654   -6.362799    0.202588
  H      1.082505   -6.390812    1.093931
  H      1.090104   -6.516616   -0.670270
  C      3.060857    2.504573   -0.332047
  H      3.671819    2.556614    0.579280
  H      3.782777    2.411541   -1.154603
  C      2.284067    3.820431   -0.489594
  H      1.692076    3.798850   -1.413924
  H      1.574297    3.941467    0.338107
  C      3.219136    5.045825   -0.524035
  H      3.826920    5.070206    0.392951
  H      3.946282    4.910856   -1.347478
  C      2.500375    6.354924   -0.683024
  H      1.565155    6.366079   -1.244010
  C      3.176931    7.666666   -0.404514
  H      3.870991    7.917443   -1.229533
  H      3.813574    7.570442    0.487854
  C      2.203061    8.847819   -0.214383
  H      1.578354    8.943933   -1.112063
  H      1.522732    8.618580    0.615038
  C      2.922169   10.180213    0.057375
  H      3.537268   10.117479    0.962211
  H      3.583605   10.447823   -0.774612
  C      5.521961   -0.174530    0.049890
  H      6.583672   -0.236015    0.120931
  H     -0.248062   -7.208013    0.259966
  H      2.207736   10.998600    0.194366
  H     -0.994890    0.080569   -0.369294

----------------------------
CARTESIAN COORDINATES (A.U.)
----------------------------
  NO LB      ZA    FRAG     MASS         X           Y           Z
   0 C     6.0000    0    12.011    8.137133   -0.200074   -0.056037
   1 C     6.0000    0    12.011    0.171397    0.070417   -0.563942
   2 C     6.0000    0    12.011    1.365967   -2.291311   -0.271049
   3 C     6.0000    0    12.011    4.009665   -2.309914   -0.114443
   4 C     6.0000    0    12.011    5.430866   -0.050423   -0.234809
   5 C     6.0000    0    12.011    4.215987    2.325257   -0.520557
   6 C     6.0000    0    12.011    1.564440    2.318758   -0.684528
   7 H     1.0000    0     1.008    5.028316   -4.074420    0.106109
   8 H     1.0000    0     1.008    0.558342    4.091595   -0.907374
   9 C     6.0000    0    12.011   -0.238349   -4.680267   -0.119301
  10 H     1.0000    0     1.008   -1.488070   -4.733073   -1.776578
  11 H     1.0000    0     1.008   -1.495469   -4.514499    1.525928
  12 C     6.0000    0    12.011    1.197486   -7.199222    0.054723
  13 H     1.0000    0     1.008    2.445571   -7.408594   -1.590074
  14 H     1.0000    0     1.008    2.421885   -7.194894    1.730060
  15 C     6.0000    0    12.011   -0.582108   -9.495629    0.197555
  16 H     1.0000    0     1.008   -1.834404   -9.288648    1.839598
  17 H     1.0000    0     1.008   -1.810994   -9.515536   -1.474752
  18 C     6.0000    0    12.011    0.842165  -12.023948    0.382836
  19 H     1.0000    0     1.008    2.045637  -12.076885    2.067230
  20 H     1.0000    0     1.008    2.059997  -12.314619   -1.266627
  21 C     6.0000    0    12.011    5.784181    4.732956   -0.627478
  22 H     1.0000    0     1.008    6.938733    4.831300    1.094680
  23 H     1.0000    0     1.008    7.148413    4.557152   -2.181884
  24 C     6.0000    0    12.011    4.316261    7.219568   -0.925199
  25 H     1.0000    0     1.008    3.197561    7.178787   -2.671929
  26 H     1.0000    0     1.008    2.974990    7.448293    0.638929
  27 C     6.0000    0    12.011    6.083286    9.535227   -0.990284
  28 H     1.0000    0     1.008    7.231831    9.581301    0.742569
  29 H     1.0000    0     1.008    7.457393    9.280174   -2.546365
  30 C     6.0000    0    12.011    4.725023   12.009066   -1.290728
  31 H     1.0000    0     1.008    2.957715   12.030146   -2.350837
  32 C     6.0000    0    12.011    6.003530   14.487899   -0.764420
  33 H     1.0000    0     1.008    7.315112   14.961799   -2.323481
  34 H     1.0000    0     1.008    7.206610   14.306061    0.921910
  35 C     6.0000    0    12.011    4.163182   16.719955   -0.405124
  36 H     1.0000    0     1.008    2.982656   16.901585   -2.101494
  37 H     1.0000    0     1.008    2.877547   16.286756    1.162254
  38 C     6.0000    0    12.011    5.522100   19.237815    0.108422
  39 H     1.0000    0     1.008    6.684468   19.119264    1.818315
  40 H     1.0000    0     1.008    6.772031   19.743523   -1.463805
  41 C     6.0000    0    12.011   10.434994   -0.329814    0.094279
  42 H     1.0000    0     1.008   12.441337   -0.446003    0.228526
  43 H     1.0000    0     1.008   -0.468769  -13.621170    0.491265
  44 H     1.0000    0     1.008    4.172017   20.784342    0.367298
  45 H     1.0000    0     1.008   -1.880069    0.152254   -0.697865

--------------------------------
INTERNAL COORDINATES (ANGSTROEM)
--------------------------------
 C      0   0   0     0.000000000000     0.00000000     0.00000000
 C      1   0   0     4.226270709362     0.00000000     0.00000000
 C      2   1   0     1.409096865805    61.02150992     0.00000000
 C      3   2   1     1.401471656004   117.42268840   359.87127049
 C      4   3   2     1.413963345239   121.48924122     0.24148618
 C      5   4   3     1.420072954935   120.83772696     0.00000000
 C      2   1   3     1.401085690954    60.45445455   179.87799882
 H      4   3   2     1.084461505509   120.57025211   180.18283404
 H      7   2   1     1.085115746573   118.74850086   179.99701089
 C      3   2   1     1.524909119744   119.42732548   179.41238298
 H     10   3   2     1.098748461588   108.30910029    53.69401482
 H     10   3   2     1.099187275633   108.20937368   299.60229940
 C     10   3   2     1.537078731353   116.54411384   176.78370573
 H     13  10   3     1.098206436052   109.71188585   301.78890312
 H     13  10   3     1.098081404874   109.76949906    58.58018477
 C     13  10   3     1.539245597783   112.65375657   180.04202713
 H     16  13  10     1.098268293406   109.22477640   302.18745480
 H     16  13  10     1.098239389001   109.28534860    58.13373412
 C     16  13  10     1.538739102343   112.94894759   180.22839019
 H     19  16  13     1.095835624147   111.02110462    59.57475738
 H     19  16  13     1.095835364769   111.06006863   299.88729597
 C      6   5   4     1.521573718217   119.89054019   179.58452224
 H     22   6   5     1.098408257821   108.19074999   303.43199494
 H     22   6   5     1.098372712303   108.38431845    56.84428482
 C     22   6   5     1.536133510623   116.44280504   180.31077139
 H     25  22   6     1.097863090103   110.00998685   300.86489056
 H     25  22   6     1.097046793632   110.13865741    58.29095058
 C     25  22   6     1.541794987917   112.11221560   179.53443047
 H     28  25  22     1.100390408710   109.51024279   302.67970868
 H     28  25  22     1.106804160114   108.55077008    56.86239971
 C     28  25  22     1.501877474558   113.88390453   179.75480162
 H     31  28  25     1.090625587089   118.27790847   329.28079287
 C     31  28  25     1.501986921832   121.73818070   164.72780743
 H     33  31  28     1.106916780090   110.00421807    75.23603468
 H     33  31  28     1.100405701882   109.54862843   320.11430116
 C     33  31  28     1.542625983207   114.02797610   197.13623918
 H     36  33  31     1.097873746745   108.99454246   302.49809277
 H     36  33  31     1.096967167294   108.94826304    58.30391835
 C     36  33  31     1.538259702780   112.94555629   180.49057398
 H     39  36  33     1.095906516274   111.01814313   300.49571768
 H     39  36  33     1.096044528069   111.06907792    60.14749141
 C      1   2   3     1.220507026381   178.71274012     1.12851364
 H     42   1   5     1.065859775969   179.88158505   285.14840113
 H     19  16  13     1.094952448102   111.35805994   179.71254704
 H     39  36  33     1.094960196387   111.37490280   180.35911042
 H      2   1   3     1.088761114606   179.65040271   189.02501774

---------------------------
INTERNAL COORDINATES (A.U.)
---------------------------
 C      0   0   0     0.000000000000     0.00000000     0.00000000
 C      1   0   0     7.986494208508     0.00000000     0.00000000
 C      2   1   0     2.662807172538    61.02150992     0.00000000
 C      3   2   1     2.648397614300   117.42268840   359.87127049
 C      4   3   2     2.672003485904   121.48924122     0.24148618
 C      5   4   3     2.683548975016   120.83772696     0.00000000
 C      2   1   3     2.647668246059    60.45445455   179.87799882
 H      4   3   2     2.049335248192   120.57025211   180.18283404
 H      7   2   1     2.050571584629   118.74850086   179.99701089
 C      3   2   1     2.881660615434   119.42732548   179.41238298
 H     10   3   2     2.076333682468   108.30910029    53.69401482
 H     10   3   2     2.077162920838   108.20937368   299.60229940
 C     10   3   2     2.904657848532   116.54411384   176.78370573
 H     13  10   3     2.075309402649   109.71188585   301.78890312
 H     13  10   3     2.075073127964   109.76949906    58.58018477
 C     13  10   3     2.908752632655   112.65375657   180.04202713
 H     16  13  10     2.075426296106   109.22477640   302.18745480
 H     16  13  10     2.075371674696   109.28534860    58.13373412
 C     16  13  10     2.907795494984   112.94894759   180.22839019
 H     19  16  13     2.070829217433   111.02110462    59.57475738
 H     19  16  13     2.070828727280   111.06006863   299.88729597
 C      6   5   4     2.875357620002   119.89054019   179.58452224
 H     22   6   5     2.075690790519   108.19074999   303.43199494
 H     22   6   5     2.075623619225   108.38431845    56.84428482
 C     22   6   5     2.902871640216   116.44280504   180.31077139
 H     25  22   6     2.074660572836   110.00998685   300.86489056
 H     25  22   6     2.073117996061   110.13865741    58.29095058
 C     25  22   6     2.913570281815   112.11221560   179.53443047
 H     28  25  22     2.079436512856   109.51024279   302.67970868
 H     28  25  22     2.091556746501   108.55077008    56.86239971
 C     28  25  22     2.838137113620   113.88390453   179.75480162
 H     31  28  25     2.060983674245   118.27790847   329.28079287
 C     31  28  25     2.838343938993   121.73818070   164.72780743
 H     33  31  28     2.091769567411   110.00421807    75.23603468
 H     33  31  28     2.079465412763   109.54862843   320.11430116
 C     33  31  28     2.915140635333   114.02797610   197.13623918
 H     36  33  31     2.074680710969   108.99454246   302.49809277
 H     36  33  31     2.072967524088   108.94826304    58.30391835
 C     36  33  31     2.906889561101   112.94555629   180.49057398
 H     39  36  33     2.070963184137   111.01814313   300.49571768
 H     39  36  33     2.071223988633   111.06907792    60.14749141
 C      1   2   3     2.306424024387   178.71274012     1.12851364
 H     42   1   5     2.014183073744   179.88158505   285.14840113
 H     19  16  13     2.069160256579   111.35805994   179.71254704
 H     39  36  33     2.069174898717   111.37490280   180.35911042
 H      2   1   3     2.057460331868   179.65040271   189.02501774

---------------------
BASIS SET INFORMATION
---------------------
There are 2 groups of distinct atoms

 Group   1 Type C   : 10s5p1d contracted to 6s2p1d pattern {511111/41/1}
 Group   2 Type H   : 6s1p contracted to 4s1p pattern {3111/1}

Atom   0C    basis set group =>   1
Atom   1C    basis set group =>   1
Atom   2C    basis set group =>   1
Atom   3C    basis set group =>   1
Atom   4C    basis set group =>   1
Atom   5C    basis set group =>   1
Atom   6C    basis set group =>   1
Atom   7H    basis set group =>   2
Atom   8H    basis set group =>   2
Atom   9C    basis set group =>   1
Atom  10H    basis set group =>   2
Atom  11H    basis set group =>   2
Atom  12C    basis set group =>   1
Atom  13H    basis set group =>   2
Atom  14H    basis set group =>   2
Atom  15C    basis set group =>   1
Atom  16H    basis set group =>   2
Atom  17H    basis set group =>   2
Atom  18C    basis set group =>   1
Atom  19H    basis set group =>   2
Atom  20H    basis set group =>   2
Atom  21C    basis set group =>   1
Atom  22H    basis set group =>   2
Atom  23H    basis set group =>   2
Atom  24C    basis set group =>   1
Atom  25H    basis set group =>   2
Atom  26H    basis set group =>   2
Atom  27C    basis set group =>   1
Atom  28H    basis set group =>   2
Atom  29H    basis set group =>   2
Atom  30C    basis set group =>   1
Atom  31H    basis set group =>   2
Atom  32C    basis set group =>   1
Atom  33H    basis set group =>   2
Atom  34H    basis set group =>   2
Atom  35C    basis set group =>   1
Atom  36H    basis set group =>   2
Atom  37H    basis set group =>   2
Atom  38C    basis set group =>   1
Atom  39H    basis set group =>   2
Atom  40H    basis set group =>   2
Atom  41C    basis set group =>   1
Atom  42H    basis set group =>   2
Atom  43H    basis set group =>   2
Atom  44H    basis set group =>   2
Atom  45H    basis set group =>   2
---------------------------------
AUXILIARY/J BASIS SET INFORMATION
---------------------------------
There are 2 groups of distinct atoms

 Group   1 Type C   : 17s13p12d2f contracted to 17s13p12d2f pattern {11111111111111111/1111111111111/111111111111/11}
 Group   2 Type H   : 15s6p1d contracted to 15s6p1d pattern {111111111111111/111111/1}

Atom   0C    basis set group =>   1
Atom   1C    basis set group =>   1
Atom   2C    basis set group =>   1
Atom   3C    basis set group =>   1
Atom   4C    basis set group =>   1
Atom   5C    basis set group =>   1
Atom   6C    basis set group =>   1
Atom   7H    basis set group =>   2
Atom   8H    basis set group =>   2
Atom   9C    basis set group =>   1
Atom  10H    basis set group =>   2
Atom  11H    basis set group =>   2
Atom  12C    basis set group =>   1
Atom  13H    basis set group =>   2
Atom  14H    basis set group =>   2
Atom  15C    basis set group =>   1
Atom  16H    basis set group =>   2
Atom  17H    basis set group =>   2
Atom  18C    basis set group =>   1
Atom  19H    basis set group =>   2
Atom  20H    basis set group =>   2
Atom  21C    basis set group =>   1
Atom  22H    basis set group =>   2
Atom  23H    basis set group =>   2
Atom  24C    basis set group =>   1
Atom  25H    basis set group =>   2
Atom  26H    basis set group =>   2
Atom  27C    basis set group =>   1
Atom  28H    basis set group =>   2
Atom  29H    basis set group =>   2
Atom  30C    basis set group =>   1
Atom  31H    basis set group =>   2
Atom  32C    basis set group =>   1
Atom  33H    basis set group =>   2
Atom  34H    basis set group =>   2
Atom  35C    basis set group =>   1
Atom  36H    basis set group =>   2
Atom  37H    basis set group =>   2
Atom  38C    basis set group =>   1
Atom  39H    basis set group =>   2
Atom  40H    basis set group =>   2
Atom  41C    basis set group =>   1
Atom  42H    basis set group =>   2
Atom  43H    basis set group =>   2
Atom  44H    basis set group =>   2
Atom  45H    basis set group =>   2
---------------------------------
AUXILIARY/C BASIS SET INFORMATION
---------------------------------
There are 2 groups of distinct atoms

 Group   1 Type C   : 17s13p12d2f contracted to 17s13p12d2f pattern {11111111111111111/1111111111111/111111111111/11}
 Group   2 Type H   : 15s6p1d contracted to 15s6p1d pattern {111111111111111/111111/1}

Atom   0C    basis set group =>   1
Atom   1C    basis set group =>   1
Atom   2C    basis set group =>   1
Atom   3C    basis set group =>   1
Atom   4C    basis set group =>   1
Atom   5C    basis set group =>   1
Atom   6C    basis set group =>   1
Atom   7H    basis set group =>   2
Atom   8H    basis set group =>   2
Atom   9C    basis set group =>   1
Atom  10H    basis set group =>   2
Atom  11H    basis set group =>   2
Atom  12C    basis set group =>   1
Atom  13H    basis set group =>   2
Atom  14H    basis set group =>   2
Atom  15C    basis set group =>   1
Atom  16H    basis set group =>   2
Atom  17H    basis set group =>   2
Atom  18C    basis set group =>   1
Atom  19H    basis set group =>   2
Atom  20H    basis set group =>   2
Atom  21C    basis set group =>   1
Atom  22H    basis set group =>   2
Atom  23H    basis set group =>   2
Atom  24C    basis set group =>   1
Atom  25H    basis set group =>   2
Atom  26H    basis set group =>   2
Atom  27C    basis set group =>   1
Atom  28H    basis set group =>   2
Atom  29H    basis set group =>   2
Atom  30C    basis set group =>   1
Atom  31H    basis set group =>   2
Atom  32C    basis set group =>   1
Atom  33H    basis set group =>   2
Atom  34H    basis set group =>   2
Atom  35C    basis set group =>   1
Atom  36H    basis set group =>   2
Atom  37H    basis set group =>   2
Atom  38C    basis set group =>   1
Atom  39H    basis set group =>   2
Atom  40H    basis set group =>   2
Atom  41C    basis set group =>   1
Atom  42H    basis set group =>   2
Atom  43H    basis set group =>   2
Atom  44H    basis set group =>   2
Atom  45H    basis set group =>   2
----------------------------------
AUXILIARY/JK BASIS SET INFORMATION
----------------------------------
There are 2 groups of distinct atoms

 Group   1 Type C   : 17s13p12d2f contracted to 17s13p12d2f pattern {11111111111111111/1111111111111/111111111111/11}
 Group   2 Type H   : 15s6p1d contracted to 15s6p1d pattern {111111111111111/111111/1}

Atom   0C    basis set group =>   1
Atom   1C    basis set group =>   1
Atom   2C    basis set group =>   1
Atom   3C    basis set group =>   1
Atom   4C    basis set group =>   1
Atom   5C    basis set group =>   1
Atom   6C    basis set group =>   1
Atom   7H    basis set group =>   2
Atom   8H    basis set group =>   2
Atom   9C    basis set group =>   1
Atom  10H    basis set group =>   2
Atom  11H    basis set group =>   2
Atom  12C    basis set group =>   1
Atom  13H    basis set group =>   2
Atom  14H    basis set group =>   2
Atom  15C    basis set group =>   1
Atom  16H    basis set group =>   2
Atom  17H    basis set group =>   2
Atom  18C    basis set group =>   1
Atom  19H    basis set group =>   2
Atom  20H    basis set group =>   2
Atom  21C    basis set group =>   1
Atom  22H    basis set group =>   2
Atom  23H    basis set group =>   2
Atom  24C    basis set group =>   1
Atom  25H    basis set group =>   2
Atom  26H    basis set group =>   2
Atom  27C    basis set group =>   1
Atom  28H    basis set group =>   2
Atom  29H    basis set group =>   2
Atom  30C    basis set group =>   1
Atom  31H    basis set group =>   2
Atom  32C    basis set group =>   1
Atom  33H    basis set group =>   2
Atom  34H    basis set group =>   2
Atom  35C    basis set group =>   1
Atom  36H    basis set group =>   2
Atom  37H    basis set group =>   2
Atom  38C    basis set group =>   1
Atom  39H    basis set group =>   2
Atom  40H    basis set group =>   2
Atom  41C    basis set group =>   1
Atom  42H    basis set group =>   2
Atom  43H    basis set group =>   2
Atom  44H    basis set group =>   2
Atom  45H    basis set group =>   2

Checking for AutoStart:
The File: EPRII.gbw exists
Trying to determine its content:
     ... Fine, the file contains calculation information
     ... Fine, the calculation information was read
     ... Fine, the file contains a basis set
     ... Fine, the basis set was read
     ... Fine, the file contains a geometry
     ... Fine, the geometry was read
     ... Fine, the file contains a set of orbitals
     ... Fine, the orbitals can be read
     => possible old guess file was deleted
     => GBW file was renamed to GES file
     => GES file is set as startup file
     => Guess is set to MORead
     ... now leaving AutoStart



           ************************************************************
           *        Program running with 16 parallel MPI-processes    *
           *              working on a common directory               *
           ************************************************************
------------------------------------------------------------------------------
                           ORCA GTO INTEGRAL CALCULATION
                           -- RI-GTO INTEGRALS CHOSEN --
------------------------------------------------------------------------------
------------------------------------------------------------------------------
                   ___                                                        
                  /   \      - P O W E R E D   B Y -                         
                 /     \                                                     
                 |  |  |   _    _      __       _____    __    __             
                 |  |  |  | |  | |    /  \     |  _  \  |  |  /  |          
                  \  \/   | |  | |   /    \    | | | |  |  | /  /          
                 / \  \   | |__| |  /  /\  \   | |_| |  |  |/  /          
                |  |  |   |  __  | /  /__\  \  |    /   |      \           
                |  |  |   | |  | | |   __   |  |    \   |  |\   \          
                \     /   | |  | | |  |  |  |  | |\  \  |  | \   \       
                 \___/    |_|  |_| |__|  |__|  |_| \__\ |__|  \__/        
                                                                              
                      - O R C A' S   B I G   F R I E N D -                    
                                      &                                       
                       - I N T E G R A L  F E E D E R -                       
                                                                              
 v1 FN, 2020, v2 2021                                                         
------------------------------------------------------------------------------


Reading SHARK input file EPRII.SHARKINP.tmp ... ok
----------------------
SHARK INTEGRAL PACKAGE
----------------------

Number of atoms                             ...     46
Number of basis functions                   ...    512
Number of shells                            ...    306
Maximum angular momentum                    ...      2
Integral batch strategy                     ... SHARK/LIBINT Hybrid
RI-J (if used) integral strategy            ... SPLIT-RIJ (Revised 2003 algorithm where possible)
Printlevel                                  ...      1
Contraction scheme used                     ... SEGMENTED contraction
Coulomb Range Separation                    ... NOT USED
Exchange Range Separation                   ... NOT USED
Finite Nucleus Model                        ... NOT USED
Auxiliary Coulomb fitting basis             ... AVAILABLE
   # of basis functions in Aux-J            ...   3496
   # of shells in Aux-J                     ...   1430
   Maximum angular momentum in Aux-J        ...      3
Auxiliary J/K fitting basis                 ... AVAILABLE
   # of basis functions in Aux-JK           ...   3496
   # of shells in Aux-JK                    ...   1430
   Maximum angular momentum in Aux-JK       ...      3
Auxiliary Correlation fitting basis         ... AVAILABLE
   # of basis functions in Aux-C            ...   3496
   # of shells in Aux-C                     ...   1430
   Maximum angular momentum in Aux-C        ...      3
Auxiliary 'external' fitting basis          ... NOT available
Integral threshold                          ...     1.000000e-10
Primitive cut-off                           ...     1.000000e-11
Primitive pair pre-selection threshold      ...     1.000000e-11

Calculating pre-screening integrals         ... done (  0.0 sec) Dimension = 306
Organizing shell pair data                  ... done (  0.2 sec)
Shell pair information
Total number of shell pairs                 ...     46971
Shell pairs after pre-screening             ...     23257
Total number of primitive shell pairs       ...    122156
Primitive shell pairs kept                  ...     43539
          la=0 lb=0:  10969 shell pairs
          la=1 lb=0:   8002 shell pairs
          la=1 lb=1:   1369 shell pairs
          la=2 lb=0:   2059 shell pairs
          la=2 lb=1:    746 shell pairs
          la=2 lb=2:    112 shell pairs

Calculating one electron integrals          ... done (  0.0 sec)
Calculating RI/J V-Matrix + Cholesky decomp.... done (  0.8 sec)
Calculating RI/JK V-Matrix + Cholesky decomp... done (  0.7 sec)
Calculating RI/C V-Matrix + Cholesky decomp.... done (  0.8 sec)
Calculating Nuclear repulsion               ... done (  0.0 sec) ENN=   1244.832379444520 Eh

SHARK setup successfully completed in   2.9 seconds

Maximum memory used throughout the entire GTOINT-calculation: 46.6 MB


           ************************************************************
           *        Program running with 16 parallel MPI-processes    *
           *              working on a common directory               *
           ************************************************************
-------------------------------------------------------------------------------
                                 ORCA SCF
-------------------------------------------------------------------------------

------------
SCF SETTINGS
------------
Hamiltonian:
 Density Functional     Method          .... DFT(GTOs)
 Exchange Functional    Exchange        .... B88
   X-Alpha parameter    XAlpha          ....  0.666667
   Becke's b parameter  XBeta           ....  0.004200
 Correlation Functional Correlation     .... LYP
 LDA part of GGA corr.  LDAOpt          .... VWN-5
 Gradients option       PostSCFGGA      .... off
 Hybrid DFT is turned on
   Fraction HF Exchange ScalHFX         ....  0.200000
   Scaling of DF-GGA-X  ScalDFX         ....  0.720000
   Scaling of DF-GGA-C  ScalDFC         ....  0.810000
   Scaling of DF-LDA-C  ScalLDAC        ....  1.000000
   Perturbative correction              ....  0.000000
   Density functional embedding theory  .... OFF
   NL short-range parameter             ....  4.800000
 RI-approximation to the Coulomb term is turned on
   Number of AuxJ basis functions       .... 3496
   RIJ-COSX (HFX calculated with COS-X)).... on


General Settings:
 Integral files         IntName         .... EPRII
 Hartree-Fock type      HFTyp           .... UHF
 Total Charge           Charge          ....    0
 Multiplicity           Mult            ....    2
 Number of Electrons    NEL             ....  141
 Basis Dimension        Dim             ....  512
 Nuclear Repulsion      ENuc            ....   1244.8323794445 Eh

Convergence Acceleration:
 DIIS                   CNVDIIS         .... on
   Start iteration      DIISMaxIt       ....    12
   Startup error        DIISStart       ....  0.200000
   # of expansion vecs  DIISMaxEq       ....     5
   Bias factor          DIISBfac        ....   1.050
   Max. coefficient     DIISMaxC        ....  10.000
 Trust-Rad. Augm. Hess. CNVTRAH         .... auto
   Auto Start mean grad. ratio tolernc. ....  1.125000
   Auto Start start iteration           ....     1
   Auto Start num. interpolation iter.  ....    10
   Max. Number of Micro iterations      ....    16
   Max. Number of Macro iterations      .... Maxiter - #DIIS iter
   Number of Davidson start vectors     ....     2
   Converg. threshold I  (grad. norm)   ....   5.000e-05
   Converg. threshold II (energy diff.) ....   1.000e-06
   Grad. Scal. Fac. for Micro threshold ....   0.100
   Minimum threshold for Micro iter.    ....   0.010
   NR start threshold (gradient norm)   ....   0.001
   Initial trust radius                 ....   0.400
   Minimum AH scaling param. (alpha)    ....   1.000
   Maximum AH scaling param. (alpha)    .... 1000.000
   Orbital update algorithm             .... Taylor
   White noise on init. David. guess    .... on
   Maximum white noise                  ....   0.010
   Quad. conv. algorithm                .... NR
 SOSCF                  CNVSOSCF        .... off
 Level Shifting         CNVShift        .... on
   Level shift para.    LevelShift      ....    0.2500
   Turn off err/grad.   ShiftErr        ....    0.0010
 Zerner damping         CNVZerner       .... off
 Static damping         CNVDamp         .... on
   Fraction old density DampFac         ....    0.7000
   Max. Damping (<1)    DampMax         ....    0.9800
   Min. Damping (>=0)   DampMin         ....    0.0000
   Turn off err/grad.   DampErr         ....    0.1000
 Fernandez-Rico         CNVRico         .... off

SCF Procedure:
 Maximum # iterations   MaxIter         ....   125
 SCF integral mode      SCFMode         .... Direct
   Integral package                     .... SHARK and LIBINT hybrid scheme
 Reset frequency        DirectResetFreq ....    20
 Integral Threshold     Thresh          ....  1.000e-10 Eh
 Primitive CutOff       TCut            ....  1.000e-11 Eh

Convergence Tolerance:
 Convergence Check Mode ConvCheckMode   .... Total+1el-Energy
 Convergence forced     ConvForced      .... 0
 Energy Change          TolE            ....  1.000e-06 Eh
 1-El. energy change                    ....  1.000e-03 Eh
 DIIS Error             TolErr          ....  1.000e-06


Diagonalization of the overlap matrix:
Smallest eigenvalue                        ... 1.559e-04
Time for diagonalization                   ...    0.051 sec
Threshold for overlap eigenvalues          ... 1.000e-08
Number of eigenvalues below threshold      ... 0
Time for construction of square roots      ...    0.050 sec
Total time needed                          ...    0.102 sec

---------------------
INITIAL GUESS: MOREAD
---------------------
Guess MOs are being read from file: EPRII.ges
Input geometry compatible with but different from current geometry
Input basis set matches current basis set (good)
MOs were renormalized
MOs were reorthogonalized (Cholesky)
                      ------------------
                      INITIAL GUESS DONE (   0.2 sec)
                      ------------------
-------------------
DFT GRID GENERATION
-------------------

General Integration Accuracy     IntAcc      ... 4.388
Radial Grid Type                 RadialGrid  ... OptM3 with GC (2021)
Angular Grid (max. ang.)         AngularGrid ... 4 (Lebedev-302)
Angular grid pruning method      GridPruning ... 4 (adaptive)
Weight generation scheme         WeightScheme... Becke
Basis function cutoff            BFCut       ... 1.0000e-10
Integration weight cutoff        WCut        ... 1.0000e-14
Angular grids for H and He will be reduced by one unit
Partially contracted basis set               ... off
Rotationally invariant grid construction     ... off

Total number of grid points                  ...   199735
Total number of batches                      ...     3147
Average number of points per batch           ...       63
Average number of grid points per atom       ...     4342
Time for grid setup =    1.163 sec

--------------------
COSX GRID GENERATION
--------------------

GRIDX 1
-------
General Integration Accuracy     IntAcc      ... 3.816
Radial Grid Type                 RadialGrid  ... OptM3 with GC (2021)
Angular Grid (max. ang.)         AngularGrid ... 1 (Lebedev-50)
Angular grid pruning method      GridPruning ... 4 (adaptive)
Weight generation scheme         WeightScheme... Becke
Basis function cutoff            BFCut       ... 1.0000e-10
Integration weight cutoff        WCut        ... 1.0000e-14
Angular grids for H and He will be reduced by one unit
Partially contracted basis set               ... on
Rotationally invariant grid construction     ... off

Total number of grid points                  ...    25508
Total number of batches                      ...      425
Average number of points per batch           ...       60
Average number of grid points per atom       ...      555
UseSFitting                                  ... on

GRIDX 2
-------
General Integration Accuracy     IntAcc      ... 4.020
Radial Grid Type                 RadialGrid  ... OptM3 with GC (2021)
Angular Grid (max. ang.)         AngularGrid ... 2 (Lebedev-110)
Angular grid pruning method      GridPruning ... 4 (adaptive)
Weight generation scheme         WeightScheme... Becke
Basis function cutoff            BFCut       ... 1.0000e-10
Integration weight cutoff        WCut        ... 1.0000e-14
Angular grids for H and He will be reduced by one unit
Partially contracted basis set               ... on
Rotationally invariant grid construction     ... off

Total number of grid points                  ...    53581
Total number of batches                      ...      862
Average number of points per batch           ...       62
Average number of grid points per atom       ...     1165
UseSFitting                                  ... on

GRIDX 3
-------
General Integration Accuracy     IntAcc      ... 4.338
Radial Grid Type                 RadialGrid  ... OptM3 with GC (2021)
Angular Grid (max. ang.)         AngularGrid ... 3 (Lebedev-194)
Angular grid pruning method      GridPruning ... 4 (adaptive)
Weight generation scheme         WeightScheme... Becke
Basis function cutoff            BFCut       ... 1.0000e-10
Integration weight cutoff        WCut        ... 1.0000e-14
Angular grids for H and He will be reduced by one unit
Partially contracted basis set               ... on
Rotationally invariant grid construction     ... off

Total number of grid points                  ...   116759
Total number of batches                      ...     1849
Average number of points per batch           ...       63
Average number of grid points per atom       ...     2538
UseSFitting                                  ... on

Time for X-Grid setup             =    2.107 sec

--------------
SCF ITERATIONS
--------------
ITER       Energy         Delta-E        Max-DP      RMS-DP      [F,P]     Damp
               ***  Starting incremental Fock matrix formation  ***
  0   -739.7744016967   0.000000000000 0.00209427  0.00003049  0.0034286 0.7000
  1   -739.7747931566  -0.000391459864 0.00168596  0.00002677  0.0027037 0.7000
                               ***Turning on DIIS***
  2   -739.7750902731  -0.000297116518 0.00421288  0.00006705  0.0020219 0.0000
  3   -739.7758212013  -0.000730928185 0.00088407  0.00001311  0.0003434 0.0000
               *** Restarting incremental Fock matrix formation ***
                                   *** Resetting DIIS ***
  4   -739.7758240017  -0.000002800483 0.00098254  0.00001180  0.0004160 0.0000
  5   -739.7758195666   0.000004435131 0.00050922  0.00000639  0.0004897 0.0000
  6   -739.7758326124  -0.000013045744 0.00023718  0.00000140  0.0001698 0.0000
  7   -739.7758323902   0.000000222135 0.00013971  0.00000082  0.0002238 0.0000
                 **** Energy Check signals convergence ****

               *****************************************************
               *                     SUCCESS                       *
               *           SCF CONVERGED AFTER   8 CYCLES          *
               *****************************************************

Old exchange energy                            =    -21.589442106 Eh
New exchange energy                            =    -21.589418315 Eh
Exchange energy change after final integration =      0.000023790 Eh
Total energy after final integration           =   -739.775808899 Eh
Final COS-X integration done in                =     7.214 sec

----------------
TOTAL SCF ENERGY
----------------

Total Energy       :         -739.77580890 Eh          -20130.32317 eV

Components:
Nuclear Repulsion  :         1244.83237944 Eh           33873.61115 eV
Electronic Energy  :        -1984.60818834 Eh          -54003.93431 eV
One Electron Energy:        -3467.56780227 Eh          -94357.31693 eV
Two Electron Energy:         1482.95961393 Eh           40353.38262 eV
Max COSX asymmetry :            0.00000265 Eh               0.00007 eV

Virial components:
Potential Energy   :        -1473.69259676 Eh          -40101.21426 eV
Kinetic Energy     :          733.91678786 Eh           19970.89110 eV
Virial Ratio       :            2.00798322


DFT components:
N(Alpha)           :       71.000031867226 electrons
N(Beta)            :       70.000022600131 electrons
N(Total)           :      141.000054467356 electrons
E(X)               :      -85.572935882724 Eh       
E(C)               :       -5.417880922095 Eh       
E(XC)              :      -90.990816804819 Eh       
DFET-embed. en.    :        0.000000000000 Eh       

---------------
SCF CONVERGENCE
---------------

  Last Energy change         ...   -2.9941e-07  Tolerance :   1.0000e-06
  Last MAX-Density change    ...    0.0000e+00  Tolerance :   1.0000e-05
  Last RMS-Density change    ...    0.0000e+00  Tolerance :   1.0000e-06
  Last DIIS Error            ...    1.9995e-05  Tolerance :   1.0000e-06

             **** THE GBW FILE WAS UPDATED (EPRII.gbw) ****
             **** DENSITY EPRII.scfp WAS UPDATED ****
             **** ENERGY FILE WAS UPDATED (EPRII.en.tmp) ****
----------------------
UHF SPIN CONTAMINATION
----------------------

Warning: in a DFT calculation there is little theoretical justification to 
         calculate <S**2> as in Hartree-Fock theory. We will do it anyways
         but you should keep in mind that the values have only limited relevance

Expectation value of <S**2>     :     0.753985
Ideal value S*(S+1) for S=0.5   :     0.750000
Deviation                       :     0.003985

             **** THE GBW FILE WAS UPDATED (EPRII.gbw) ****
             **** DENSITY EPRII.scfp WAS UPDATED ****
----------------
ORBITAL ENERGIES
----------------
                 SPIN UP ORBITALS
  NO   OCC          E(Eh)            E(eV) 
   0   1.0000     -10.216456      -278.0039 
   1   1.0000     -10.205975      -277.7187 
   2   1.0000     -10.202427      -277.6222 
   3   1.0000     -10.201944      -277.6090 
   4   1.0000     -10.193828      -277.3882 
   5   1.0000     -10.192942      -277.3641 
   6   1.0000     -10.192257      -277.3454 
   7   1.0000     -10.191733      -277.3311 
   8   1.0000     -10.187654      -277.2201 
   9   1.0000     -10.184975      -277.1473 
  10   1.0000     -10.183605      -277.1100 
  11   1.0000     -10.182343      -277.0756 
  12   1.0000     -10.181299      -277.0472 
  13   1.0000     -10.180770      -277.0328 
  14   1.0000     -10.180394      -277.0226 
  15   1.0000     -10.180340      -277.0211 
  16   1.0000     -10.178357      -276.9672 
  17   1.0000     -10.170935      -276.7652 
  18   1.0000     -10.169009      -276.7128 
  19   1.0000      -0.861028       -23.4298 
  20   1.0000      -0.809846       -22.0370 
  21   1.0000      -0.799784       -21.7632 
  22   1.0000      -0.781192       -21.2573 
  23   1.0000      -0.775329       -21.0978 
  24   1.0000      -0.756139       -20.5756 
  25   1.0000      -0.729007       -19.8373 
  26   1.0000      -0.721638       -19.6368 
  27   1.0000      -0.702845       -19.1254 
  28   1.0000      -0.670715       -18.2511 
  29   1.0000      -0.638490       -17.3742 
  30   1.0000      -0.617772       -16.8104 
  31   1.0000      -0.609114       -16.5748 
  32   1.0000      -0.584823       -15.9138 
  33   1.0000      -0.578035       -15.7291 
  34   1.0000      -0.562028       -15.2936 
  35   1.0000      -0.560707       -15.2576 
  36   1.0000      -0.527345       -14.3498 
  37   1.0000      -0.493362       -13.4251 
  38   1.0000      -0.470727       -12.8091 
  39   1.0000      -0.469974       -12.7887 
  40   1.0000      -0.466417       -12.6918 
  41   1.0000      -0.459679       -12.5085 
  42   1.0000      -0.454446       -12.3661 
  43   1.0000      -0.428590       -11.6625 
  44   1.0000      -0.424977       -11.5642 
  45   1.0000      -0.420809       -11.4508 
  46   1.0000      -0.419953       -11.4275 
  47   1.0000      -0.412828       -11.2336 
  48   1.0000      -0.406910       -11.0726 
  49   1.0000      -0.402860       -10.9624 
  50   1.0000      -0.383591       -10.4381 
  51   1.0000      -0.378857       -10.3092 
  52   1.0000      -0.373343       -10.1592 
  53   1.0000      -0.364460        -9.9175 
  54   1.0000      -0.361234        -9.8297 
  55   1.0000      -0.351623        -9.5681 
  56   1.0000      -0.350055        -9.5255 
  57   1.0000      -0.347435        -9.4542 
  58   1.0000      -0.332350        -9.0437 
  59   1.0000      -0.331633        -9.0242 
  60   1.0000      -0.327464        -8.9107 
  61   1.0000      -0.325286        -8.8515 
  62   1.0000      -0.324914        -8.8414 
  63   1.0000      -0.323536        -8.8039 
  64   1.0000      -0.319150        -8.6845 
  65   1.0000      -0.309878        -8.4322 
  66   1.0000      -0.298411        -8.1202 
  67   1.0000      -0.271317        -7.3829 
  68   1.0000      -0.240662        -6.5488 
  69   1.0000      -0.223011        -6.0684 
  70   1.0000      -0.179981        -4.8975 
  71   0.0000      -0.032947        -0.8965 
  72   0.0000      -0.000211        -0.0057 
  73   0.0000       0.020978         0.5708 
  74   0.0000       0.024165         0.6576 
  75   0.0000       0.026374         0.7177 
  76   0.0000       0.028826         0.7844 
  77   0.0000       0.032545         0.8856 
  78   0.0000       0.038793         1.0556 
  79   0.0000       0.044170         1.2019 
  80   0.0000       0.045153         1.2287 
  81   0.0000       0.051884         1.4118 
  82   0.0000       0.057118         1.5543 
  83   0.0000       0.064502         1.7552 
  84   0.0000       0.077016         2.0957 
  85   0.0000       0.081732         2.2241 
  86   0.0000       0.084008         2.2860 
  87   0.0000       0.091488         2.4895 
  88   0.0000       0.110240         2.9998 
  89   0.0000       0.116107         3.1594 
  90   0.0000       0.118919         3.2359 
  91   0.0000       0.145395         3.9564 
  92   0.0000       0.150252         4.0886 
  93   0.0000       0.151699         4.1280 
  94   0.0000       0.162053         4.4097 
  95   0.0000       0.164930         4.4880 
  96   0.0000       0.175319         4.7707 
  97   0.0000       0.180106         4.9009 
  98   0.0000       0.181866         4.9488 
  99   0.0000       0.187515         5.1025 
 100   0.0000       0.190722         5.1898 
 101   0.0000       0.193577         5.2675 
 102   0.0000       0.197360         5.3704 
 103   0.0000       0.200032         5.4432 
 104   0.0000       0.202057         5.4983 
 105   0.0000       0.202692         5.5155 
 106   0.0000       0.205998         5.6055 
 107   0.0000       0.216539         5.8923 
 108   0.0000       0.220108         5.9894 
 109   0.0000       0.220841         6.0094 
 110   0.0000       0.224757         6.1159 
 111   0.0000       0.226524         6.1640 
 112   0.0000       0.230420         6.2700 
 113   0.0000       0.238294         6.4843 
 114   0.0000       0.243802         6.6342 
 115   0.0000       0.250666         6.8210 
 116   0.0000       0.252256         6.8642 
 117   0.0000       0.255100         6.9416 
 118   0.0000       0.258410         7.0317 
 119   0.0000       0.260337         7.0841 
 120   0.0000       0.261542         7.1169 
 121   0.0000       0.275484         7.4963 
 122   0.0000       0.277457         7.5500 
 123   0.0000       0.280213         7.6250 
 124   0.0000       0.280848         7.6423 
 125   0.0000       0.283991         7.7278 
 126   0.0000       0.291030         7.9193 
 127   0.0000       0.296176         8.0593 
 128   0.0000       0.297375         8.0920 
 129   0.0000       0.297713         8.1012 
 130   0.0000       0.303639         8.2624 
 131   0.0000       0.306203         8.3322 
 132   0.0000       0.311149         8.4668 
 133   0.0000       0.314142         8.5482 
 134   0.0000       0.318533         8.6677 
 135   0.0000       0.319537         8.6950 
 136   0.0000       0.321534         8.7494 
 137   0.0000       0.330119         8.9830 
 138   0.0000       0.330965         9.0060 
 139   0.0000       0.331782         9.0282 
 140   0.0000       0.335887         9.1399 
 141   0.0000       0.347826         9.4648 
 142   0.0000       0.350870         9.5477 
 143   0.0000       0.353042         9.6067 
 144   0.0000       0.360920         9.8211 
 145   0.0000       0.366108         9.9623 
 146   0.0000       0.369304        10.0493 
 147   0.0000       0.373218        10.1558 
 148   0.0000       0.374759        10.1977 
 149   0.0000       0.381388        10.3781 
 150   0.0000       0.391108        10.6426 
 151   0.0000       0.393987        10.7209 
 152   0.0000       0.400837        10.9073 
 153   0.0000       0.404635        11.0107 
 154   0.0000       0.414545        11.2803 
 155   0.0000       0.418756        11.3949 
 156   0.0000       0.420182        11.4337 
 157   0.0000       0.424693        11.5565 
 158   0.0000       0.432272        11.7627 
 159   0.0000       0.439669        11.9640 
 160   0.0000       0.446512        12.1502 
 161   0.0000       0.451980        12.2990 
 162   0.0000       0.455990        12.4081 
 163   0.0000       0.461779        12.5657 
 164   0.0000       0.466821        12.7028 
 165   0.0000       0.471175        12.8213 
 166   0.0000       0.479662        13.0523 
 167   0.0000       0.487873        13.2757 
 168   0.0000       0.490462        13.3462 
 169   0.0000       0.504216        13.7204 
 170   0.0000       0.508086        13.8257 
 171   0.0000       0.511781        13.9263 
 172   0.0000       0.516077        14.0432 
 173   0.0000       0.523820        14.2539 
 174   0.0000       0.534395        14.5416 
 175   0.0000       0.539751        14.6874 
 176   0.0000       0.544163        14.8074 
 177   0.0000       0.551316        15.0021 
 178   0.0000       0.560626        15.2554 
 179   0.0000       0.570703        15.5296 
 180   0.0000       0.574955        15.6453 
 181   0.0000       0.583795        15.8859 
 182   0.0000       0.587737        15.9931 
 183   0.0000       0.595087        16.1931 
 184   0.0000       0.598366        16.2824 
 185   0.0000       0.614921        16.7328 
 186   0.0000       0.623186        16.9577 
 187   0.0000       0.650429        17.6991 
 188   0.0000       0.656111        17.8537 
 189   0.0000       0.675627        18.3847 
 190   0.0000       0.684600        18.6289 
 191   0.0000       0.695177        18.9167 
 192   0.0000       0.719985        19.5918 
 193   0.0000       0.762117        20.7383 
 194   0.0000       0.767630        20.8883 
 195   0.0000       0.776895        21.1404 
 196   0.0000       0.782096        21.2819 
 197   0.0000       0.792496        21.5649 
 198   0.0000       0.801615        21.8131 
 199   0.0000       0.827508        22.5176 
 200   0.0000       0.833995        22.6941 
 201   0.0000       0.840183        22.8625 
 202   0.0000       0.849107        23.1054 
 203   0.0000       0.852638        23.2015 
 204   0.0000       0.856696        23.3119 
 205   0.0000       0.858510        23.3613 
 206   0.0000       0.861033        23.4299 
 207   0.0000       0.874966        23.8090 
 208   0.0000       0.882318        24.0091 
 209   0.0000       0.883355        24.0373 
 210   0.0000       0.885573        24.0977 
 211   0.0000       0.899112        24.4661 
 212   0.0000       0.902301        24.5529 
 213   0.0000       0.907603        24.6971 
 214   0.0000       0.917062        24.9545 
 215   0.0000       0.921057        25.0632 
 216   0.0000       0.926326        25.2066 
 217   0.0000       0.930092        25.3091 
 218   0.0000       0.933487        25.4015 
 219   0.0000       0.937779        25.5183 
 220   0.0000       0.947053        25.7706 
 221   0.0000       0.950542        25.8656 
 222   0.0000       0.952951        25.9311 
 223   0.0000       0.959658        26.1136 
 224   0.0000       0.961081        26.1524 
 225   0.0000       0.970485        26.4082 
 226   0.0000       0.984650        26.7937 
 227   0.0000       0.992956        27.0197 
 228   0.0000       0.995712        27.0947 
 229   0.0000       0.996468        27.1153 
 230   0.0000       1.000934        27.2368 
 231   0.0000       1.007193        27.4071 
 232   0.0000       1.012258        27.5449 
 233   0.0000       1.019844        27.7514 
 234   0.0000       1.032545        28.0970 
 235   0.0000       1.034526        28.1509 
 236   0.0000       1.039525        28.2869 
 237   0.0000       1.043327        28.3904 
 238   0.0000       1.051097        28.6018 
 239   0.0000       1.058468        28.8024 
 240   0.0000       1.078379        29.3442 
 241   0.0000       1.085824        29.5468 
 242   0.0000       1.087235        29.5852 
 243   0.0000       1.089618        29.6500 
 244   0.0000       1.108845        30.1732 
 245   0.0000       1.110626        30.2217 
 246   0.0000       1.120143        30.4806 
 247   0.0000       1.127334        30.6763 
 248   0.0000       1.135187        30.8900 
 249   0.0000       1.144808        31.1518 
 250   0.0000       1.166944        31.7542 
 251   0.0000       1.177701        32.0469 
 252   0.0000       1.180550        32.1244 
 253   0.0000       1.185933        32.2709 
 254   0.0000       1.192885        32.4601 
 255   0.0000       1.198483        32.6124 
 256   0.0000       1.198972        32.6257 
 257   0.0000       1.203606        32.7518 
 258   0.0000       1.210909        32.9505 
 259   0.0000       1.220002        33.1979 
 260   0.0000       1.239717        33.7344 
 261   0.0000       1.241695        33.7882 
 262   0.0000       1.253056        34.0974 
 263   0.0000       1.261597        34.3298 
 264   0.0000       1.278026        34.7769 
 265   0.0000       1.284039        34.9405 
 266   0.0000       1.288616        35.0650 
 267   0.0000       1.298515        35.3344 
 268   0.0000       1.300492        35.3882 
 269   0.0000       1.322256        35.9804 
 270   0.0000       1.335181        36.3321 
 271   0.0000       1.339009        36.4363 
 272   0.0000       1.357857        36.9492 
 273   0.0000       1.369207        37.2580 
 274   0.0000       1.376618        37.4597 
 275   0.0000       1.382086        37.6085 
 276   0.0000       1.388010        37.7697 
 277   0.0000       1.407073        38.2884 
 278   0.0000       1.410309        38.3765 
 279   0.0000       1.428616        38.8746 
 280   0.0000       1.435022        39.0489 
 281   0.0000       1.435515        39.0624 
 282   0.0000       1.442452        39.2511 
 283   0.0000       1.456396        39.6305 
 284   0.0000       1.461512        39.7698 
 285   0.0000       1.482099        40.3300 
 286   0.0000       1.489449        40.5300 
 287   0.0000       1.501237        40.8507 
 288   0.0000       1.508884        41.0588 
 289   0.0000       1.515574        41.2409 
 290   0.0000       1.520697        41.3803 
 291   0.0000       1.532995        41.7149 
 292   0.0000       1.535986        41.7963 
 293   0.0000       1.543971        42.0136 
 294   0.0000       1.547903        42.1206 
 295   0.0000       1.551112        42.2079 
 296   0.0000       1.557117        42.3713 
 297   0.0000       1.560080        42.4519 
 298   0.0000       1.577492        42.9258 
 299   0.0000       1.580954        43.0200 
 300   0.0000       1.587453        43.1968 
 301   0.0000       1.590856        43.2894 
 302   0.0000       1.594112        43.3780 
 303   0.0000       1.604889        43.6713 
 304   0.0000       1.607192        43.7339 
 305   0.0000       1.610270        43.8177 
 306   0.0000       1.612244        43.8714 
 307   0.0000       1.617989        44.0277 
 308   0.0000       1.620341        44.0917 
 309   0.0000       1.638798        44.5940 
 310   0.0000       1.654572        45.0232 
 311   0.0000       1.657980        45.1159 
 312   0.0000       1.672708        45.5167 
 313   0.0000       1.673691        45.5435 
 314   0.0000       1.678009        45.6609 
 315   0.0000       1.687502        45.9193 
 316   0.0000       1.691177        46.0193 
 317   0.0000       1.692740        46.0618 
 318   0.0000       1.701039        46.2876 
 319   0.0000       1.709091        46.5067 
 320   0.0000       1.719250        46.7832 
 321   0.0000       1.720712        46.8229 
 322   0.0000       1.737359        47.2759 
 323   0.0000       1.745658        47.5018 
 324   0.0000       1.746950        47.5369 
 325   0.0000       1.751290        47.6550 
 326   0.0000       1.760998        47.9192 
 327   0.0000       1.764235        48.0073 
 328   0.0000       1.770428        48.1758 
 329   0.0000       1.777704        48.3738 
 330   0.0000       1.784394        48.5558 
 331   0.0000       1.788753        48.6745 
 332   0.0000       1.794426        48.8288 
 333   0.0000       1.805404        49.1276 
 334   0.0000       1.815483        49.4018 
 335   0.0000       1.818621        49.4872 
 336   0.0000       1.823211        49.6121 
 337   0.0000       1.840043        50.0701 
 338   0.0000       1.848903        50.3112 
 339   0.0000       1.856824        50.5267 
 340   0.0000       1.880762        51.1781 
 341   0.0000       1.900137        51.7054 
 342   0.0000       1.906493        51.8783 
 343   0.0000       1.919245        52.2253 
 344   0.0000       1.929514        52.5048 
 345   0.0000       1.939437        52.7748 
 346   0.0000       1.941653        52.8351 
 347   0.0000       1.948784        53.0291 
 348   0.0000       1.956746        53.2458 
 349   0.0000       1.971811        53.6557 
 350   0.0000       1.991260        54.1849 
 351   0.0000       2.005106        54.5617 
 352   0.0000       2.041306        55.5468 
 353   0.0000       2.044443        55.6321 
 354   0.0000       2.052446        55.8499 
 355   0.0000       2.067227        56.2521 
 356   0.0000       2.077596        56.5343 
 357   0.0000       2.096825        57.0575 
 358   0.0000       2.105213        57.2858 
 359   0.0000       2.120233        57.6945 
 360   0.0000       2.125777        57.8453 
 361   0.0000       2.154685        58.6320 
 362   0.0000       2.168159        58.9986 
 363   0.0000       2.183107        59.4054 
 364   0.0000       2.185664        59.4749 
 365   0.0000       2.198756        59.8312 
 366   0.0000       2.215837        60.2960 
 367   0.0000       2.220576        60.4249 
 368   0.0000       2.234205        60.7958 
 369   0.0000       2.243992        61.0621 
 370   0.0000       2.262458        61.5646 
 371   0.0000       2.269781        61.7639 
 372   0.0000       2.272474        61.8372 
 373   0.0000       2.288506        62.2734 
 374   0.0000       2.294756        62.4435 
 375   0.0000       2.299785        62.5803 
 376   0.0000       2.309689        62.8498 
 377   0.0000       2.320653        63.1482 
 378   0.0000       2.327047        63.3222 
 379   0.0000       2.333536        63.4987 
 380   0.0000       2.336321        63.5745 
 381   0.0000       2.348400        63.9032 
 382   0.0000       2.355267        64.0901 
 383   0.0000       2.360069        64.2208 
 384   0.0000       2.388867        65.0044 
 385   0.0000       2.411689        65.6254 
 386   0.0000       2.422832        65.9286 
 387   0.0000       2.427067        66.0439 
 388   0.0000       2.431611        66.1675 
 389   0.0000       2.445582        66.5477 
 390   0.0000       2.450339        66.6771 
 391   0.0000       2.455062        66.8056 
 392   0.0000       2.462835        67.0172 
 393   0.0000       2.475051        67.3496 
 394   0.0000       2.481157        67.5157 
 395   0.0000       2.485102        67.6231 
 396   0.0000       2.489765        67.7500 
 397   0.0000       2.506331        68.2007 
 398   0.0000       2.515268        68.4439 
 399   0.0000       2.526879        68.7599 
 400   0.0000       2.531660        68.8900 
 401   0.0000       2.549287        69.3696 
 402   0.0000       2.559885        69.6580 
 403   0.0000       2.567843        69.8745 
 404   0.0000       2.571641        69.9779 
 405   0.0000       2.584926        70.3394 
 406   0.0000       2.590284        70.4852 
 407   0.0000       2.597589        70.6840 
 408   0.0000       2.617049        71.2135 
 409   0.0000       2.624442        71.4147 
 410   0.0000       2.638126        71.7871 
 411   0.0000       2.641863        71.8888 
 412   0.0000       2.692634        73.2703 
 413   0.0000       2.707701        73.6803 
 414   0.0000       2.746692        74.7413 
 415   0.0000       2.779278        75.6280 
 416   0.0000       2.861375        77.8620 
 417   0.0000       2.909045        79.1592 
 418   0.0000       2.965604        80.6982 
 419   0.0000       3.282903        89.3323 
 420   0.0000       4.989572       135.7732 
 421   0.0000       4.990677       135.8032 
 422   0.0000       5.010582       136.3449 
 423   0.0000       5.011433       136.3680 
 424   0.0000       5.011547       136.3711 
 425   0.0000       5.015001       136.4651 
 426   0.0000       5.020909       136.6259 
 427   0.0000       5.028445       136.8309 
 428   0.0000       5.035583       137.0252 
 429   0.0000       5.038864       137.1145 
 430   0.0000       5.044064       137.2560 
 431   0.0000       5.050765       137.4383 
 432   0.0000       5.055935       137.5790 
 433   0.0000       5.130700       139.6135 
 434   0.0000       5.160127       140.4142 
 435   0.0000       5.189509       141.2137 
 436   0.0000       5.232746       142.3903 
 437   0.0000       5.253369       142.9514 
 438   0.0000       5.265544       143.2827 
 439   0.0000       5.273471       143.4984 
 440   0.0000       5.290028       143.9490 
 441   0.0000       5.305346       144.3658 
 442   0.0000       5.309384       144.4757 
 443   0.0000       5.312675       144.5652 
 444   0.0000       5.331200       145.0693 
 445   0.0000       5.343744       145.4107 
 446   0.0000       5.362258       145.9145 
 447   0.0000       5.384398       146.5169 
 448   0.0000       5.394837       146.8010 
 449   0.0000       5.411321       147.2495 
 450   0.0000       5.432035       147.8132 
 451   0.0000       5.454107       148.4138 
 452   0.0000       5.505069       149.8005 
 453   0.0000       5.517011       150.1255 
 454   0.0000       5.584957       151.9744 
 455   0.0000       5.602948       152.4640 
 456   0.0000       5.632563       153.2698 
 457   0.0000       5.667692       154.2257 
 458   0.0000       5.727060       155.8412 
 459   0.0000       5.742821       156.2701 
 460   0.0000       5.790776       157.5750 
 461   0.0000       5.830870       158.6661 
 462   0.0000       5.860383       159.4691 
 463   0.0000       5.890368       160.2851 
 464   0.0000       6.058365       164.8565 
 465   0.0000       6.325314       172.1206 
 466   0.0000      29.613084       805.8130 
 467   0.0000      29.709390       808.4336 
 468   0.0000      29.809118       811.1473 
 469   0.0000      29.856150       812.4271 
 470   0.0000      29.876325       812.9761 
 471   0.0000      29.922719       814.2386 
 472   0.0000      29.964178       815.3667 
 473   0.0000      29.998542       816.3018 
 474   0.0000      30.037506       817.3621 
 475   0.0000      30.072049       818.3020 
 476   0.0000      30.105878       819.2226 
 477   0.0000      30.131493       819.9196 
 478   0.0000      30.158361       820.6507 
 479   0.0000      30.202827       821.8607 
 480   0.0000      30.243116       822.9570 
 481   0.0000      30.269921       823.6864 
 482   0.0000      30.299741       824.4979 
 483   0.0000      30.366917       826.3258 
 484   0.0000      30.549417       831.2919 
 485   0.0000      36.616786       996.3934 
 486   0.0000      36.617273       996.4067 
 487   0.0000      36.630526       996.7673 
 488   0.0000      36.632331       996.8164 
 489   0.0000      36.639374       997.0081 
 490   0.0000      36.640002       997.0251 
 491   0.0000      36.649619       997.2868 
 492   0.0000      36.654743       997.4263 
 493   0.0000      36.663797       997.6726 
 494   0.0000      36.666141       997.7364 
 495   0.0000      36.674914       997.9752 
 496   0.0000      36.680911       998.1383 
 497   0.0000      36.761826      1000.3401 
 498   0.0000      36.787468      1001.0379 
 499   0.0000      36.832298      1002.2578 
 500   0.0000      36.848328      1002.6940 
 501   0.0000      36.864076      1003.1225 
 502   0.0000      36.876026      1003.4477 
 503   0.0000      36.877353      1003.4838 
 504   0.0000      36.882666      1003.6284 
 505   0.0000      36.892625      1003.8994 
 506   0.0000      36.934188      1005.0303 
 507   0.0000      36.937687      1005.1256 
 508   0.0000      36.949751      1005.4538 
 509   0.0000      36.977160      1006.1997 
 510   0.0000      36.997194      1006.7448 
 511   0.0000      37.021780      1007.4138 

                 SPIN DOWN ORBITALS
  NO   OCC          E(Eh)            E(eV) 
   0   1.0000     -10.216450      -278.0037 
   1   1.0000     -10.205984      -277.7189 
   2   1.0000     -10.202423      -277.6220 
   3   1.0000     -10.201945      -277.6090 
   4   1.0000     -10.193830      -277.3882 
   5   1.0000     -10.192944      -277.3641 
   6   1.0000     -10.192256      -277.3454 
   7   1.0000     -10.191727      -277.3310 
   8   1.0000     -10.187654      -277.2202 
   9   1.0000     -10.183593      -277.1096 
  10   1.0000     -10.183210      -277.0992 
  11   1.0000     -10.181298      -277.0472 
  12   1.0000     -10.181256      -277.0461 
  13   1.0000     -10.180770      -277.0328 
  14   1.0000     -10.180097      -277.0145 
  15   1.0000     -10.178083      -276.9597 
  16   1.0000     -10.171230      -276.7732 
  17   1.0000     -10.170935      -276.7652 
  18   1.0000     -10.168999      -276.7125 
  19   1.0000      -0.861008       -23.4292 
  20   1.0000      -0.808207       -21.9924 
  21   1.0000      -0.793946       -21.6044 
  22   1.0000      -0.779886       -21.2218 
  23   1.0000      -0.775179       -21.0937 
  24   1.0000      -0.754596       -20.5336 
  25   1.0000      -0.724659       -19.7190 
  26   1.0000      -0.721617       -19.6362 
  27   1.0000      -0.699507       -19.0345 
  28   1.0000      -0.669956       -18.2304 
  29   1.0000      -0.637451       -17.3459 
  30   1.0000      -0.617229       -16.7956 
  31   1.0000      -0.606896       -16.5145 
  32   1.0000      -0.583585       -15.8801 
  33   1.0000      -0.577373       -15.7111 
  34   1.0000      -0.560479       -15.2514 
  35   1.0000      -0.546165       -14.8619 
  36   1.0000      -0.527067       -14.3422 
  37   1.0000      -0.493049       -13.4166 
  38   1.0000      -0.470676       -12.8078 
  39   1.0000      -0.467308       -12.7161 
  40   1.0000      -0.464138       -12.6298 
  41   1.0000      -0.459391       -12.5007 
  42   1.0000      -0.452425       -12.3111 
  43   1.0000      -0.426446       -11.6042 
  44   1.0000      -0.423994       -11.5375 
  45   1.0000      -0.419826       -11.4241 
  46   1.0000      -0.419398       -11.4124 
  47   1.0000      -0.412559       -11.2263 
  48   1.0000      -0.401250       -10.9186 
  49   1.0000      -0.399784       -10.8787 
  50   1.0000      -0.380934       -10.3657 
  51   1.0000      -0.376170       -10.2361 
  52   1.0000      -0.372495       -10.1361 
  53   1.0000      -0.363704        -9.8969 
  54   1.0000      -0.359699        -9.7879 
  55   1.0000      -0.350695        -9.5429 
  56   1.0000      -0.348669        -9.4878 
  57   1.0000      -0.345919        -9.4129 
  58   1.0000      -0.331300        -9.0151 
  59   1.0000      -0.330015        -8.9802 
  60   1.0000      -0.325965        -8.8700 
  61   1.0000      -0.324795        -8.8381 
  62   1.0000      -0.324219        -8.8224 
  63   1.0000      -0.321740        -8.7550 
  64   1.0000      -0.318834        -8.6759 
  65   1.0000      -0.307144        -8.3578 
  66   1.0000      -0.298382        -8.1194 
  67   1.0000      -0.271310        -7.3827 
  68   1.0000      -0.240618        -6.5475 
  69   1.0000      -0.222956        -6.0669 
  70   0.0000      -0.036818        -1.0019 
  71   0.0000      -0.032802        -0.8926 
  72   0.0000      -0.000107        -0.0029 
  73   0.0000       0.021055         0.5729 
  74   0.0000       0.024507         0.6669 
  75   0.0000       0.026921         0.7326 
  76   0.0000       0.028970         0.7883 
  77   0.0000       0.033335         0.9071 
  78   0.0000       0.039123         1.0646 
  79   0.0000       0.044329         1.2062 
  80   0.0000       0.045547         1.2394 
  81   0.0000       0.051941         1.4134 
  82   0.0000       0.057575         1.5667 
  83   0.0000       0.064664         1.7596 
  84   0.0000       0.077032         2.0961 
  85   0.0000       0.081910         2.2289 
  86   0.0000       0.084180         2.2906 
  87   0.0000       0.092409         2.5146 
  88   0.0000       0.111164         3.0249 
  89   0.0000       0.116261         3.1636 
  90   0.0000       0.119570         3.2537 
  91   0.0000       0.145545         3.9605 
  92   0.0000       0.150307         4.0901 
  93   0.0000       0.152273         4.1436 
  94   0.0000       0.162575         4.4239 
  95   0.0000       0.165999         4.5171 
  96   0.0000       0.176307         4.7976 
  97   0.0000       0.181081         4.9275 
  98   0.0000       0.183501         4.9933 
  99   0.0000       0.189135         5.1466 
 100   0.0000       0.192626         5.2416 
 101   0.0000       0.195922         5.3313 
 102   0.0000       0.197693         5.3795 
 103   0.0000       0.200122         5.4456 
 104   0.0000       0.202662         5.5147 
 105   0.0000       0.203886         5.5480 
 106   0.0000       0.206792         5.6271 
 107   0.0000       0.217129         5.9084 
 108   0.0000       0.220580         6.0023 
 109   0.0000       0.223111         6.0712 
 110   0.0000       0.225227         6.1287 
 111   0.0000       0.227018         6.1775 
 112   0.0000       0.230702         6.2777 
 113   0.0000       0.239189         6.5087 
 114   0.0000       0.244465         6.6522 
 115   0.0000       0.251045         6.8313 
 116   0.0000       0.252508         6.8711 
 117   0.0000       0.255170         6.9435 
 118   0.0000       0.259250         7.0545 
 119   0.0000       0.261495         7.1156 
 120   0.0000       0.267985         7.2922 
 121   0.0000       0.277741         7.5577 
 122   0.0000       0.278080         7.5669 
 123   0.0000       0.281295         7.6544 
 124   0.0000       0.284057         7.7296 
 125   0.0000       0.286267         7.7897 
 126   0.0000       0.292259         7.9528 
 127   0.0000       0.297169         8.0864 
 128   0.0000       0.298193         8.1142 
 129   0.0000       0.298627         8.1261 
 130   0.0000       0.305091         8.3020 
 131   0.0000       0.308299         8.3892 
 132   0.0000       0.311488         8.4760 
 133   0.0000       0.317112         8.6290 
 134   0.0000       0.320615         8.7244 
 135   0.0000       0.321407         8.7459 
 136   0.0000       0.325420         8.8551 
 137   0.0000       0.331177         9.0118 
 138   0.0000       0.331750         9.0274 
 139   0.0000       0.333703         9.0805 
 140   0.0000       0.337210         9.1760 
 141   0.0000       0.350965         9.5502 
 142   0.0000       0.351388         9.5617 
 143   0.0000       0.354410         9.6440 
 144   0.0000       0.361575         9.8390 
 145   0.0000       0.366564         9.9747 
 146   0.0000       0.371026        10.0961 
 147   0.0000       0.374100        10.1798 
 148   0.0000       0.376839        10.2543 
 149   0.0000       0.383324        10.4308 
 150   0.0000       0.391900        10.6641 
 151   0.0000       0.395044        10.7497 
 152   0.0000       0.405290        11.0285 
 153   0.0000       0.409508        11.1433 
 154   0.0000       0.416991        11.3469 
 155   0.0000       0.419189        11.4067 
 156   0.0000       0.421877        11.4799 
 157   0.0000       0.426054        11.5935 
 158   0.0000       0.433244        11.7892 
 159   0.0000       0.441388        12.0108 
 160   0.0000       0.447315        12.1720 
 161   0.0000       0.452396        12.3103 
 162   0.0000       0.456270        12.4157 
 163   0.0000       0.462840        12.5945 
 164   0.0000       0.469739        12.7823 
 165   0.0000       0.479762        13.0550 
 166   0.0000       0.483907        13.1678 
 167   0.0000       0.488015        13.2796 
 168   0.0000       0.491622        13.3777 
 169   0.0000       0.505607        13.7583 
 170   0.0000       0.508629        13.8405 
 171   0.0000       0.516056        14.0426 
 172   0.0000       0.516319        14.0498 
 173   0.0000       0.524132        14.2624 
 174   0.0000       0.538217        14.6456 
 175   0.0000       0.541616        14.7381 
 176   0.0000       0.545959        14.8563 
 177   0.0000       0.552101        15.0234 
 178   0.0000       0.562994        15.3198 
[...]
  Y           0.3510576            0.4019919           -0.8456720
  Z          -0.6254524            0.7727924            0.1077090

Notes:  (1) The A matrix conforms to the "SAI" spin Hamiltonian convention.
        (2) Tensor is right-handed.

 -----------------------------------------------------------
 Nucleus  43H : A:ISTP=    1 I=  0.5 P=533.5514 MHz/au**3
                Q:ISTP=    2 I=  1.0 Q=  0.0029 barn     
 -----------------------------------------------------------
 Solving for nuclear perturbation:
Forming RHS of the CP-SCF equations         ... 
Calc. nucleus orbit integrals (SHARK)       ... done

------------------------------------------------------------------------------
                           ORCA CP-SCF CALCULATION
------------------------------------------------------------------------------

Input orbitals are from        ... EPRII.gbw
Input Perturbation             ... EPRII.pin.tmp
Wavefunction output            ... EPRII.pout.tmp
Perturbation mode              ... Imaginary perturbation
Solver                         ... POPLE
Max. number of iterations      ... 64
Convergence tolerance          ... 1.000e-03
Integral handling              ... Direct
DFT GridXC                     ... 1
COSX GridX                     ... 1
COSX IntAccX                   ... 3.067
COSX Algorithm                 ... Auto
Number of perturbations        ... 3
Number of operators            ... 2
Orbital ranges used for CP-SCF:
 Operator 0:  Orbitals   0... 70  to  71...511
 Operator 1:  Orbitals   0... 69  to  70...511
Variables per perturbation     ... 62251
DFT calculation                         ... on
XC functional terms                     ... off
Hybrid DFT                              ... on
   Exchange mixing (SCF)                ...  0.200
   Exchange mixing (CP-SCF)             ...  0.200
   GGA exch. scaling(SCF)               ...  0.720
   GGA exch. scaling (CP-SCF)           ...  0.720
   GGA corr. scaling (SCF)              ...  0.810
   GGA corr. scaling (CP-SCF)           ...  0.810

CP-SCF GRID
-----------

General Integration Accuracy     IntAcc      ... 3.467
Radial Grid Type                 RadialGrid  ... OptM3 with GC (2021)
Angular Grid (max. ang.)         AngularGrid ... 1 (Lebedev-50)
Angular grid pruning method      GridPruning ... 4 (adaptive)
Weight generation scheme         WeightScheme... Becke
Basis function cutoff            BFCut       ... 1.0000e-10
Integration weight cutoff        WCut        ... 1.0000e-14
Angular grids for H and He will be reduced by one unit
Partially contracted basis set               ... off
Rotationally invariant grid construction     ... off

Total number of grid points                  ...    27925
Total number of batches                      ...      457
Average number of points per batch           ...       61
Average number of grid points per atom       ...      607

CP-SCF GRIDX
------------

General Integration Accuracy     IntAcc      ... 3.067
Radial Grid Type                 RadialGrid  ... OptM3 with GC (2021)
Angular Grid (max. ang.)         AngularGrid ... 1 (Lebedev-50)
Angular grid pruning method      GridPruning ... 4 (adaptive)
Weight generation scheme         WeightScheme... Becke
Basis function cutoff            BFCut       ... 1.0000e-10
Integration weight cutoff        WCut        ... 1.0000e-14
Angular grids for H and He will be reduced by one unit
Partially contracted basis set               ... on
Rotationally invariant grid construction     ... off

Total number of grid points                  ...    13281
Total number of batches                      ...      235
Average number of points per batch           ...       56
Average number of grid points per atom       ...      289

Memory available               ... 877.6 MB
Memory needed per perturbation ...  15.3 MB
Perturbations treated per batch... 3
Number of batches              ... 1
     CP-SCF ITERATION   0:   3.7184e-02 (   1.6 sec   0/  3 done)
     CP-SCF ITERATION   1:   5.6135e-04 (   1.6 sec   3/  3 done)
                    *** THE CP-SCF HAS CONVERGED ***

Forming final perturbed densities           ... done
Transforming perturbed density to AO basis  ... done

 Raw HFC matrix (all values in MHz): 
 -----------------------------------
                -0.0258               0.0178              -0.0013
                 0.0178               0.0552              -0.0054
                -0.0012              -0.0054              -0.0292

 A(FC)           0.0000               0.0000               0.0000
 A(SD)          -0.0295              -0.0297               0.0592
 A(ORB+DIA)      0.0000               0.0000               0.0000    A(PC) =   0.0000
 A(ORB)          0.0000              -0.0000               0.0000    A(PC) =   0.0000
 A(DIA)          0.0000               0.0000               0.0000    A(PC) =   0.0000
             ----------           ----------           ----------
 A(Tot)         -0.0295              -0.0297               0.0592    A(iso)=    0.0000
 Orientation: 
  X           0.7219304            0.6608283           -0.2052374
  Y          -0.1941114           -0.0912871           -0.9767228
  Z          -0.6641816            0.7449648            0.0623714

Notes:  (1) The A matrix conforms to the "SAI" spin Hamiltonian convention.
        (2) Tensor is right-handed.

 -----------------------------------------------------------
 Nucleus  44H : A:ISTP=    1 I=  0.5 P=533.5514 MHz/au**3
                Q:ISTP=    2 I=  1.0 Q=  0.0029 barn     
 -----------------------------------------------------------
 Solving for nuclear perturbation:
Forming RHS of the CP-SCF equations         ... 
Calc. nucleus orbit integrals (SHARK)       ... done

------------------------------------------------------------------------------
                           ORCA CP-SCF CALCULATION
------------------------------------------------------------------------------

Input orbitals are from        ... EPRII.gbw
Input Perturbation             ... EPRII.pin.tmp
Wavefunction output            ... EPRII.pout.tmp
Perturbation mode              ... Imaginary perturbation
Solver                         ... POPLE
Max. number of iterations      ... 64
Convergence tolerance          ... 1.000e-03
Integral handling              ... Direct
DFT GridXC                     ... 1
COSX GridX                     ... 1
COSX IntAccX                   ... 3.067
COSX Algorithm                 ... Auto
Number of perturbations        ... 3
Number of operators            ... 2
Orbital ranges used for CP-SCF:
 Operator 0:  Orbitals   0... 70  to  71...511
 Operator 1:  Orbitals   0... 69  to  70...511
Variables per perturbation     ... 62251
DFT calculation                         ... on
XC functional terms                     ... off
Hybrid DFT                              ... on
   Exchange mixing (SCF)                ...  0.200
   Exchange mixing (CP-SCF)             ...  0.200
   GGA exch. scaling(SCF)               ...  0.720
   GGA exch. scaling (CP-SCF)           ...  0.720
   GGA corr. scaling (SCF)              ...  0.810
   GGA corr. scaling (CP-SCF)           ...  0.810

CP-SCF GRID
-----------

General Integration Accuracy     IntAcc      ... 3.467
Radial Grid Type                 RadialGrid  ... OptM3 with GC (2021)
Angular Grid (max. ang.)         AngularGrid ... 1 (Lebedev-50)
Angular grid pruning method      GridPruning ... 4 (adaptive)
Weight generation scheme         WeightScheme... Becke
Basis function cutoff            BFCut       ... 1.0000e-10
Integration weight cutoff        WCut        ... 1.0000e-14
Angular grids for H and He will be reduced by one unit
Partially contracted basis set               ... off
Rotationally invariant grid construction     ... off

Total number of grid points                  ...    27925
Total number of batches                      ...      457
Average number of points per batch           ...       61
Average number of grid points per atom       ...      607

CP-SCF GRIDX
------------

General Integration Accuracy     IntAcc      ... 3.067
Radial Grid Type                 RadialGrid  ... OptM3 with GC (2021)
Angular Grid (max. ang.)         AngularGrid ... 1 (Lebedev-50)
Angular grid pruning method      GridPruning ... 4 (adaptive)
Weight generation scheme         WeightScheme... Becke
Basis function cutoff            BFCut       ... 1.0000e-10
Integration weight cutoff        WCut        ... 1.0000e-14
Angular grids for H and He will be reduced by one unit
Partially contracted basis set               ... on
Rotationally invariant grid construction     ... off

Total number of grid points                  ...    13281
Total number of batches                      ...      235
Average number of points per batch           ...       56
Average number of grid points per atom       ...      289

Memory available               ... 877.0 MB
Memory needed per perturbation ...  15.3 MB
Perturbations treated per batch... 3
Number of batches              ... 1
     CP-SCF ITERATION   0:   3.7040e-02 (   1.6 sec   0/  3 done)
     CP-SCF ITERATION   1:   5.1234e-04 (   1.7 sec   3/  3 done)
                    *** THE CP-SCF HAS CONVERGED ***

Forming final perturbed densities           ... done
Transforming perturbed density to AO basis  ... done

 Raw HFC matrix (all values in MHz): 
 -----------------------------------
                -0.9229              -0.2257              -0.1360
                -0.2256               1.0764               0.3563
                -0.1360               0.3562              -1.0022

 A(FC)          -0.2829              -0.2829              -0.2829
 A(SD)          -0.6126              -0.8344               1.4470
 A(ORB+DIA)     -0.0001              -0.0002               0.0006    A(PC) =   0.0001
 A(ORB)          0.0000              -0.0002               0.0004    A(PC) =   0.0001
 A(DIA)         -0.0001              -0.0000               0.0001    A(PC) =   0.0000
             ----------           ----------           ----------
 A(Tot)         -0.8956              -1.1175               1.1646    A(iso)=   -0.2829
 Orientation: 
  X          -0.8585607            0.4992385           -0.1167663
  Y          -0.1846572           -0.0886325            0.9787982
  Z           0.4783045            0.8619195            0.1682844

Notes:  (1) The A matrix conforms to the "SAI" spin Hamiltonian convention.
        (2) Tensor is right-handed.

 -----------------------------------------------------------
 Nucleus  45H : A:ISTP=    1 I=  0.5 P=533.5514 MHz/au**3
                Q:ISTP=    2 I=  1.0 Q=  0.0029 barn     
 -----------------------------------------------------------
 Solving for nuclear perturbation:
Forming RHS of the CP-SCF equations         ... 
Calc. nucleus orbit integrals (SHARK)       ... done

------------------------------------------------------------------------------
                           ORCA CP-SCF CALCULATION
------------------------------------------------------------------------------

Input orbitals are from        ... EPRII.gbw
Input Perturbation             ... EPRII.pin.tmp
Wavefunction output            ... EPRII.pout.tmp
Perturbation mode              ... Imaginary perturbation
Solver                         ... POPLE
Max. number of iterations      ... 64
Convergence tolerance          ... 1.000e-03
Integral handling              ... Direct
DFT GridXC                     ... 1
COSX GridX                     ... 1
COSX IntAccX                   ... 3.067
COSX Algorithm                 ... Auto
Number of perturbations        ... 3
Number of operators            ... 2
Orbital ranges used for CP-SCF:
 Operator 0:  Orbitals   0... 70  to  71...511
 Operator 1:  Orbitals   0... 69  to  70...511
Variables per perturbation     ... 62251
DFT calculation                         ... on
XC functional terms                     ... off
Hybrid DFT                              ... on
   Exchange mixing (SCF)                ...  0.200
   Exchange mixing (CP-SCF)             ...  0.200
   GGA exch. scaling(SCF)               ...  0.720
   GGA exch. scaling (CP-SCF)           ...  0.720
   GGA corr. scaling (SCF)              ...  0.810
   GGA corr. scaling (CP-SCF)           ...  0.810

CP-SCF GRID
-----------

General Integration Accuracy     IntAcc      ... 3.467
Radial Grid Type                 RadialGrid  ... OptM3 with GC (2021)
Angular Grid (max. ang.)         AngularGrid ... 1 (Lebedev-50)
Angular grid pruning method      GridPruning ... 4 (adaptive)
Weight generation scheme         WeightScheme... Becke
Basis function cutoff            BFCut       ... 1.0000e-10
Integration weight cutoff        WCut        ... 1.0000e-14
Angular grids for H and He will be reduced by one unit
Partially contracted basis set               ... off
Rotationally invariant grid construction     ... off

Total number of grid points                  ...    27925
Total number of batches                      ...      457
Average number of points per batch           ...       61
Average number of grid points per atom       ...      607

CP-SCF GRIDX
------------

General Integration Accuracy     IntAcc      ... 3.067
Radial Grid Type                 RadialGrid  ... OptM3 with GC (2021)
Angular Grid (max. ang.)         AngularGrid ... 1 (Lebedev-50)
Angular grid pruning method      GridPruning ... 4 (adaptive)
Weight generation scheme         WeightScheme... Becke
Basis function cutoff            BFCut       ... 1.0000e-10
Integration weight cutoff        WCut        ... 1.0000e-14
Angular grids for H and He will be reduced by one unit
Partially contracted basis set               ... on
Rotationally invariant grid construction     ... off

Total number of grid points                  ...    13281
Total number of batches                      ...      235
Average number of points per batch           ...       56
Average number of grid points per atom       ...      289

Memory available               ... 876.5 MB
Memory needed per perturbation ...  15.3 MB
Perturbations treated per batch... 3
Number of batches              ... 1
     CP-SCF ITERATION   0:   4.4116e-02 (   1.5 sec   0/  3 done)
     CP-SCF ITERATION   1:   1.6950e-03 (   1.6 sec   1/  3 done)
     CP-SCF ITERATION   2:   7.9015e-05 (   1.4 sec   3/  3 done)
                    *** THE CP-SCF HAS CONVERGED ***

Forming final perturbed densities           ... done
Transforming perturbed density to AO basis  ... done

 Raw HFC matrix (all values in MHz): 
 -----------------------------------
                -0.0475               0.2665              -0.0100
                 0.2665               0.2768              -0.0124
                -0.0100              -0.0123              -0.1987

 A(FC)           0.0102               0.0102               0.0102
 A(SD)          -0.2055              -0.2112               0.4167
 A(ORB+DIA)      0.0000               0.0000               0.0001    A(PC) =   0.0001
 A(ORB)         -0.0000              -0.0000               0.0001    A(PC) =   0.0000
 A(DIA)          0.0000               0.0000               0.0000    A(PC) =   0.0000
             ----------           ----------           ----------
 A(Tot)         -0.1953              -0.2010               0.4270    A(iso)=    0.0102
 Orientation: 
  X          -0.6993870            0.5204148            0.4899247
  Y           0.4100777           -0.2692447            0.8714032
  Z           0.5854008            0.8103553           -0.0251043

Notes:  (1) The A matrix conforms to the "SAI" spin Hamiltonian convention.
        (2) Tensor is right-handed.


--------------------------------------------------------------------------------
----------------------------------------------------------------------------
                           ORCA EULER ANGLE PROGRAM
----------------------------------------------------------------------------

Only g-tensor available        -->  using g-tensor as reference tensor

Reference tensor               ...  g

g-tensor ordering              ...  |g_min> --> |gx>
                                    |g_mid> --> |gy>
                                    |g_max> --> |gz>

A- and EFG-tensor ordering     ...  the axes |Ax>, |Qx>, |Ay>, etc. are assigned
                                    such that the Euler rotation is minimal. You
                                    can find the respective eigenvalues as Ax,
                                    EFGx, Ay, etc. in the tables below.
                                    The relation of |Ax>, |Ay>,  etc. to Amin, Amid, etc.
                                    (as printed in the ORCA EPR/NMR CALCULATION Output)
                                    is obtained in the detailed printout.

Euler rotation around          ...  z - y - z
   First rotation              -->  by alpha around z
   Second rotation             -->  by beta around y'
   Third rotation              -->  by gamma around z''
   Positive / Negative angle   -->  clockwise / counterclockwise rotation

Plot EFG-tensors                    (-)
Plot HFC-tensors                    (-)
Detailed Printout                   (-)

-------------------------------------------------------------------------
          Euler rotation of hyperfine tensor to g-tensor
-------------------------------------------------------------------------

-------------------------------------------------------------------
 Atom  |   Alpha    Beta    Gamma   |   Ax       Ay       Az 
       |          [degrees]         |           [MHz]         
-------------------------------------------------------------------
  7H      162.5     37.0   -176.3      -0.11     0.27    -0.11
  8H     -153.8     40.3    142.0      -0.75     1.34    -0.72
 10H     -155.4     28.6    146.0      -0.06     0.22    -0.06
 11H      -13.8     32.2    -10.4      -0.06     0.22    -0.06
 13H        3.7     31.5    -10.6      -0.07     0.14    -0.07
 14H        9.2     37.5    -24.1      -0.07     0.14    -0.07
 16H       -9.5     26.2    -11.2      -0.05     0.09    -0.05
 17H      -16.8     26.2      3.4      -0.05     0.09    -0.05
 19H       12.3     27.9    -26.5      -0.04     0.07    -0.04
 20H        6.1     27.3    -13.7      -0.04     0.07    -0.04
 22H       98.9     30.9   -118.5      -0.39     2.73    -0.37
 23H       42.3     27.1    -37.2       0.12     3.07    -0.42
 25H     -120.1     17.3    124.6      -4.39     3.76    -4.59
 26H       -4.4     36.5    -26.0      -4.46     4.57    -5.88
 28H      -25.8     30.3     70.7      41.71    40.93    55.10
 29H       85.8     39.5    -56.4     126.90   137.97   124.72
 31H       43.1     13.0    -45.5     -59.41   -96.56   -20.12
 33H      -66.5     24.9     35.2     127.26   138.37   125.13
 34H     -121.9     53.3    143.1      37.05    51.15    37.89
 36H      106.9     34.7   -119.7      -4.46     3.72    -4.62
 37H       35.6     31.8     -4.5      -4.50     4.49    -5.99
 39H      -41.6     20.4     50.3      -0.31     2.69    -0.32
 40H        1.7     20.5     -9.0       0.10     2.94    -0.39
 42H       62.4     47.2    -50.6      -0.18     0.34    -0.18
 43H       -1.2     25.8    -12.8      -0.03     0.06    -0.03
 44H       19.0     37.1     -9.6      -0.90     1.16    -1.12
 45H      -32.0     34.3      8.5      -0.20     0.43    -0.20
-------------------------------------------------------------------


Maximum memory used throughout the entire EPRNMR-calculation: 204.3 MB

Timings for individual modules:

Sum of individual times         ...     3802.791 sec (=  63.380 min)
GTO integral calculation        ...        5.183 sec (=   0.086 min)   0.1 %
Spin-Orbit-Coupling Matrices    ...       10.669 sec (=   0.178 min)   0.3 %
SCF iterations                  ...       65.107 sec (=   1.085 min)   1.7 %
EPR/NMR calculation             ...     3721.832 sec (=  62.031 min)  97.9 %
                             ****ORCA TERMINATED NORMALLY****
TOTAL RUN TIME: 0 days 1 hours 3 minutes 27 seconds 361 msec
