
                                 *****************
                                 * O   R   C   A *
                                 *****************

                                            #,                                       
                                            ###                                      
                                            ####                                     
                                            #####                                    
                                            ######                                   
                                           ########,                                 
                                     ,,################,,,,,                         
                               ,,#################################,,                 
                          ,,##########################################,,             
                       ,#########################################, ''#####,          
                    ,#############################################,,   '####,        
                  ,##################################################,,,,####,       
                ,###########''''           ''''###############################       
              ,#####''   ,,,,##########,,,,          '''####'''          '####       
            ,##' ,,,,###########################,,,                        '##       
           ' ,,###''''                  '''############,,,                           
         ,,##''                                '''############,,,,        ,,,,,,###''
      ,#''                                            '''#######################'''  
     '                                                          ''''####''''         
             ,#######,   #######,   ,#######,      ##                                
            ,#'     '#,  ##    ##  ,#'     '#,    #''#        ######   ,####,        
            ##       ##  ##   ,#'  ##            #'  '#       #        #'  '#        
            ##       ##  #######   ##           ,######,      #####,   #    #        
            '#,     ,#'  ##    ##  '#,     ,#' ,#      #,         ##   #,  ,#        
             '#######'   ##     ##  '#######'  #'      '#     #####' # '####'        



                  #######################################################
                  #                        -***-                        #
                  #          Department of theory and spectroscopy      #
                  #    Directorship and core code : Frank Neese         #
                  #        Max Planck Institute fuer Kohlenforschung    #
                  #                Kaiser Wilhelm Platz 1               #
                  #                 D-45470 Muelheim/Ruhr               #
                  #                      Germany                        #
                  #                                                     #
                  #                  All rights reserved                #
                  #                        -***-                        #
                  #######################################################


                         Program Version 5.0.4 -  RELEASE  -


 With contributions from (in alphabetic order):
   Daniel Aravena         : Magnetic Suceptibility
   Michael Atanasov       : Ab Initio Ligand Field Theory (pilot matlab implementation)
   Alexander A. Auer      : GIAO ZORA, VPT2 properties, NMR spectrum
   Ute Becker             : Parallelization
   Giovanni Bistoni       : ED, misc. LED, open-shell LED, HFLD
   Martin Brehm           : Molecular dynamics
   Dmytro Bykov           : SCF Hessian
   Vijay G. Chilkuri      : MRCI spin determinant printing, contributions to CSF-ICE
   Dipayan Datta          : RHF DLPNO-CCSD density
   Achintya Kumar Dutta   : EOM-CC, STEOM-CC
   Dmitry Ganyushin       : Spin-Orbit,Spin-Spin,Magnetic field MRCI
   Miquel Garcia          : C-PCM and meta-GGA Hessian, CC/C-PCM, Gaussian charge scheme
   Yang Guo               : DLPNO-NEVPT2, F12-NEVPT2, CIM, IAO-localization
   Andreas Hansen         : Spin unrestricted coupled pair/coupled cluster methods
   Benjamin Helmich-Paris : MC-RPA, TRAH-SCF, COSX integrals
   Lee Huntington         : MR-EOM, pCC
   Robert Izsak           : Overlap fitted RIJCOSX, COSX-SCS-MP3, EOM
   Marcus Kettner         : VPT2
   Christian Kollmar      : KDIIS, OOCD, Brueckner-CCSD(T), CCSD density, CASPT2, CASPT2-K
   Simone Kossmann        : Meta GGA functionals, TD-DFT gradient, OOMP2, MP2 Hessian
   Martin Krupicka        : Initial AUTO-CI
   Lucas Lang             : DCDCAS
   Marvin Lechner         : AUTO-CI (C++ implementation), FIC-MRCC
   Dagmar Lenk            : GEPOL surface, SMD
   Dimitrios Liakos       : Extrapolation schemes; Compound Job, initial MDCI parallelization
   Dimitrios Manganas     : Further ROCIS development; embedding schemes
   Dimitrios Pantazis     : SARC Basis sets
   Anastasios Papadopoulos: AUTO-CI, single reference methods and gradients
   Taras Petrenko         : DFT Hessian,TD-DFT gradient, ASA, ECA, R-Raman, ABS, FL, XAS/XES, NRVS
   Peter Pinski           : DLPNO-MP2, DLPNO-MP2 Gradient
   Christoph Reimann      : Effective Core Potentials
   Marius Retegan         : Local ZFS, SOC
   Christoph Riplinger    : Optimizer, TS searches, QM/MM, DLPNO-CCSD(T), (RO)-DLPNO pert. Triples
   Tobias Risthaus        : Range-separated hybrids, TD-DFT gradient, RPA, STAB
   Michael Roemelt        : Original ROCIS implementation
   Masaaki Saitow         : Open-shell DLPNO-CCSD energy and density
   Barbara Sandhoefer     : DKH picture change effects
   Avijit Sen             : IP-ROCIS
   Kantharuban Sivalingam : CASSCF convergence, NEVPT2, FIC-MRCI
   Bernardo de Souza      : ESD, SOC TD-DFT
   Georgi Stoychev        : AutoAux, RI-MP2 NMR, DLPNO-MP2 response
   Willem Van den Heuvel  : Paramagnetic NMR
   Boris Wezisla          : Elementary symmetry handling
   Frank Wennmohs         : Technical directorship


 We gratefully acknowledge several colleagues who have allowed us to
 interface, adapt or use parts of their codes:
   Stefan Grimme, W. Hujo, H. Kruse, P. Pracht,  : VdW corrections, initial TS optimization,
                  C. Bannwarth, S. Ehlert          DFT functionals, gCP, sTDA/sTD-DF
   Ed Valeev, F. Pavosevic, A. Kumar             : LibInt (2-el integral package), F12 methods
   Garnet Chan, S. Sharma, J. Yang, R. Olivares  : DMRG
   Ulf Ekstrom                                   : XCFun DFT Library
   Mihaly Kallay                                 : mrcc  (arbitrary order and MRCC methods)
   Jiri Pittner, Ondrej Demel                    : Mk-CCSD
   Frank Weinhold                                : gennbo (NPA and NBO analysis)
   Christopher J. Cramer and Donald G. Truhlar   : smd solvation model
   Lars Goerigk                                  : TD-DFT with DH, B97 family of functionals
   V. Asgeirsson, H. Jonsson                     : NEB implementation
   FAccTs GmbH                                   : IRC, NEB, NEB-TS, DLPNO-Multilevel, CI-OPT
                                                   MM, QMMM, 2- and 3-layer-ONIOM, Crystal-QMMM,
                                                   LR-CPCM, SF, NACMEs, symmetry and pop. for TD-DFT,
                                                   nearIR, NL-DFT gradient (VV10), updates on ESD,
                                                   ML-optimized integration grids
   S Lehtola, MJT Oliveira, MAL Marques          : LibXC Library
   Liviu Ungur et al                             : ANISO software


 Your calculation uses the libint2 library for the computation of 2-el integrals
 For citations please refer to: http://libint.valeyev.net

 Your ORCA version has been built with support for libXC version: 5.1.0
 For citations please refer to: https://tddft.org/programs/libxc/

 This ORCA versions uses:
   CBLAS   interface :  Fast vector & matrix operations
   LAPACKE interface :  Fast linear algebra routines
   SCALAPACK package :  Parallel linear algebra routines
   Shared memory     :  Shared parallel matrices
   BLAS/LAPACK       :  OpenBLAS 0.3.15  USE64BITINT DYNAMIC_ARCH NO_AFFINITY SkylakeX SINGLE_THREADED
        Core in use  :  SkylakeX
   Copyright (c) 2011-2014, The OpenBLAS Project




***************************************
The coordinates will be read from file: opt.xyz
***************************************


================================================================================

----- Orbital basis set information -----
Your calculation utilizes the basis: EPR-II
   V. Barone, in Recent Advances in Density Functional Methods, Part 1 (ed. D. P. Chong), World Scientific, Singapore, 1995, p. 287.

----- AuxJ basis set information -----
Your calculation utilizes the AutoAux generation procedure.
  G. L. Stoychev, A. A. Auer, F. Neese, J. Chem. Theory Comput. 13, 554 (2017)

----- AuxC basis set information -----
Your calculation utilizes the AutoAux generation procedure.
  G. L. Stoychev, A. A. Auer, F. Neese, J. Chem. Theory Comput. 13, 554 (2017)

----- AuxJK basis set information -----
Your calculation utilizes the AutoAux generation procedure.
  G. L. Stoychev, A. A. Auer, F. Neese, J. Chem. Theory Comput. 13, 554 (2017)

================================================================================
                                        WARNINGS
                       Please study these warnings very carefully!
================================================================================

WARNING: Old DensityContainer found on disk!
         Will remove this file - 
         If you want to keep old densities, please start your calculation with a different basename. 


WARNING: your system is open-shell and RHF/RKS was chosen
  ===> : WILL SWITCH to UHF/UKS


INFO   : the flag for use of the SHARK integral package has been found!

================================================================================
                                       INPUT FILE
================================================================================
NAME = EPRII.inp
|  1> ! B3LYP EPR-II AUTOAUX
|  2> %pal nprocs 16 end
|  3> *XYZFile 0 2 opt.xyz
|  4> %EPRNMR
|  5>         GTENSOR   TRUE
|  6>         NUCLEI    = ALL H {SHIFT, AISO, ADIP, AORB}
|  7>         ORI       CenterOfElCharge
|  8> END
|  9> 
| 10>                          ****END OF INPUT****
================================================================================

                       ****************************
                       * Single Point Calculation *
                       ****************************

---------------------------------
CARTESIAN COORDINATES (ANGSTROEM)
---------------------------------
  C      4.303993   -0.099044   -0.019986
  C      0.095379    0.041847   -0.250332
  C      0.727206   -1.205028   -0.115214
  C      2.122929   -1.212411   -0.043556
  C      2.874308   -0.020154   -0.101380
  C      2.228091    1.234157   -0.236580
  C      0.828539    1.228178   -0.309060
  H      2.668303   -2.150773    0.059972
  H      0.289670    2.170928   -0.414345
  C     -0.115666   -2.468406   -0.049589
  H     -0.784199   -2.484013   -0.930720
  H     -0.791676   -2.389160    0.822893
  C      0.636247   -3.799827    0.026362
  H      1.309912   -3.896981   -0.845049
  H      1.286422   -3.811728    0.920477
  C     -0.301843   -5.011708    0.074983
  H     -0.977280   -4.914794    0.945461
  H     -0.955453   -5.002515   -0.817199
  C      0.442407   -6.347212    0.151027
  H      1.079450   -6.399990    1.050835
  H      1.097598   -6.491215   -0.725436
  C      3.053158    2.505621   -0.293993
  H      3.669351    2.559915    0.622764
  H      3.788282    2.406081   -1.113865
  C      2.286495    3.819607   -0.461501
  H      1.683582    3.789097   -1.387366
  H      1.571864    3.952366    0.370090
  C      3.218416    5.039823   -0.514112
  H      3.844016    5.071239    0.400108
  H      3.946453    4.894522   -1.346232
  C      2.505214    6.343014   -0.678289
  H      1.561879    6.348293   -1.239679
  C      3.174852    7.653563   -0.417869
  H      3.874748    7.897348   -1.251684
  H      3.824892    7.567710    0.475950
  C      2.204128    8.830751   -0.238803
  H      1.570192    8.913846   -1.141092
  H      1.516816    8.605008    0.596374
  C      2.912091   10.163176    0.016523
  H      3.531850   10.118821    0.928896
  H      3.579244   10.430027   -0.821537
  C      5.515728   -0.175457    0.048577
  H      6.584104   -0.243307    0.110603
  H     -0.257066   -7.198161    0.187741
  H      2.190725   10.986727    0.143833
  H     -0.996407    0.085398   -0.311066

----------------------------
CARTESIAN COORDINATES (A.U.)
----------------------------
  NO LB      ZA    FRAG     MASS         X           Y           Z
   0 C     6.0000    0    12.011    8.133368   -0.187165   -0.037768
   1 C     6.0000    0    12.011    0.180239    0.079078   -0.473059
   2 C     6.0000    0    12.011    1.374220   -2.277173   -0.217723
   3 C     6.0000    0    12.011    4.011755   -2.291125   -0.082310
   4 C     6.0000    0    12.011    5.431655   -0.038085   -0.191581
   5 C     6.0000    0    12.011    4.210482    2.332219   -0.447072
   6 C     6.0000    0    12.011    1.565712    2.320921   -0.584040
   7 H     1.0000    0     1.008    5.042361   -4.064372    0.113331
   8 H     1.0000    0     1.008    0.547398    4.102459   -0.782998
   9 C     6.0000    0    12.011   -0.218578   -4.664611   -0.093709
  10 H     1.0000    0     1.008   -1.481922   -4.694104   -1.758806
  11 H     1.0000    0     1.008   -1.496052   -4.514858    1.555042
  12 C     6.0000    0    12.011    1.202332   -7.180633    0.049817
  13 H     1.0000    0     1.008    2.475375   -7.364228   -1.596911
  14 H     1.0000    0     1.008    2.430986   -7.203122    1.739450
  15 C     6.0000    0    12.011   -0.570401   -9.470755    0.141698
  16 H     1.0000    0     1.008   -1.846792   -9.287615    1.786663
  17 H     1.0000    0     1.008   -1.805544   -9.453382   -1.544282
  18 C     6.0000    0    12.011    0.836027  -11.994492    0.285399
  19 H     1.0000    0     1.008    2.039866  -12.094228    1.985790
  20 H     1.0000    0     1.008    2.074160  -12.266619   -1.370876
  21 C     6.0000    0    12.011    5.769632    4.734937   -0.555566
  22 H     1.0000    0     1.008    6.934068    4.837539    1.176852
  23 H     1.0000    0     1.008    7.158815    4.546834   -2.104900
  24 C     6.0000    0    12.011    4.320850    7.218011   -0.872110
  25 H     1.0000    0     1.008    3.181510    7.160355   -2.621742
  26 H     1.0000    0     1.008    2.970393    7.468889    0.699368
  27 C     6.0000    0    12.011    6.081926    9.523885   -0.971530
  28 H     1.0000    0     1.008    7.264138    9.583253    0.756095
  29 H     1.0000    0     1.008    7.457715    9.249306   -2.544009
  30 C     6.0000    0    12.011    4.734168   11.986560   -1.281780
  31 H     1.0000    0     1.008    2.951523   11.996535   -2.342654
  32 C     6.0000    0    12.011    5.999601   14.463137   -0.789657
  33 H     1.0000    0     1.008    7.322213   14.923825   -2.365340
  34 H     1.0000    0     1.008    7.227999   14.300899    0.899416
  35 C     6.0000    0    12.011    4.165199   16.687701   -0.451272
  36 H     1.0000    0     1.008    2.967233   16.844727   -2.156351
  37 H     1.0000    0     1.008    2.866366   16.261108    1.126983
  38 C     6.0000    0    12.011    5.503055   19.205619    0.031224
  39 H     1.0000    0     1.008    6.674230   19.121801    1.755359
  40 H     1.0000    0     1.008    6.763791   19.709896   -1.552480
  41 C     6.0000    0    12.011   10.423215   -0.331566    0.091797
  42 H     1.0000    0     1.008   12.442153   -0.459784    0.209009
  43 H     1.0000    0     1.008   -0.485785  -13.602553    0.354779
  44 H     1.0000    0     1.008    4.139869   20.761905    0.271806
  45 H     1.0000    0     1.008   -1.882936    0.161379   -0.587830

--------------------------------
INTERNAL COORDINATES (ANGSTROEM)
--------------------------------
 C      0   0   0     0.000000000000     0.00000000     0.00000000
 C      1   0   0     4.217267605314     0.00000000     0.00000000
 C      2   1   0     1.404335839355    61.05917944     0.00000000
 C      3   2   1     1.397581289152   117.31855105   359.93081548
 C      4   3   2     1.410457667856   121.69815711     0.11280711
 C      5   4   3     1.417452211844   120.60070249   359.94306814
 C      2   1   3     1.395835449026    60.43048081   179.97823380
 H      4   3   2     1.090263092744   120.59538612   180.10419748
 H      7   2   1     1.090981785792   118.62367839   179.98227717
 C      3   2   1     1.520152664705   119.51119788   179.74922628
 H     10   3   2     1.106152145971   108.20656321    53.65462085
 H     10   3   2     1.106568332075   108.25502794   300.29265110
 C     10   3   2     1.530955288703   116.90996100   176.98913102
 H     13  10   3     1.105722139290   109.66648721   302.49624649
 H     13  10   3     1.105582149477   109.77419113    58.74925706
 C     13  10   3     1.533307519737   112.85800538   180.55849391
 H     16  13  10     1.106046784222   109.22748351   302.30666372
 H     16  13  10     1.106019083694   109.23256118    57.65818003
 C     16  13  10     1.530771518507   113.18292093   179.99942115
 H     19  16  13     1.103750193219   111.27394370    59.69080120
 H     19  16  13     1.103721263703   111.28414851   299.98960799
 C      6   5   4     1.516789682418   119.82821011   179.86898971
 H     22   6   5     1.105931011271   108.23126521   302.70895442
 H     22   6   5     1.105670120289   108.31613910    55.34037549
 C     22   6   5     1.530486753679   116.82974887   179.12097525
 H     25  22   6     1.105288044218   109.95170627   301.81226574
 H     25  22   6     1.104475093840   110.17614524    58.68228741
 C     25  22   6     1.536285203199   112.44463511   180.27562253
 H     28  25  22     1.108224109920   109.67589191   303.25821190
 H     28  25  22     1.115156146016   108.54752561    56.88788539
 C     28  25  22     1.494630551553   114.00612795   179.95834673
 H     31  28  25     1.097755836451   118.06150904   329.04861691
 C     31  28  25     1.494580520597   122.11484849   164.61718009
 H     33  31  28     1.115586911276   110.02797811    74.78797326
 H     33  31  28     1.108528193491   109.59174295   320.32599168
 C     33  31  28     1.536275400507   114.14916441   196.93810627
 H     36  33  31     1.105850040393   108.94728716   302.67732659
 H     36  33  31     1.104934005282   108.94123051    57.87595306
 C     36  33  31     1.530280503978   113.22300645   180.41624551
 H     39  36  33     1.103853937675   111.26410751   300.31032679
 H     39  36  33     1.103923792860   111.30930330    59.97330787
 C      1   2   3     1.216076144828   178.30857588     1.10884777
 H     42   1   5     1.072323332254   179.91234577   284.13399622
 H     19  16  13     1.102145667214   111.51164448   179.82761984
 H     39  36  33     1.102186211315   111.53521094   180.17984320
 H      2   1   3     1.094340127783   179.63013783   183.26556386

---------------------------
INTERNAL COORDINATES (A.U.)
---------------------------
 C      0   0   0     0.000000000000     0.00000000     0.00000000
 C      1   0   0     7.969480807502     0.00000000     0.00000000
 C      2   1   0     2.653810136432    61.05917944     0.00000000
 C      3   2   1     2.641045886390   117.31855105   359.93081548
 C      4   3   2     2.665378715737   121.69815711     0.11280711
 C      5   4   3     2.678596488306   120.60070249   359.94306814
 C      2   1   3     2.637746726678    60.43048081   179.97823380
 H      4   3   2     2.060298659208   120.59538612   180.10419748
 H      7   2   1     2.061656792244   118.62367839   179.98227717
 C      3   2   1     2.872672218043   119.51119788   179.74922628
 H     10   3   2     2.090324618335   108.20656321    53.65462085
 H     10   3   2     2.091111096091   108.25502794   300.29265110
 C     10   3   2     2.893086218928   116.90996100   176.98913102
 H     13  10   3     2.089512023472   109.66648721   302.49624649
 H     13  10   3     2.089247481064   109.77419113    58.74925706
 C     13  10   3     2.897531291385   112.85800538   180.55849391
 H     16  13  10     2.090125513485   109.22748351   302.30666372
 H     16  13  10     2.090073167072   109.23256118    57.65818003
 C     16  13  10     2.892738943585   113.18292093   179.99942115
 H     19  16  13     2.085785585446   111.27394370    59.69080120
 H     19  16  13     2.085730916585   111.28414851   299.98960799
 C      6   5   4     2.866317102528   119.82821011   179.86898971
 H     22   6   5     2.089906734314   108.23126521   302.70895442
 H     22   6   5     2.089413721806   108.31613910    55.34037549
 C     22   6   5     2.892200816048   116.82974887   179.12097525
 H     25  22   6     2.088691702669   109.95170627   301.81226574
 H     25  22   6     2.087155449095   110.17614524    58.68228741
 C     25  22   6     2.903158297642   112.44463511   180.27562253
 H     28  25  22     2.094240062757   109.67589191   303.25821190
 H     28  25  22     2.107339712530   108.54752561    56.88788539
 C     28  25  22     2.824442413826   114.00612795   179.95834673
 H     31  28  25     2.074457892805   118.06150904   329.04861691
 C     31  28  25     2.824347869022   122.11484849   164.61718009
 H     33  31  28     2.108153740899   110.02797811    74.78797326
 H     33  31  28     2.094814697429   109.59174295   320.32599168
 C     33  31  28     2.903139773239   114.14916441   196.93810627
 H     36  33  31     2.089753721529   108.94728716   302.67732659
 H     36  33  31     2.088022666040   108.94123051    57.87595306
 C     36  33  31     2.891811060598   113.22300645   180.41624551
 H     39  36  33     2.085981634057   111.26410751   300.31032679
 H     39  36  33     2.086113641225   111.30930330    59.97330787
 C      1   2   3     2.298050871720   178.30857588     1.10884777
 H     42   1   5     2.026397424974   179.91234577   284.13399622
 H     19  16  13     2.082753470722   111.51164448   179.82761984
 H     39  36  33     2.082830087969   111.53521094   180.17984320
 H      2   1   3     2.068003138871   179.63013783   183.26556386

---------------------
BASIS SET INFORMATION
---------------------
There are 2 groups of distinct atoms

 Group   1 Type C   : 10s5p1d contracted to 6s2p1d pattern {511111/41/1}
 Group   2 Type H   : 6s1p contracted to 4s1p pattern {3111/1}

Atom   0C    basis set group =>   1
Atom   1C    basis set group =>   1
Atom   2C    basis set group =>   1
Atom   3C    basis set group =>   1
Atom   4C    basis set group =>   1
Atom   5C    basis set group =>   1
Atom   6C    basis set group =>   1
Atom   7H    basis set group =>   2
Atom   8H    basis set group =>   2
Atom   9C    basis set group =>   1
Atom  10H    basis set group =>   2
Atom  11H    basis set group =>   2
Atom  12C    basis set group =>   1
Atom  13H    basis set group =>   2
Atom  14H    basis set group =>   2
Atom  15C    basis set group =>   1
Atom  16H    basis set group =>   2
Atom  17H    basis set group =>   2
Atom  18C    basis set group =>   1
Atom  19H    basis set group =>   2
Atom  20H    basis set group =>   2
Atom  21C    basis set group =>   1
Atom  22H    basis set group =>   2
Atom  23H    basis set group =>   2
Atom  24C    basis set group =>   1
Atom  25H    basis set group =>   2
Atom  26H    basis set group =>   2
Atom  27C    basis set group =>   1
Atom  28H    basis set group =>   2
Atom  29H    basis set group =>   2
Atom  30C    basis set group =>   1
Atom  31H    basis set group =>   2
Atom  32C    basis set group =>   1
Atom  33H    basis set group =>   2
Atom  34H    basis set group =>   2
Atom  35C    basis set group =>   1
Atom  36H    basis set group =>   2
Atom  37H    basis set group =>   2
Atom  38C    basis set group =>   1
Atom  39H    basis set group =>   2
Atom  40H    basis set group =>   2
Atom  41C    basis set group =>   1
Atom  42H    basis set group =>   2
Atom  43H    basis set group =>   2
Atom  44H    basis set group =>   2
Atom  45H    basis set group =>   2
---------------------------------
AUXILIARY/J BASIS SET INFORMATION
---------------------------------
There are 2 groups of distinct atoms

 Group   1 Type C   : 17s13p12d2f contracted to 17s13p12d2f pattern {11111111111111111/1111111111111/111111111111/11}
 Group   2 Type H   : 15s6p1d contracted to 15s6p1d pattern {111111111111111/111111/1}

Atom   0C    basis set group =>   1
Atom   1C    basis set group =>   1
Atom   2C    basis set group =>   1
Atom   3C    basis set group =>   1
Atom   4C    basis set group =>   1
Atom   5C    basis set group =>   1
Atom   6C    basis set group =>   1
Atom   7H    basis set group =>   2
Atom   8H    basis set group =>   2
Atom   9C    basis set group =>   1
Atom  10H    basis set group =>   2
Atom  11H    basis set group =>   2
Atom  12C    basis set group =>   1
Atom  13H    basis set group =>   2
Atom  14H    basis set group =>   2
Atom  15C    basis set group =>   1
Atom  16H    basis set group =>   2
Atom  17H    basis set group =>   2
Atom  18C    basis set group =>   1
Atom  19H    basis set group =>   2
Atom  20H    basis set group =>   2
Atom  21C    basis set group =>   1
Atom  22H    basis set group =>   2
Atom  23H    basis set group =>   2
Atom  24C    basis set group =>   1
Atom  25H    basis set group =>   2
Atom  26H    basis set group =>   2
Atom  27C    basis set group =>   1
Atom  28H    basis set group =>   2
Atom  29H    basis set group =>   2
Atom  30C    basis set group =>   1
Atom  31H    basis set group =>   2
Atom  32C    basis set group =>   1
Atom  33H    basis set group =>   2
Atom  34H    basis set group =>   2
Atom  35C    basis set group =>   1
Atom  36H    basis set group =>   2
Atom  37H    basis set group =>   2
Atom  38C    basis set group =>   1
Atom  39H    basis set group =>   2
Atom  40H    basis set group =>   2
Atom  41C    basis set group =>   1
Atom  42H    basis set group =>   2
Atom  43H    basis set group =>   2
Atom  44H    basis set group =>   2
Atom  45H    basis set group =>   2
---------------------------------
AUXILIARY/C BASIS SET INFORMATION
---------------------------------
There are 2 groups of distinct atoms

 Group   1 Type C   : 17s13p12d2f contracted to 17s13p12d2f pattern {11111111111111111/1111111111111/111111111111/11}
 Group   2 Type H   : 15s6p1d contracted to 15s6p1d pattern {111111111111111/111111/1}

Atom   0C    basis set group =>   1
Atom   1C    basis set group =>   1
Atom   2C    basis set group =>   1
Atom   3C    basis set group =>   1
Atom   4C    basis set group =>   1
Atom   5C    basis set group =>   1
Atom   6C    basis set group =>   1
Atom   7H    basis set group =>   2
Atom   8H    basis set group =>   2
Atom   9C    basis set group =>   1
Atom  10H    basis set group =>   2
Atom  11H    basis set group =>   2
Atom  12C    basis set group =>   1
Atom  13H    basis set group =>   2
Atom  14H    basis set group =>   2
Atom  15C    basis set group =>   1
Atom  16H    basis set group =>   2
Atom  17H    basis set group =>   2
Atom  18C    basis set group =>   1
Atom  19H    basis set group =>   2
Atom  20H    basis set group =>   2
Atom  21C    basis set group =>   1
Atom  22H    basis set group =>   2
Atom  23H    basis set group =>   2
Atom  24C    basis set group =>   1
Atom  25H    basis set group =>   2
Atom  26H    basis set group =>   2
Atom  27C    basis set group =>   1
Atom  28H    basis set group =>   2
Atom  29H    basis set group =>   2
Atom  30C    basis set group =>   1
Atom  31H    basis set group =>   2
Atom  32C    basis set group =>   1
Atom  33H    basis set group =>   2
Atom  34H    basis set group =>   2
Atom  35C    basis set group =>   1
Atom  36H    basis set group =>   2
Atom  37H    basis set group =>   2
Atom  38C    basis set group =>   1
Atom  39H    basis set group =>   2
Atom  40H    basis set group =>   2
Atom  41C    basis set group =>   1
Atom  42H    basis set group =>   2
Atom  43H    basis set group =>   2
Atom  44H    basis set group =>   2
Atom  45H    basis set group =>   2
----------------------------------
AUXILIARY/JK BASIS SET INFORMATION
----------------------------------
There are 2 groups of distinct atoms

 Group   1 Type C   : 17s13p12d2f contracted to 17s13p12d2f pattern {11111111111111111/1111111111111/111111111111/11}
 Group   2 Type H   : 15s6p1d contracted to 15s6p1d pattern {111111111111111/111111/1}

Atom   0C    basis set group =>   1
Atom   1C    basis set group =>   1
Atom   2C    basis set group =>   1
Atom   3C    basis set group =>   1
Atom   4C    basis set group =>   1
Atom   5C    basis set group =>   1
Atom   6C    basis set group =>   1
Atom   7H    basis set group =>   2
Atom   8H    basis set group =>   2
Atom   9C    basis set group =>   1
Atom  10H    basis set group =>   2
Atom  11H    basis set group =>   2
Atom  12C    basis set group =>   1
Atom  13H    basis set group =>   2
Atom  14H    basis set group =>   2
Atom  15C    basis set group =>   1
Atom  16H    basis set group =>   2
Atom  17H    basis set group =>   2
Atom  18C    basis set group =>   1
Atom  19H    basis set group =>   2
Atom  20H    basis set group =>   2
Atom  21C    basis set group =>   1
Atom  22H    basis set group =>   2
Atom  23H    basis set group =>   2
Atom  24C    basis set group =>   1
Atom  25H    basis set group =>   2
Atom  26H    basis set group =>   2
Atom  27C    basis set group =>   1
Atom  28H    basis set group =>   2
Atom  29H    basis set group =>   2
Atom  30C    basis set group =>   1
Atom  31H    basis set group =>   2
Atom  32C    basis set group =>   1
Atom  33H    basis set group =>   2
Atom  34H    basis set group =>   2
Atom  35C    basis set group =>   1
Atom  36H    basis set group =>   2
Atom  37H    basis set group =>   2
Atom  38C    basis set group =>   1
Atom  39H    basis set group =>   2
Atom  40H    basis set group =>   2
Atom  41C    basis set group =>   1
Atom  42H    basis set group =>   2
Atom  43H    basis set group =>   2
Atom  44H    basis set group =>   2
Atom  45H    basis set group =>   2

Checking for AutoStart:
The File: EPRII.gbw exists
Trying to determine its content:
     ... Fine, the file contains calculation information
     ... Fine, the calculation information was read
     ... Fine, the file contains a basis set
     ... Fine, the basis set was read
     ... Fine, the file contains a geometry
     ... Fine, the geometry was read
     ... Fine, the file contains a set of orbitals
     ... Fine, the orbitals can be read
     => possible old guess file was deleted
     => GBW file was renamed to GES file
     => GES file is set as startup file
     => Guess is set to MORead
     ... now leaving AutoStart



           ************************************************************
           *        Program running with 16 parallel MPI-processes    *
           *              working on a common directory               *
           ************************************************************
------------------------------------------------------------------------------
                           ORCA GTO INTEGRAL CALCULATION
                           -- RI-GTO INTEGRALS CHOSEN --
------------------------------------------------------------------------------
------------------------------------------------------------------------------
                   ___                                                        
                  /   \      - P O W E R E D   B Y -                         
                 /     \                                                     
                 |  |  |   _    _      __       _____    __    __             
                 |  |  |  | |  | |    /  \     |  _  \  |  |  /  |          
                  \  \/   | |  | |   /    \    | | | |  |  | /  /          
                 / \  \   | |__| |  /  /\  \   | |_| |  |  |/  /          
                |  |  |   |  __  | /  /__\  \  |    /   |      \           
                |  |  |   | |  | | |   __   |  |    \   |  |\   \          
                \     /   | |  | | |  |  |  |  | |\  \  |  | \   \       
                 \___/    |_|  |_| |__|  |__|  |_| \__\ |__|  \__/        
                                                                              
                      - O R C A' S   B I G   F R I E N D -                    
                                      &                                       
                       - I N T E G R A L  F E E D E R -                       
                                                                              
 v1 FN, 2020, v2 2021                                                         
------------------------------------------------------------------------------


Reading SHARK input file EPRII.SHARKINP.tmp ... ok
----------------------
SHARK INTEGRAL PACKAGE
----------------------

Number of atoms                             ...     46
Number of basis functions                   ...    512
Number of shells                            ...    306
Maximum angular momentum                    ...      2
Integral batch strategy                     ... SHARK/LIBINT Hybrid
RI-J (if used) integral strategy            ... SPLIT-RIJ (Revised 2003 algorithm where possible)
Printlevel                                  ...      1
Contraction scheme used                     ... SEGMENTED contraction
Coulomb Range Separation                    ... NOT USED
Exchange Range Separation                   ... NOT USED
Finite Nucleus Model                        ... NOT USED
Auxiliary Coulomb fitting basis             ... AVAILABLE
   # of basis functions in Aux-J            ...   3496
   # of shells in Aux-J                     ...   1430
   Maximum angular momentum in Aux-J        ...      3
Auxiliary J/K fitting basis                 ... AVAILABLE
   # of basis functions in Aux-JK           ...   3496
   # of shells in Aux-JK                    ...   1430
   Maximum angular momentum in Aux-JK       ...      3
Auxiliary Correlation fitting basis         ... AVAILABLE
   # of basis functions in Aux-C            ...   3496
   # of shells in Aux-C                     ...   1430
   Maximum angular momentum in Aux-C        ...      3
Auxiliary 'external' fitting basis          ... NOT available
Integral threshold                          ...     1.000000e-10
Primitive cut-off                           ...     1.000000e-11
Primitive pair pre-selection threshold      ...     1.000000e-11

Calculating pre-screening integrals         ... done (  0.0 sec) Dimension = 306
Organizing shell pair data                  ... done (  0.2 sec)
Shell pair information
Total number of shell pairs                 ...     46971
Shell pairs after pre-screening             ...     23279
Total number of primitive shell pairs       ...    122156
Primitive shell pairs kept                  ...     43595
          la=0 lb=0:  10974 shell pairs
          la=1 lb=0:   8008 shell pairs
          la=1 lb=1:   1371 shell pairs
          la=2 lb=0:   2068 shell pairs
          la=2 lb=1:    746 shell pairs
          la=2 lb=2:    112 shell pairs

Calculating one electron integrals          ... done (  0.0 sec)
Calculating RI/J V-Matrix + Cholesky decomp.... done (  0.9 sec)
Calculating RI/JK V-Matrix + Cholesky decomp... done (  0.8 sec)
Calculating RI/C V-Matrix + Cholesky decomp.... done (  0.9 sec)
Calculating Nuclear repulsion               ... done (  0.0 sec) ENN=   1246.903824399165 Eh

SHARK setup successfully completed in   3.5 seconds

Maximum memory used throughout the entire GTOINT-calculation: 46.6 MB


           ************************************************************
           *        Program running with 16 parallel MPI-processes    *
           *              working on a common directory               *
           ************************************************************
-------------------------------------------------------------------------------
                                 ORCA SCF
-------------------------------------------------------------------------------

------------
SCF SETTINGS
------------
Hamiltonian:
 Density Functional     Method          .... DFT(GTOs)
 Exchange Functional    Exchange        .... B88
   X-Alpha parameter    XAlpha          ....  0.666667
   Becke's b parameter  XBeta           ....  0.004200
 Correlation Functional Correlation     .... LYP
 LDA part of GGA corr.  LDAOpt          .... VWN-5
 Gradients option       PostSCFGGA      .... off
 Hybrid DFT is turned on
   Fraction HF Exchange ScalHFX         ....  0.200000
   Scaling of DF-GGA-X  ScalDFX         ....  0.720000
   Scaling of DF-GGA-C  ScalDFC         ....  0.810000
   Scaling of DF-LDA-C  ScalLDAC        ....  1.000000
   Perturbative correction              ....  0.000000
   Density functional embedding theory  .... OFF
   NL short-range parameter             ....  4.800000
 RI-approximation to the Coulomb term is turned on
   Number of AuxJ basis functions       .... 3496
   RIJ-COSX (HFX calculated with COS-X)).... on


General Settings:
 Integral files         IntName         .... EPRII
 Hartree-Fock type      HFTyp           .... UHF
 Total Charge           Charge          ....    0
 Multiplicity           Mult            ....    2
 Number of Electrons    NEL             ....  141
 Basis Dimension        Dim             ....  512
 Nuclear Repulsion      ENuc            ....   1246.9038243992 Eh

Convergence Acceleration:
 DIIS                   CNVDIIS         .... on
   Start iteration      DIISMaxIt       ....    12
   Startup error        DIISStart       ....  0.200000
   # of expansion vecs  DIISMaxEq       ....     5
   Bias factor          DIISBfac        ....   1.050
   Max. coefficient     DIISMaxC        ....  10.000
 Trust-Rad. Augm. Hess. CNVTRAH         .... auto
   Auto Start mean grad. ratio tolernc. ....  1.125000
   Auto Start start iteration           ....     1
   Auto Start num. interpolation iter.  ....    10
   Max. Number of Micro iterations      ....    16
   Max. Number of Macro iterations      .... Maxiter - #DIIS iter
   Number of Davidson start vectors     ....     2
   Converg. threshold I  (grad. norm)   ....   5.000e-05
   Converg. threshold II (energy diff.) ....   1.000e-06
   Grad. Scal. Fac. for Micro threshold ....   0.100
   Minimum threshold for Micro iter.    ....   0.010
   NR start threshold (gradient norm)   ....   0.001
   Initial trust radius                 ....   0.400
   Minimum AH scaling param. (alpha)    ....   1.000
   Maximum AH scaling param. (alpha)    .... 1000.000
   Orbital update algorithm             .... Taylor
   White noise on init. David. guess    .... on
   Maximum white noise                  ....   0.010
   Quad. conv. algorithm                .... NR
 SOSCF                  CNVSOSCF        .... off
 Level Shifting         CNVShift        .... on
   Level shift para.    LevelShift      ....    0.2500
   Turn off err/grad.   ShiftErr        ....    0.0010
 Zerner damping         CNVZerner       .... off
 Static damping         CNVDamp         .... on
   Fraction old density DampFac         ....    0.7000
   Max. Damping (<1)    DampMax         ....    0.9800
   Min. Damping (>=0)   DampMin         ....    0.0000
   Turn off err/grad.   DampErr         ....    0.1000
 Fernandez-Rico         CNVRico         .... off

SCF Procedure:
 Maximum # iterations   MaxIter         ....   125
 SCF integral mode      SCFMode         .... Direct
   Integral package                     .... SHARK and LIBINT hybrid scheme
 Reset frequency        DirectResetFreq ....    20
 Integral Threshold     Thresh          ....  1.000e-10 Eh
 Primitive CutOff       TCut            ....  1.000e-11 Eh

Convergence Tolerance:
 Convergence Check Mode ConvCheckMode   .... Total+1el-Energy
 Convergence forced     ConvForced      .... 0
 Energy Change          TolE            ....  1.000e-06 Eh
 1-El. energy change                    ....  1.000e-03 Eh
 DIIS Error             TolErr          ....  1.000e-06


Diagonalization of the overlap matrix:
Smallest eigenvalue                        ... 1.520e-04
Time for diagonalization                   ...    0.055 sec
Threshold for overlap eigenvalues          ... 1.000e-08
Number of eigenvalues below threshold      ... 0
Time for construction of square roots      ...    0.049 sec
Total time needed                          ...    0.105 sec

---------------------
INITIAL GUESS: MOREAD
---------------------
Guess MOs are being read from file: EPRII.ges
Input Geometry matches current geometry (good)
Input basis set matches current basis set (good)
MOs were renormalized
MOs were reorthogonalized (Cholesky)
                      ------------------
                      INITIAL GUESS DONE (   0.2 sec)
                      ------------------
-------------------
DFT GRID GENERATION
-------------------

General Integration Accuracy     IntAcc      ... 4.388
Radial Grid Type                 RadialGrid  ... OptM3 with GC (2021)
Angular Grid (max. ang.)         AngularGrid ... 4 (Lebedev-302)
Angular grid pruning method      GridPruning ... 4 (adaptive)
Weight generation scheme         WeightScheme... Becke
Basis function cutoff            BFCut       ... 1.0000e-10
Integration weight cutoff        WCut        ... 1.0000e-14
Angular grids for H and He will be reduced by one unit
Partially contracted basis set               ... off
Rotationally invariant grid construction     ... off

Total number of grid points                  ...   199722
Total number of batches                      ...     3144
Average number of points per batch           ...       63
Average number of grid points per atom       ...     4342
Time for grid setup =    1.139 sec

--------------------
COSX GRID GENERATION
--------------------

GRIDX 1
-------
General Integration Accuracy     IntAcc      ... 3.816
Radial Grid Type                 RadialGrid  ... OptM3 with GC (2021)
Angular Grid (max. ang.)         AngularGrid ... 1 (Lebedev-50)
Angular grid pruning method      GridPruning ... 4 (adaptive)
Weight generation scheme         WeightScheme... Becke
Basis function cutoff            BFCut       ... 1.0000e-10
Integration weight cutoff        WCut        ... 1.0000e-14
Angular grids for H and He will be reduced by one unit
Partially contracted basis set               ... on
Rotationally invariant grid construction     ... off

Total number of grid points                  ...    25504
Total number of batches                      ...      424
Average number of points per batch           ...       60
Average number of grid points per atom       ...      554
UseSFitting                                  ... on

GRIDX 2
-------
General Integration Accuracy     IntAcc      ... 4.020
Radial Grid Type                 RadialGrid  ... OptM3 with GC (2021)
Angular Grid (max. ang.)         AngularGrid ... 2 (Lebedev-110)
Angular grid pruning method      GridPruning ... 4 (adaptive)
Weight generation scheme         WeightScheme... Becke
Basis function cutoff            BFCut       ... 1.0000e-10
Integration weight cutoff        WCut        ... 1.0000e-14
Angular grids for H and He will be reduced by one unit
Partially contracted basis set               ... on
Rotationally invariant grid construction     ... off

Total number of grid points                  ...    53567
Total number of batches                      ...      862
Average number of points per batch           ...       62
Average number of grid points per atom       ...     1164
UseSFitting                                  ... on

GRIDX 3
-------
General Integration Accuracy     IntAcc      ... 4.338
Radial Grid Type                 RadialGrid  ... OptM3 with GC (2021)
Angular Grid (max. ang.)         AngularGrid ... 3 (Lebedev-194)
Angular grid pruning method      GridPruning ... 4 (adaptive)
Weight generation scheme         WeightScheme... Becke
Basis function cutoff            BFCut       ... 1.0000e-10
Integration weight cutoff        WCut        ... 1.0000e-14
Angular grids for H and He will be reduced by one unit
Partially contracted basis set               ... on
Rotationally invariant grid construction     ... off

Total number of grid points                  ...   116746
Total number of batches                      ...     1847
Average number of points per batch           ...       63
Average number of grid points per atom       ...     2538
UseSFitting                                  ... on

Time for X-Grid setup             =    2.315 sec

--------------
SCF ITERATIONS
--------------
ITER       Energy         Delta-E        Max-DP      RMS-DP      [F,P]     Damp
               ***  Starting incremental Fock matrix formation  ***
  0   -739.7746465833   0.000000000000 0.00005419  0.00000028  0.0000324 0.7000
                 **** Energy Check signals convergence ****

               *****************************************************
               *                     SUCCESS                       *
               *           SCF CONVERGED AFTER   1 CYCLES          *
               *****************************************************

Old exchange energy                            =    -21.584161877 Eh
New exchange energy                            =    -21.584134915 Eh
Exchange energy change after final integration =      0.000026962 Eh
Total energy after final integration           =   -739.774619264 Eh
Final COS-X integration done in                =     7.287 sec

----------------
TOTAL SCF ENERGY
----------------

Total Energy       :         -739.77461926 Eh          -20130.29079 eV

Components:
Nuclear Repulsion  :         1246.90382440 Eh           33929.97803 eV
Electronic Energy  :        -1986.67844366 Eh          -54060.26882 eV
One Electron Energy:        -3471.71371185 Eh          -94470.13287 eV
Two Electron Energy:         1485.03526819 Eh           40409.86405 eV
Max COSX asymmetry :            0.00000268 Eh               0.00007 eV

Virial components:
Potential Energy   :        -1473.61253583 Eh          -40099.03570 eV
Kinetic Energy     :          733.83791656 Eh           19968.74490 eV
Virial Ratio       :            2.00808994


DFT components:
N(Alpha)           :       71.000037460550 electrons
N(Beta)            :       70.000027438643 electrons
N(Total)           :      141.000064899193 electrons
E(X)               :      -85.553083093744 Eh       
E(C)               :       -5.417687940519 Eh       
E(XC)              :      -90.970771034263 Eh       
DFET-embed. en.    :        0.000000000000 Eh       

---------------
SCF CONVERGENCE
---------------

  Last Energy change         ...    3.5748e-07  Tolerance :   1.0000e-06
  Last MAX-Density change    ...    1.2946e-05  Tolerance :   1.0000e-05
  Last RMS-Density change    ...    7.8836e-08  Tolerance :   1.0000e-06
  Last DIIS Error            ...    1.5008e-05  Tolerance :   1.0000e-06

             **** THE GBW FILE WAS UPDATED (EPRII.gbw) ****
             **** DENSITY EPRII.scfp WAS UPDATED ****
             **** ENERGY FILE WAS UPDATED (EPRII.en.tmp) ****
----------------------
UHF SPIN CONTAMINATION
----------------------

Warning: in a DFT calculation there is little theoretical justification to 
         calculate <S**2> as in Hartree-Fock theory. We will do it anyways
         but you should keep in mind that the values have only limited relevance

Expectation value of <S**2>     :     0.754010
Ideal value S*(S+1) for S=0.5   :     0.750000
Deviation                       :     0.004010

             **** THE GBW FILE WAS UPDATED (EPRII.gbw) ****
             **** DENSITY EPRII.scfp WAS UPDATED ****
----------------
ORBITAL ENERGIES
----------------
                 SPIN UP ORBITALS
  NO   OCC          E(Eh)            E(eV) 
   0   1.0000     -10.215478      -277.9773 
   1   1.0000     -10.205129      -277.6957 
   2   1.0000     -10.201390      -277.5939 
   3   1.0000     -10.200994      -277.5832 
   4   1.0000     -10.193337      -277.3748 
   5   1.0000     -10.192522      -277.3526 
   6   1.0000     -10.192068      -277.3403 
   7   1.0000     -10.191272      -277.3186 
   8   1.0000     -10.188581      -277.2454 
   9   1.0000     -10.185163      -277.1524 
  10   1.0000     -10.184507      -277.1345 
  11   1.0000     -10.183623      -277.1105 
  12   1.0000     -10.182636      -277.0836 
  13   1.0000     -10.181956      -277.0651 
  14   1.0000     -10.181737      -277.0591 
  15   1.0000     -10.181562      -277.0544 
  16   1.0000     -10.179783      -277.0060 
  17   1.0000     -10.173157      -276.8257 
  18   1.0000     -10.171256      -276.7740 
  19   1.0000      -0.862987       -23.4831 
  20   1.0000      -0.811180       -22.0733 
  21   1.0000      -0.801246       -21.8030 
  22   1.0000      -0.782342       -21.2886 
  23   1.0000      -0.776510       -21.1299 
  24   1.0000      -0.757147       -20.6030 
  25   1.0000      -0.729680       -19.8556 
  26   1.0000      -0.722407       -19.6577 
  27   1.0000      -0.703235       -19.1360 
  28   1.0000      -0.670669       -18.2498 
  29   1.0000      -0.637966       -17.3599 
  30   1.0000      -0.617898       -16.8138 
  31   1.0000      -0.608021       -16.5451 
  32   1.0000      -0.583656       -15.8821 
  33   1.0000      -0.576264       -15.6809 
  34   1.0000      -0.560636       -15.2557 
  35   1.0000      -0.559461       -15.2237 
  36   1.0000      -0.526382       -14.3236 
  37   1.0000      -0.493549       -13.4302 
  38   1.0000      -0.469845       -12.7851 
  39   1.0000      -0.469522       -12.7763 
  40   1.0000      -0.466633       -12.6977 
  41   1.0000      -0.459782       -12.5113 
  42   1.0000      -0.453370       -12.3368 
  43   1.0000      -0.429031       -11.6745 
  44   1.0000      -0.425738       -11.5849 
  45   1.0000      -0.421725       -11.4757 
  46   1.0000      -0.418731       -11.3942 
  47   1.0000      -0.412515       -11.2251 
  48   1.0000      -0.405951       -11.0465 
  49   1.0000      -0.403712       -10.9856 
  50   1.0000      -0.382966       -10.4210 
  51   1.0000      -0.378814       -10.3080 
  52   1.0000      -0.373692       -10.1687 
  53   1.0000      -0.363223        -9.8838 
  54   1.0000      -0.360853        -9.8193 
  55   1.0000      -0.352627        -9.5955 
  56   1.0000      -0.348979        -9.4962 
  57   1.0000      -0.346880        -9.4391 
  58   1.0000      -0.332609        -9.0507 
  59   1.0000      -0.330130        -8.9833 
  60   1.0000      -0.327050        -8.8995 
  61   1.0000      -0.325236        -8.8501 
  62   1.0000      -0.322706        -8.7813 
  63   1.0000      -0.321488        -8.7481 
  64   1.0000      -0.320031        -8.7085 
  65   1.0000      -0.311396        -8.4735 
  66   1.0000      -0.299178        -8.1410 
  67   1.0000      -0.272025        -7.4022 
  68   1.0000      -0.240916        -6.5557 
  69   1.0000      -0.223238        -6.0746 
  70   1.0000      -0.179546        -4.8857 
  71   0.0000      -0.032400        -0.8816 
  72   0.0000       0.000671         0.0183 
  73   0.0000       0.020866         0.5678 
  74   0.0000       0.023666         0.6440 
  75   0.0000       0.026138         0.7113 
  76   0.0000       0.028566         0.7773 
  77   0.0000       0.031997         0.8707 
  78   0.0000       0.038558         1.0492 
  79   0.0000       0.044687         1.2160 
  80   0.0000       0.045131         1.2281 
  81   0.0000       0.051480         1.4009 
  82   0.0000       0.056871         1.5475 
  83   0.0000       0.064070         1.7434 
  84   0.0000       0.078050         2.1239 
  85   0.0000       0.081407         2.2152 
  86   0.0000       0.083516         2.2726 
  87   0.0000       0.091208         2.4819 
  88   0.0000       0.109932         2.9914 
  89   0.0000       0.115573         3.1449 
  90   0.0000       0.118557         3.2261 
  91   0.0000       0.145315         3.9542 
  92   0.0000       0.149559         4.0697 
  93   0.0000       0.151724         4.1286 
  94   0.0000       0.162104         4.4111 
  95   0.0000       0.164673         4.4810 
  96   0.0000       0.174253         4.7417 
  97   0.0000       0.178346         4.8530 
  98   0.0000       0.180886         4.9222 
  99   0.0000       0.185061         5.0358 
 100   0.0000       0.191206         5.2030 
 101   0.0000       0.191709         5.2167 
 102   0.0000       0.197311         5.3691 
 103   0.0000       0.197772         5.3817 
 104   0.0000       0.198552         5.4029 
 105   0.0000       0.201358         5.4792 
 106   0.0000       0.205991         5.6053 
 107   0.0000       0.217363         5.9147 
 108   0.0000       0.218070         5.9340 
 109   0.0000       0.219742         5.9795 
 110   0.0000       0.222820         6.0633 
 111   0.0000       0.225178         6.1274 
 112   0.0000       0.231498         6.2994 
 113   0.0000       0.238278         6.4839 
 114   0.0000       0.242438         6.5971 
 115   0.0000       0.249283         6.7833 
 116   0.0000       0.252354         6.8669 
 117   0.0000       0.253616         6.9012 
 118   0.0000       0.256991         6.9931 
 119   0.0000       0.259655         7.0656 
 120   0.0000       0.260972         7.1014 
 121   0.0000       0.275233         7.4895 
 122   0.0000       0.277283         7.5453 
 123   0.0000       0.280293         7.6272 
 124   0.0000       0.281076         7.6485 
 125   0.0000       0.283319         7.7095 
 126   0.0000       0.290979         7.9180 
 127   0.0000       0.296240         8.0611 
 128   0.0000       0.297436         8.0936 
 129   0.0000       0.297725         8.1015 
 130   0.0000       0.303434         8.2569 
 131   0.0000       0.307136         8.3576 
 132   0.0000       0.313020         8.5177 
 133   0.0000       0.315238         8.5781 
 134   0.0000       0.318558         8.6684 
 135   0.0000       0.320410         8.7188 
 136   0.0000       0.322264         8.7693 
 137   0.0000       0.330335         8.9889 
 138   0.0000       0.330598         8.9960 
 139   0.0000       0.332637         9.0515 
 140   0.0000       0.336431         9.1548 
 141   0.0000       0.348278         9.4771 
 142   0.0000       0.350957         9.5500 
 143   0.0000       0.353235         9.6120 
 144   0.0000       0.361707         9.8425 
 145   0.0000       0.366535         9.9739 
 146   0.0000       0.370221        10.0742 
 147   0.0000       0.373207        10.1555 
 148   0.0000       0.374615        10.1938 
 149   0.0000       0.381951        10.3934 
 150   0.0000       0.391197        10.6450 
 151   0.0000       0.394470        10.7341 
 152   0.0000       0.401008        10.9120 
 153   0.0000       0.405231        11.0269 
 154   0.0000       0.414539        11.2802 
 155   0.0000       0.418858        11.3977 
 156   0.0000       0.420592        11.4449 
 157   0.0000       0.424568        11.5531 
 158   0.0000       0.431717        11.7476 
 159   0.0000       0.440320        11.9817 
 160   0.0000       0.448125        12.1941 
 161   0.0000       0.452386        12.3100 
 162   0.0000       0.456453        12.4207 
 163   0.0000       0.463329        12.6078 
 164   0.0000       0.468366        12.7449 
 165   0.0000       0.472744        12.8640 
 166   0.0000       0.480936        13.0869 
 167   0.0000       0.489294        13.3144 
 168   0.0000       0.491948        13.3866 
 169   0.0000       0.505032        13.7426 
 170   0.0000       0.508499        13.8370 
 171   0.0000       0.513002        13.9595 
 172   0.0000       0.518425        14.1071 
 173   0.0000       0.524170        14.2634 
 174   0.0000       0.535121        14.5614 
 175   0.0000       0.541317        14.7300 
 176   0.0000       0.546114        14.8605 
 177   0.0000       0.552695        15.0396 
 178   0.0000       0.561614        15.2823 
 179   0.0000       0.571989        15.5646 
 180   0.0000       0.576450        15.6860 
 181   0.0000       0.585611        15.9353 
 182   0.0000       0.589522        16.0417 
 183   0.0000       0.595811        16.2129 
 184   0.0000       0.599265        16.3068 
 185   0.0000       0.616411        16.7734 
 186   0.0000       0.623943        16.9783 
 187   0.0000       0.650714        17.7068 
 188   0.0000       0.657251        17.8847 
 189   0.0000       0.677394        18.4328 
 190   0.0000       0.688503        18.7351 
 191   0.0000       0.697142        18.9702 
 192   0.0000       0.719816        19.5872 
 193   0.0000       0.759715        20.6729 
 194   0.0000       0.765165        20.8212 
 195   0.0000       0.772529        21.0216 
 196   0.0000       0.783082        21.3087 
 197   0.0000       0.791650        21.5419 
 198   0.0000       0.797989        21.7144 
 199   0.0000       0.827465        22.5165 
 200   0.0000       0.831948        22.6385 
 201   0.0000       0.838698        22.8221 
 202   0.0000       0.845905        23.0182 
 203   0.0000       0.849302        23.1107 
 204   0.0000       0.855163        23.2702 
 205   0.0000       0.858157        23.3516 
 206   0.0000       0.861234        23.4354 
 207   0.0000       0.871981        23.7278 
 208   0.0000       0.879404        23.9298 
 209   0.0000       0.881120        23.9765 
 210   0.0000       0.882405        24.0115 
 211   0.0000       0.895958        24.3803 
 212   0.0000       0.898186        24.4409 
 213   0.0000       0.905682        24.6449 
 214   0.0000       0.915594        24.9146 
 215   0.0000       0.918108        24.9830 
 216   0.0000       0.923072        25.1181 
 217   0.0000       0.929514        25.2934 
 218   0.0000       0.932019        25.3615 
 219   0.0000       0.936116        25.4730 
 220   0.0000       0.945838        25.7375 
 221   0.0000       0.947445        25.7813 
 222   0.0000       0.951614        25.8947 
 223   0.0000       0.958170        26.0731 
 224   0.0000       0.958753        26.0890 
 225   0.0000       0.969338        26.3770 
 226   0.0000       0.983177        26.7536 
 227   0.0000       0.991867        26.9901 
 228   0.0000       0.995635        27.0926 
 229   0.0000       0.997631        27.1469 
 230   0.0000       0.999955        27.2102 
 231   0.0000       1.005917        27.3724 
 232   0.0000       1.012109        27.5409 
 233   0.0000       1.019519        27.7425 
 234   0.0000       1.032742        28.1023 
 235   0.0000       1.034467        28.1493 
 236   0.0000       1.038690        28.2642 
 237   0.0000       1.043884        28.4055 
 238   0.0000       1.051665        28.6173 
 239   0.0000       1.059534        28.8314 
 240   0.0000       1.079046        29.3623 
 241   0.0000       1.086946        29.5773 
 242   0.0000       1.088209        29.6117 
 243   0.0000       1.090340        29.6697 
 244   0.0000       1.107136        30.1267 
 245   0.0000       1.110340        30.2139 
 246   0.0000       1.118801        30.4441 
 247   0.0000       1.126806        30.6620 
 248   0.0000       1.134361        30.8675 
 249   0.0000       1.144560        31.1451 
 250   0.0000       1.166820        31.7508 
 251   0.0000       1.178977        32.0816 
 252   0.0000       1.180354        32.1191 
 253   0.0000       1.186067        32.2745 
 254   0.0000       1.194119        32.4936 
 255   0.0000       1.198097        32.6019 
 256   0.0000       1.200607        32.6702 
 257   0.0000       1.203845        32.7583 
 258   0.0000       1.211012        32.9533 
 259   0.0000       1.220339        33.2071 
 260   0.0000       1.240045        33.7433 
 261   0.0000       1.242179        33.8014 
 262   0.0000       1.253082        34.0981 
 263   0.0000       1.262824        34.3632 
 264   0.0000       1.278931        34.8015 
 265   0.0000       1.284447        34.9516 
 266   0.0000       1.289453        35.0878 
 267   0.0000       1.299215        35.3534 
 268   0.0000       1.301259        35.4091 
 269   0.0000       1.322286        35.9812 
 270   0.0000       1.334085        36.3023 
 271   0.0000       1.338350        36.4183 
 272   0.0000       1.358685        36.9717 
 273   0.0000       1.368716        37.2447 
 274   0.0000       1.376322        37.4516 
 275   0.0000       1.380744        37.5720 
 276   0.0000       1.386487        37.7282 
 277   0.0000       1.408467        38.3263 
 278   0.0000       1.411586        38.4112 
 279   0.0000       1.426150        38.8075 
 280   0.0000       1.431385        38.9500 
 281   0.0000       1.434309        39.0295 
 282   0.0000       1.442778        39.2600 
 283   0.0000       1.454573        39.5809 
 284   0.0000       1.460253        39.7355 
 285   0.0000       1.482978        40.3539 
 286   0.0000       1.488768        40.5114 
 287   0.0000       1.501274        40.8518 
 288   0.0000       1.509800        41.0837 
 289   0.0000       1.516194        41.2577 
 290   0.0000       1.521626        41.4055 
 291   0.0000       1.534066        41.7441 
 292   0.0000       1.535614        41.7862 
 293   0.0000       1.545224        42.0477 
 294   0.0000       1.548319        42.1319 
 295   0.0000       1.551913        42.2297 
 296   0.0000       1.558761        42.4161 
 297   0.0000       1.561228        42.4832 
 298   0.0000       1.578995        42.9666 
 299   0.0000       1.581062        43.0229 
 300   0.0000       1.586838        43.1801 
 301   0.0000       1.590311        43.2745 
 302   0.0000       1.594140        43.3788 
 303   0.0000       1.604818        43.6693 
 304   0.0000       1.607824        43.7511 
 305   0.0000       1.610497        43.8239 
 306   0.0000       1.612199        43.8702 
 307   0.0000       1.618165        44.0325 
 308   0.0000       1.620480        44.0955 
 309   0.0000       1.639870        44.6231 
 310   0.0000       1.652723        44.9729 
 311   0.0000       1.658404        45.1275 
 312   0.0000       1.671688        45.4889 
 313   0.0000       1.675873        45.6028 
 314   0.0000       1.678699        45.6797 
 315   0.0000       1.686457        45.8908 
 316   0.0000       1.687326        45.9145 
 317   0.0000       1.692133        46.0453 
 318   0.0000       1.701179        46.2914 
 319   0.0000       1.705769        46.4163 
 320   0.0000       1.715859        46.6909 
 321   0.0000       1.720482        46.8167 
 322   0.0000       1.732474        47.1430 
 323   0.0000       1.743038        47.4305 
 324   0.0000       1.744141        47.4605 
 325   0.0000       1.750765        47.6407 
 326   0.0000       1.758286        47.8454 
 327   0.0000       1.760638        47.9094 
 328   0.0000       1.772603        48.2350 
 329   0.0000       1.776819        48.3497 
 330   0.0000       1.780943        48.4619 
 331   0.0000       1.787468        48.6395 
 332   0.0000       1.789138        48.6849 
 333   0.0000       1.804564        49.1047 
 334   0.0000       1.811631        49.2970 
 335   0.0000       1.816320        49.4246 
 336   0.0000       1.825201        49.6662 
 337   0.0000       1.840376        50.0792 
 338   0.0000       1.848599        50.3029 
 339   0.0000       1.854772        50.4709 
 340   0.0000       1.881408        51.1957 
 341   0.0000       1.898182        51.6522 
 342   0.0000       1.905383        51.8481 
 343   0.0000       1.919510        52.2325 
 344   0.0000       1.928131        52.4671 
 345   0.0000       1.938939        52.7612 
 346   0.0000       1.942329        52.8534 
 347   0.0000       1.947309        52.9890 
 348   0.0000       1.955013        53.1986 
 349   0.0000       1.970598        53.6227 
 350   0.0000       1.992720        54.2247 
 351   0.0000       2.006422        54.5975 
 352   0.0000       2.038878        55.4807 
 353   0.0000       2.045184        55.6523 
 354   0.0000       2.051786        55.8319 
 355   0.0000       2.066528        56.2331 
 356   0.0000       2.076002        56.4909 
 357   0.0000       2.097841        57.0852 
 358   0.0000       2.106446        57.3193 
 359   0.0000       2.117477        57.6195 
 360   0.0000       2.124344        57.8063 
 361   0.0000       2.150467        58.5172 
 362   0.0000       2.166991        58.9668 
 363   0.0000       2.178772        59.2874 
 364   0.0000       2.181573        59.3636 
 365   0.0000       2.197643        59.8009 
 366   0.0000       2.209039        60.1110 
 367   0.0000       2.223028        60.4917 
 368   0.0000       2.234174        60.7950 
 369   0.0000       2.242550        61.0229 
 370   0.0000       2.254751        61.3549 
 371   0.0000       2.260423        61.5092 
 372   0.0000       2.265042        61.6349 
 373   0.0000       2.282651        62.1141 
 374   0.0000       2.288890        62.2839 
 375   0.0000       2.294561        62.4382 
 376   0.0000       2.301611        62.6300 
 377   0.0000       2.313666        62.9581 
 378   0.0000       2.318333        63.0850 
 379   0.0000       2.328219        63.3540 
 380   0.0000       2.329585        63.3912 
 381   0.0000       2.342253        63.7359 
 382   0.0000       2.348190        63.8975 
 383   0.0000       2.353053        64.0298 
 384   0.0000       2.379585        64.7518 
 385   0.0000       2.401828        65.3571 
 386   0.0000       2.414811        65.7104 
 387   0.0000       2.418363        65.8070 
 388   0.0000       2.426988        66.0417 
 389   0.0000       2.435935        66.2852 
 390   0.0000       2.442424        66.4617 
 391   0.0000       2.449394        66.6514 
 392   0.0000       2.455263        66.8111 
 393   0.0000       2.468697        67.1767 
 394   0.0000       2.472308        67.2749 
 395   0.0000       2.475693        67.3670 
 396   0.0000       2.482742        67.5588 
 397   0.0000       2.496814        67.9418 
 398   0.0000       2.506865        68.2153 
 399   0.0000       2.516797        68.4855 
 400   0.0000       2.521741        68.6201 
 401   0.0000       2.546301        69.2884 
 402   0.0000       2.552668        69.4616 
 403   0.0000       2.563820        69.7651 
 404   0.0000       2.567986        69.8784 
 405   0.0000       2.579620        70.1950 
 406   0.0000       2.586972        70.3951 
 407   0.0000       2.593771        70.5801 
 408   0.0000       2.613476        71.1163 
 409   0.0000       2.621576        71.3367 
 410   0.0000       2.638082        71.7859 
 411   0.0000       2.645539        71.9888 
 412   0.0000       2.695523        73.3489 
 413   0.0000       2.710631        73.7600 
 414   0.0000       2.748903        74.8015 
 415   0.0000       2.784174        75.7612 
 416   0.0000       2.868003        78.0423 
 417   0.0000       2.914640        79.3114 
 418   0.0000       2.968173        80.7681 
 419   0.0000       3.293709        89.6264 
 420   0.0000       4.983722       135.6140 
 421   0.0000       4.985320       135.6574 
 422   0.0000       5.004184       136.1708 
 423   0.0000       5.006932       136.2455 
 424   0.0000       5.007913       136.2722 
 425   0.0000       5.010019       136.3296 
 426   0.0000       5.017350       136.5290 
 427   0.0000       5.027112       136.7947 
 428   0.0000       5.031115       136.9036 
 429   0.0000       5.034120       136.9854 
 430   0.0000       5.039803       137.1400 
 431   0.0000       5.046300       137.3168 
 432   0.0000       5.051541       137.4594 
 433   0.0000       5.132104       139.6517 
 434   0.0000       5.159798       140.4052 
 435   0.0000       5.184677       141.0822 
 436   0.0000       5.230928       142.3408 
 437   0.0000       5.251371       142.8971 
 438   0.0000       5.259756       143.1252 
 439   0.0000       5.268507       143.3634 
 440   0.0000       5.283461       143.7703 
 441   0.0000       5.298489       144.1792 
 442   0.0000       5.302593       144.2909 
 443   0.0000       5.308292       144.4460 
 444   0.0000       5.324311       144.8819 
 445   0.0000       5.336180       145.2048 
 446   0.0000       5.356345       145.7535 
 447   0.0000       5.378019       146.3433 
 448   0.0000       5.390975       146.6959 
 449   0.0000       5.407887       147.1561 
 450   0.0000       5.430733       147.7778 
 451   0.0000       5.451029       148.3300 
 452   0.0000       5.504051       149.7729 
 453   0.0000       5.516785       150.1194 
 454   0.0000       5.582737       151.9140 
 455   0.0000       5.602640       152.4556 
 456   0.0000       5.631594       153.2435 
 457   0.0000       5.669645       154.2789 
 458   0.0000       5.728743       155.8870 
 459   0.0000       5.742682       156.2663 
 460   0.0000       5.797361       157.7542 
 461   0.0000       5.832869       158.7204 
 462   0.0000       5.864648       159.5852 
 463   0.0000       5.895248       160.4179 
 464   0.0000       6.061837       164.9510 
 465   0.0000       6.321863       172.0266 
 466   0.0000      29.617522       805.9337 
 467   0.0000      29.713971       808.5583 
 468   0.0000      29.809601       811.1605 
 469   0.0000      29.854115       812.3718 
 470   0.0000      29.880755       813.0967 
 471   0.0000      29.922572       814.2346 
 472   0.0000      29.965947       815.4149 
 473   0.0000      29.997328       816.2688 
 474   0.0000      30.032884       817.2363 
 475   0.0000      30.075983       818.4091 
 476   0.0000      30.107587       819.2691 
 477   0.0000      30.131103       819.9090 
 478   0.0000      30.157982       820.6404 
 479   0.0000      30.206680       821.9656 
 480   0.0000      30.243413       822.9651 
 481   0.0000      30.270468       823.7013 
 482   0.0000      30.300448       824.5171 
 483   0.0000      30.364855       826.2697 
 484   0.0000      30.548384       831.2638 
 485   0.0000      36.612169       996.2678 
 486   0.0000      36.613123       996.2937 
 487   0.0000      36.626972       996.6706 
 488   0.0000      36.627656       996.6892 
 489   0.0000      36.635855       996.9123 
 490   0.0000      36.636327       996.9251 
 491   0.0000      36.646310       997.1968 
 492   0.0000      36.651358       997.3341 
 493   0.0000      36.660375       997.5795 
 494   0.0000      36.662617       997.6405 
 495   0.0000      36.671659       997.8866 
 496   0.0000      36.677593       998.0480 
 497   0.0000      36.759828      1000.2858 
 498   0.0000      36.784978      1000.9701 
 499   0.0000      36.829656      1002.1859 
 500   0.0000      36.844780      1002.5974 
 501   0.0000      36.861057      1003.0404 
 502   0.0000      36.872636      1003.3554 
 503   0.0000      36.874142      1003.3964 
 504   0.0000      36.879359      1003.5384 
 505   0.0000      36.889004      1003.8008 
 506   0.0000      36.929622      1004.9061 
 507   0.0000      36.933020      1004.9986 
 508   0.0000      36.945260      1005.3316 
 509   0.0000      36.973955      1006.1125 
 510   0.0000      36.993330      1006.6397 
 511   0.0000      37.018185      1007.3160 

                 SPIN DOWN ORBITALS
  NO   OCC          E(Eh)            E(eV) 
   0   1.0000     -10.215472      -277.9771 
   1   1.0000     -10.205137      -277.6959 
   2   1.0000     -10.201385      -277.5938 
   3   1.0000     -10.200995      -277.5832 
   4   1.0000     -10.193340      -277.3749 
   5   1.0000     -10.192524      -277.3527 
   6   1.0000     -10.192067      -277.3402 
   7   1.0000     -10.191267      -277.3185 
   8   1.0000     -10.188582      -277.2454 
   9   1.0000     -10.184514      -277.1347 
  10   1.0000     -10.184493      -277.1341 
  11   1.0000     -10.182636      -277.0836 
  12   1.0000     -10.182618      -277.0831 
  13   1.0000     -10.181956      -277.0651 
  14   1.0000     -10.181312      -277.0476 
  15   1.0000     -10.179508      -276.9985 
  16   1.0000     -10.173157      -276.8257 
  17   1.0000     -10.171463      -276.7796 
  18   1.0000     -10.171245      -276.7737 
  19   1.0000      -0.862967       -23.4825 
  20   1.0000      -0.809460       -22.0265 
  21   1.0000      -0.795296       -21.6411 
  22   1.0000      -0.781094       -21.2546 
  23   1.0000      -0.776346       -21.1255 
  24   1.0000      -0.755597       -20.5608 
  25   1.0000      -0.725341       -19.7375 
  26   1.0000      -0.722370       -19.6567 
  27   1.0000      -0.699900       -19.0452 
  28   1.0000      -0.669896       -18.2288 
  29   1.0000      -0.636933       -17.3318 
  30   1.0000      -0.617303       -16.7977 
  31   1.0000      -0.605919       -16.4879 
  32   1.0000      -0.582371       -15.8471 
  33   1.0000      -0.575574       -15.6622 
  34   1.0000      -0.559259       -15.2182 
  35   1.0000      -0.545093       -14.8327 
  36   1.0000      -0.526067       -14.3150 
  37   1.0000      -0.493216       -13.4211 
  38   1.0000      -0.469782       -12.7834 
  39   1.0000      -0.467688       -12.7264 
  40   1.0000      -0.463339       -12.6081 
  41   1.0000      -0.459457       -12.5025 
  42   1.0000      -0.451379       -12.2827 
  43   1.0000      -0.426721       -11.6117 
  44   1.0000      -0.424373       -11.5478 
  45   1.0000      -0.420783       -11.4501 
  46   1.0000      -0.418569       -11.3898 
  47   1.0000      -0.412229       -11.2173 
  48   1.0000      -0.401899       -10.9362 
  49   1.0000      -0.398992       -10.8571 
  50   1.0000      -0.380653       -10.3581 
  51   1.0000      -0.375721       -10.2239 
  52   1.0000      -0.372936       -10.1481 
  53   1.0000      -0.362308        -9.8589 
  54   1.0000      -0.359274        -9.7763 
  55   1.0000      -0.351711        -9.5705 
  56   1.0000      -0.347548        -9.4573 
  57   1.0000      -0.345413        -9.3992 
  58   1.0000      -0.331621        -9.0239 
  59   1.0000      -0.328093        -8.9279 
  60   1.0000      -0.325723        -8.8634 
  61   1.0000      -0.324252        -8.8233 
  62   1.0000      -0.322497        -8.7756 
  63   1.0000      -0.320484        -8.7208 
  64   1.0000      -0.318880        -8.6772 
  65   1.0000      -0.308745        -8.4014 
  66   1.0000      -0.299141        -8.1400 
  67   1.0000      -0.272018        -7.4020 
  68   1.0000      -0.240872        -6.5544 
  69   1.0000      -0.223179        -6.0730 
  70   0.0000      -0.037248        -1.0136 
  71   0.0000      -0.032284        -0.8785 
  72   0.0000       0.000773         0.0210 
  73   0.0000       0.020940         0.5698 
  74   0.0000       0.024013         0.6534 
  75   0.0000       0.026715         0.7269 
  76   0.0000       0.028697         0.7809 
  77   0.0000       0.032778         0.8919 
  78   0.0000       0.038932         1.0594 
  79   0.0000       0.044978         1.2239 
  80   0.0000       0.045380         1.2348 
  81   0.0000       0.051524         1.4020 
  82   0.0000       0.057347         1.5605 
  83   0.0000       0.064233         1.7479 
  84   0.0000       0.078069         2.1244 
  85   0.0000       0.081564         2.2195 
  86   0.0000       0.083732         2.2785 
  87   0.0000       0.092133         2.5071 
  88   0.0000       0.110854         3.0165 
  89   0.0000       0.115750         3.1497 
  90   0.0000       0.119220         3.2441 
  91   0.0000       0.145486         3.9589 
  92   0.0000       0.149604         4.0709 
  93   0.0000       0.152321         4.1449 
  94   0.0000       0.162583         4.4241 
  95   0.0000       0.165704         4.5090 
  96   0.0000       0.175523         4.7762 
  97   0.0000       0.179312         4.8793 
  98   0.0000       0.181700         4.9443 
  99   0.0000       0.186562         5.0766 
 100   0.0000       0.192013         5.2249 
 101   0.0000       0.195907         5.3309 
 102   0.0000       0.197964         5.3869 
 103   0.0000       0.198156         5.3921 
 104   0.0000       0.198721         5.4075 
 105   0.0000       0.202292         5.5046 
 106   0.0000       0.206816         5.6278 
 107   0.0000       0.218210         5.9378 
 108   0.0000       0.219769         5.9802 
 109   0.0000       0.220053         5.9879 
 110   0.0000       0.224031         6.0962 
 111   0.0000       0.225500         6.1362 
 112   0.0000       0.231804         6.3077 
 113   0.0000       0.239039         6.5046 
 114   0.0000       0.243130         6.6159 
 115   0.0000       0.249763         6.7964 
 116   0.0000       0.252566         6.8727 
 117   0.0000       0.253720         6.9041 
 118   0.0000       0.257878         7.0172 
 119   0.0000       0.260728         7.0948 
 120   0.0000       0.267823         7.2878 
 121   0.0000       0.277162         7.5420 
 122   0.0000       0.278387         7.5753 
 123   0.0000       0.281340         7.6557 
 124   0.0000       0.283779         7.7220 
 125   0.0000       0.285639         7.7726 
 126   0.0000       0.292226         7.9519 
 127   0.0000       0.297026         8.0825 
 128   0.0000       0.298488         8.1223 
 129   0.0000       0.298924         8.1341 
 130   0.0000       0.304938         8.2978 
 131   0.0000       0.309283         8.4160 
 132   0.0000       0.313312         8.5256 
 133   0.0000       0.317621         8.6429 
 134   0.0000       0.321416         8.7462 
 135   0.0000       0.321893         8.7591 
 136   0.0000       0.325970         8.8701 
 137   0.0000       0.331032         9.0078 
 138   0.0000       0.332475         9.0471 
 139   0.0000       0.334350         9.0981 
 140   0.0000       0.337586         9.1862 
 141   0.0000       0.351073         9.5532 
 142   0.0000       0.351620         9.5681 
 143   0.0000       0.354631         9.6500 
 144   0.0000       0.362299         9.8587 
 145   0.0000       0.366975         9.9859 
 146   0.0000       0.371893        10.1197 
 147   0.0000       0.373617        10.1666 
 148   0.0000       0.377288        10.2665 
 149   0.0000       0.383994        10.4490 
 150   0.0000       0.392028        10.6676 
 151   0.0000       0.395603        10.7649 
 152   0.0000       0.405481        11.0337 
 153   0.0000       0.409208        11.1351 
 154   0.0000       0.417506        11.3609 
 155   0.0000       0.420662        11.4468 
 156   0.0000       0.420958        11.4548 
 157   0.0000       0.426259        11.5991 
 158   0.0000       0.432649        11.7730 
 159   0.0000       0.442049        12.0288 
 160   0.0000       0.448844        12.2137 
 161   0.0000       0.452841        12.3224 
 162   0.0000       0.456683        12.4270 
 163   0.0000       0.464325        12.6349 
 164   0.0000       0.471423        12.8281 
 165   0.0000       0.480897        13.0859 
 166   0.0000       0.485489        13.2108 
 167   0.0000       0.489470        13.3192 
 168   0.0000       0.493276        13.4227 
 169   0.0000       0.506532        13.7834 
 170   0.0000       0.509061        13.8523 
 171   0.0000       0.516683        14.0597 
 172   0.0000       0.518683        14.1141 
 173   0.0000       0.524510        14.2727 
 174   0.0000       0.538784        14.6611 
 175   0.0000       0.543453        14.7881 
 176   0.0000       0.547787        14.9060 
 177   0.0000       0.553370        15.0580 
 178   0.0000       0.564078        15.3493 
 179   0.0000       0.574020        15.6199 
 180   0.0000       0.578311        15.7366 
 181   0.0000       0.585869        15.9423 
 182   0.0000       0.590517        16.0688 
 183   0.0000       0.597148        16.2492 
 184   0.0000       0.599929        16.3249 
 185   0.0000       0.619661        16.8618 
 186   0.0000       0.625365        17.0171 
 187   0.0000       0.652311        17.7503 
 188   0.0000       0.657834        17.9006 
 189   0.0000       0.677799        18.4438 
 190   0.0000       0.688629        18.7385 
 191   0.0000       0.697546        18.9812 
 192   0.0000       0.722620        19.6635 
 193   0.0000       0.761422        20.7194 
 194   0.0000       0.766262        20.8511 
 195   0.0000       0.772919        21.0322 
[...]
  Y           0.3358735            0.4127449           -0.8466585
  Z          -0.6528814            0.7499236            0.1065855

Notes:  (1) The A matrix conforms to the "SAI" spin Hamiltonian convention.
        (2) Tensor is right-handed.

 -----------------------------------------------------------
 Nucleus  43H : A:ISTP=    1 I=  0.5 P=533.5514 MHz/au**3
                Q:ISTP=    2 I=  1.0 Q=  0.0029 barn     
 -----------------------------------------------------------
 Solving for nuclear perturbation:
Forming RHS of the CP-SCF equations         ... 
Calc. nucleus orbit integrals (SHARK)       ... done

------------------------------------------------------------------------------
                           ORCA CP-SCF CALCULATION
------------------------------------------------------------------------------

Input orbitals are from        ... EPRII.gbw
Input Perturbation             ... EPRII.pin.tmp
Wavefunction output            ... EPRII.pout.tmp
Perturbation mode              ... Imaginary perturbation
Solver                         ... POPLE
Max. number of iterations      ... 64
Convergence tolerance          ... 1.000e-03
Integral handling              ... Direct
DFT GridXC                     ... 1
COSX GridX                     ... 1
COSX IntAccX                   ... 3.067
COSX Algorithm                 ... Auto
Number of perturbations        ... 3
Number of operators            ... 2
Orbital ranges used for CP-SCF:
 Operator 0:  Orbitals   0... 70  to  71...511
 Operator 1:  Orbitals   0... 69  to  70...511
Variables per perturbation     ... 62251
DFT calculation                         ... on
XC functional terms                     ... off
Hybrid DFT                              ... on
   Exchange mixing (SCF)                ...  0.200
   Exchange mixing (CP-SCF)             ...  0.200
   GGA exch. scaling(SCF)               ...  0.720
   GGA exch. scaling (CP-SCF)           ...  0.720
   GGA corr. scaling (SCF)              ...  0.810
   GGA corr. scaling (CP-SCF)           ...  0.810

CP-SCF GRID
-----------

General Integration Accuracy     IntAcc      ... 3.467
Radial Grid Type                 RadialGrid  ... OptM3 with GC (2021)
Angular Grid (max. ang.)         AngularGrid ... 1 (Lebedev-50)
Angular grid pruning method      GridPruning ... 4 (adaptive)
Weight generation scheme         WeightScheme... Becke
Basis function cutoff            BFCut       ... 1.0000e-10
Integration weight cutoff        WCut        ... 1.0000e-14
Angular grids for H and He will be reduced by one unit
Partially contracted basis set               ... off
Rotationally invariant grid construction     ... off

Total number of grid points                  ...    27924
Total number of batches                      ...      456
Average number of points per batch           ...       61
Average number of grid points per atom       ...      607

CP-SCF GRIDX
------------

General Integration Accuracy     IntAcc      ... 3.067
Radial Grid Type                 RadialGrid  ... OptM3 with GC (2021)
Angular Grid (max. ang.)         AngularGrid ... 1 (Lebedev-50)
Angular grid pruning method      GridPruning ... 4 (adaptive)
Weight generation scheme         WeightScheme... Becke
Basis function cutoff            BFCut       ... 1.0000e-10
Integration weight cutoff        WCut        ... 1.0000e-14
Angular grids for H and He will be reduced by one unit
Partially contracted basis set               ... on
Rotationally invariant grid construction     ... off

Total number of grid points                  ...    13278
Total number of batches                      ...      237
Average number of points per batch           ...       56
Average number of grid points per atom       ...      289

Memory available               ... 877.5 MB
Memory needed per perturbation ...  15.3 MB
Perturbations treated per batch... 3
Number of batches              ... 1
     CP-SCF ITERATION   0:   3.6976e-02 (   1.5 sec   0/  3 done)
     CP-SCF ITERATION   1:   5.5980e-04 (   1.5 sec   3/  3 done)
                    *** THE CP-SCF HAS CONVERGED ***

Forming final perturbed densities           ... done
Transforming perturbed density to AO basis  ... done

 Raw HFC matrix (all values in MHz): 
 -----------------------------------
                -0.0259               0.0181              -0.0012
                 0.0181               0.0554              -0.0049
                -0.0012              -0.0049              -0.0294

 A(FC)           0.0000               0.0000               0.0000
 A(SD)          -0.0296              -0.0299               0.0595
 A(ORB+DIA)      0.0000               0.0000               0.0000    A(PC) =   0.0000
 A(ORB)          0.0000              -0.0000               0.0000    A(PC) =   0.0000
 A(DIA)          0.0000               0.0000               0.0000    A(PC) =   0.0000
             ----------           ----------           ----------
 A(Tot)         -0.0296              -0.0298               0.0595    A(iso)=    0.0000
 Orientation: 
  X           0.7279734            0.6534882           -0.2073834
  Y          -0.1930140           -0.0949070           -0.9765952
  Z          -0.6578756            0.7509633            0.0570426

Notes:  (1) The A matrix conforms to the "SAI" spin Hamiltonian convention.
        (2) Tensor is right-handed.

 -----------------------------------------------------------
 Nucleus  44H : A:ISTP=    1 I=  0.5 P=533.5514 MHz/au**3
                Q:ISTP=    2 I=  1.0 Q=  0.0029 barn     
 -----------------------------------------------------------
 Solving for nuclear perturbation:
Forming RHS of the CP-SCF equations         ... 
Calc. nucleus orbit integrals (SHARK)       ... done

------------------------------------------------------------------------------
                           ORCA CP-SCF CALCULATION
------------------------------------------------------------------------------

Input orbitals are from        ... EPRII.gbw
Input Perturbation             ... EPRII.pin.tmp
Wavefunction output            ... EPRII.pout.tmp
Perturbation mode              ... Imaginary perturbation
Solver                         ... POPLE
Max. number of iterations      ... 64
Convergence tolerance          ... 1.000e-03
Integral handling              ... Direct
DFT GridXC                     ... 1
COSX GridX                     ... 1
COSX IntAccX                   ... 3.067
COSX Algorithm                 ... Auto
Number of perturbations        ... 3
Number of operators            ... 2
Orbital ranges used for CP-SCF:
 Operator 0:  Orbitals   0... 70  to  71...511
 Operator 1:  Orbitals   0... 69  to  70...511
Variables per perturbation     ... 62251
DFT calculation                         ... on
XC functional terms                     ... off
Hybrid DFT                              ... on
   Exchange mixing (SCF)                ...  0.200
   Exchange mixing (CP-SCF)             ...  0.200
   GGA exch. scaling(SCF)               ...  0.720
   GGA exch. scaling (CP-SCF)           ...  0.720
   GGA corr. scaling (SCF)              ...  0.810
   GGA corr. scaling (CP-SCF)           ...  0.810

CP-SCF GRID
-----------

General Integration Accuracy     IntAcc      ... 3.467
Radial Grid Type                 RadialGrid  ... OptM3 with GC (2021)
Angular Grid (max. ang.)         AngularGrid ... 1 (Lebedev-50)
Angular grid pruning method      GridPruning ... 4 (adaptive)
Weight generation scheme         WeightScheme... Becke
Basis function cutoff            BFCut       ... 1.0000e-10
Integration weight cutoff        WCut        ... 1.0000e-14
Angular grids for H and He will be reduced by one unit
Partially contracted basis set               ... off
Rotationally invariant grid construction     ... off

Total number of grid points                  ...    27924
Total number of batches                      ...      456
Average number of points per batch           ...       61
Average number of grid points per atom       ...      607

CP-SCF GRIDX
------------

General Integration Accuracy     IntAcc      ... 3.067
Radial Grid Type                 RadialGrid  ... OptM3 with GC (2021)
Angular Grid (max. ang.)         AngularGrid ... 1 (Lebedev-50)
Angular grid pruning method      GridPruning ... 4 (adaptive)
Weight generation scheme         WeightScheme... Becke
Basis function cutoff            BFCut       ... 1.0000e-10
Integration weight cutoff        WCut        ... 1.0000e-14
Angular grids for H and He will be reduced by one unit
Partially contracted basis set               ... on
Rotationally invariant grid construction     ... off

Total number of grid points                  ...    13278
Total number of batches                      ...      237
Average number of points per batch           ...       56
Average number of grid points per atom       ...      289

Memory available               ... 876.9 MB
Memory needed per perturbation ...  15.3 MB
Perturbations treated per batch... 3
Number of batches              ... 1
     CP-SCF ITERATION   0:   3.6841e-02 (   1.6 sec   0/  3 done)
     CP-SCF ITERATION   1:   5.1263e-04 (   1.6 sec   3/  3 done)
                    *** THE CP-SCF HAS CONVERGED ***

Forming final perturbed densities           ... done
Transforming perturbed density to AO basis  ... done

 Raw HFC matrix (all values in MHz): 
 -----------------------------------
                -0.9262              -0.2460              -0.1382
                -0.2460               1.0791               0.3329
                -0.1382               0.3328              -1.0180

 A(FC)          -0.2885              -0.2885              -0.2885
 A(SD)          -0.6136              -0.8384               1.4520
 A(ORB+DIA)     -0.0001              -0.0002               0.0006    A(PC) =   0.0001
 A(ORB)          0.0000              -0.0002               0.0004    A(PC) =   0.0001
 A(DIA)         -0.0001              -0.0000               0.0001    A(PC) =   0.0000
             ----------           ----------           ----------
 A(Tot)         -0.9021              -1.1272               1.1641    A(iso)=   -0.2884
 Orientation: 
  X          -0.8556685            0.5020317           -0.1256808
  Y          -0.1872998           -0.0740213            0.9795099
  Z           0.4824419            0.8616757            0.1573681

Notes:  (1) The A matrix conforms to the "SAI" spin Hamiltonian convention.
        (2) Tensor is right-handed.

 -----------------------------------------------------------
 Nucleus  45H : A:ISTP=    1 I=  0.5 P=533.5514 MHz/au**3
                Q:ISTP=    2 I=  1.0 Q=  0.0029 barn     
 -----------------------------------------------------------
 Solving for nuclear perturbation:
Forming RHS of the CP-SCF equations         ... 
Calc. nucleus orbit integrals (SHARK)       ... done

------------------------------------------------------------------------------
                           ORCA CP-SCF CALCULATION
------------------------------------------------------------------------------

Input orbitals are from        ... EPRII.gbw
Input Perturbation             ... EPRII.pin.tmp
Wavefunction output            ... EPRII.pout.tmp
Perturbation mode              ... Imaginary perturbation
Solver                         ... POPLE
Max. number of iterations      ... 64
Convergence tolerance          ... 1.000e-03
Integral handling              ... Direct
DFT GridXC                     ... 1
COSX GridX                     ... 1
COSX IntAccX                   ... 3.067
COSX Algorithm                 ... Auto
Number of perturbations        ... 3
Number of operators            ... 2
Orbital ranges used for CP-SCF:
 Operator 0:  Orbitals   0... 70  to  71...511
 Operator 1:  Orbitals   0... 69  to  70...511
Variables per perturbation     ... 62251
DFT calculation                         ... on
XC functional terms                     ... off
Hybrid DFT                              ... on
   Exchange mixing (SCF)                ...  0.200
   Exchange mixing (CP-SCF)             ...  0.200
   GGA exch. scaling(SCF)               ...  0.720
   GGA exch. scaling (CP-SCF)           ...  0.720
   GGA corr. scaling (SCF)              ...  0.810
   GGA corr. scaling (CP-SCF)           ...  0.810

CP-SCF GRID
-----------

General Integration Accuracy     IntAcc      ... 3.467
Radial Grid Type                 RadialGrid  ... OptM3 with GC (2021)
Angular Grid (max. ang.)         AngularGrid ... 1 (Lebedev-50)
Angular grid pruning method      GridPruning ... 4 (adaptive)
Weight generation scheme         WeightScheme... Becke
Basis function cutoff            BFCut       ... 1.0000e-10
Integration weight cutoff        WCut        ... 1.0000e-14
Angular grids for H and He will be reduced by one unit
Partially contracted basis set               ... off
Rotationally invariant grid construction     ... off

Total number of grid points                  ...    27924
Total number of batches                      ...      456
Average number of points per batch           ...       61
Average number of grid points per atom       ...      607

CP-SCF GRIDX
------------

General Integration Accuracy     IntAcc      ... 3.067
Radial Grid Type                 RadialGrid  ... OptM3 with GC (2021)
Angular Grid (max. ang.)         AngularGrid ... 1 (Lebedev-50)
Angular grid pruning method      GridPruning ... 4 (adaptive)
Weight generation scheme         WeightScheme... Becke
Basis function cutoff            BFCut       ... 1.0000e-10
Integration weight cutoff        WCut        ... 1.0000e-14
Angular grids for H and He will be reduced by one unit
Partially contracted basis set               ... on
Rotationally invariant grid construction     ... off

Total number of grid points                  ...    13278
Total number of batches                      ...      237
Average number of points per batch           ...       56
Average number of grid points per atom       ...      289

Memory available               ... 876.4 MB
Memory needed per perturbation ...  15.3 MB
Perturbations treated per batch... 3
Number of batches              ... 1
     CP-SCF ITERATION   0:   4.3416e-02 (   1.6 sec   0/  3 done)
     CP-SCF ITERATION   1:   1.6786e-03 (   1.6 sec   1/  3 done)
     CP-SCF ITERATION   2:   7.8196e-05 (   1.3 sec   3/  3 done)
                    *** THE CP-SCF HAS CONVERGED ***

Forming final perturbed densities           ... done
Transforming perturbed density to AO basis  ... done

 Raw HFC matrix (all values in MHz): 
 -----------------------------------
                -0.0466               0.2676              -0.0124
                 0.2677               0.2737              -0.0163
                -0.0124              -0.0162              -0.2001

 A(FC)           0.0090               0.0090               0.0090
 A(SD)          -0.2055              -0.2115               0.4170
 A(ORB+DIA)      0.0000               0.0000               0.0001    A(PC) =   0.0001
 A(ORB)          0.0000              -0.0000               0.0001    A(PC) =   0.0000
 A(DIA)          0.0000               0.0000               0.0000    A(PC) =   0.0000
             ----------           ----------           ----------
 A(Tot)         -0.1965              -0.2025               0.4261    A(iso)=    0.0090
 Orientation: 
  X          -0.7188039            0.4901417            0.4930335
  Y           0.4280413           -0.2468041            0.8694069
  Z           0.5478153            0.8359718           -0.0323972

Notes:  (1) The A matrix conforms to the "SAI" spin Hamiltonian convention.
        (2) Tensor is right-handed.


--------------------------------------------------------------------------------
----------------------------------------------------------------------------
                           ORCA EULER ANGLE PROGRAM
----------------------------------------------------------------------------

Only g-tensor available        -->  using g-tensor as reference tensor

Reference tensor               ...  g

g-tensor ordering              ...  |g_min> --> |gx>
                                    |g_mid> --> |gy>
                                    |g_max> --> |gz>

A- and EFG-tensor ordering     ...  the axes |Ax>, |Qx>, |Ay>, etc. are assigned
                                    such that the Euler rotation is minimal. You
                                    can find the respective eigenvalues as Ax,
                                    EFGx, Ay, etc. in the tables below.
                                    The relation of |Ax>, |Ay>,  etc. to Amin, Amid, etc.
                                    (as printed in the ORCA EPR/NMR CALCULATION Output)
                                    is obtained in the detailed printout.

Euler rotation around          ...  z - y - z
   First rotation              -->  by alpha around z
   Second rotation             -->  by beta around y'
   Third rotation              -->  by gamma around z''
   Positive / Negative angle   -->  clockwise / counterclockwise rotation

Plot EFG-tensors                    (-)
Plot HFC-tensors                    (-)
Detailed Printout                   (-)

-------------------------------------------------------------------------
          Euler rotation of hyperfine tensor to g-tensor
-------------------------------------------------------------------------

-------------------------------------------------------------------
 Atom  |   Alpha    Beta    Gamma   |   Ax       Ay       Az 
       |          [degrees]         |           [MHz]         
-------------------------------------------------------------------
  7H      160.7     37.4   -174.6      -0.12     0.27    -0.11
  8H     -155.2     39.5    142.7      -0.76     1.34    -0.72
 10H     -156.3     26.8    147.0      -0.06     0.22    -0.06
 11H      -11.6     33.1    -12.0      -0.06     0.22    -0.06
 13H        5.8     32.1    -12.0      -0.07     0.14    -0.07
 14H       10.8     38.5    -24.9      -0.07     0.14    -0.07
 16H       -7.2     27.2    -12.8      -0.05     0.09    -0.05
 17H      -14.1     27.2      1.4      -0.05     0.09    -0.05
 19H       14.0     28.9    -27.4      -0.04     0.07    -0.04
 20H        8.1     28.0    -14.9      -0.04     0.07    -0.04
 22H       89.2     31.7   -107.9      -0.33     2.79    -0.30
 23H       43.7     28.4    -38.7       0.14     3.12    -0.42
 25H     -115.5     15.4    119.6      -4.47     3.67    -4.65
 26H       -2.9     37.1    -27.6      -4.58     4.48    -6.04
 28H      -26.3     28.9     70.0      42.57    41.79    55.80
 29H       86.1     40.5    -56.4     131.41   142.33   129.30
 31H       47.2     14.1    -49.6     -59.50   -95.70   -20.31
 33H      -61.0     24.6     29.8     131.82   142.78   129.75
 34H     -123.8     52.7    144.5      38.53    52.49    39.35
 36H       99.4     35.4   -111.3      -4.54     3.65    -4.69
 37H       38.1     32.3     -7.0      -4.63     4.40    -6.14
 39H      -34.9     20.8     43.8      -0.25     2.75    -0.27
 40H        6.5     21.2    -13.5       0.18     3.03    -0.33
 42H       64.9     47.3    -53.2      -0.18     0.34    -0.18
 43H        0.9     26.7    -14.0      -0.03     0.06    -0.03
 44H       22.2     37.5    -12.1      -0.90     1.16    -1.13
 45H      -28.2     36.5      4.6      -0.20     0.43    -0.20
-------------------------------------------------------------------


Maximum memory used throughout the entire EPRNMR-calculation: 204.5 MB

Timings for individual modules:

Sum of individual times         ...     3701.271 sec (=  61.688 min)
GTO integral calculation        ...        6.097 sec (=   0.102 min)   0.2 %
Spin-Orbit-Coupling Matrices    ...       10.882 sec (=   0.181 min)   0.3 %
SCF iterations                  ...       29.868 sec (=   0.498 min)   0.8 %
EPR/NMR calculation             ...     3654.424 sec (=  60.907 min)  98.7 %
                             ****ORCA TERMINATED NORMALLY****
TOTAL RUN TIME: 0 days 1 hours 1 minutes 46 seconds 131 msec
