
                                 *****************
                                 * O   R   C   A *
                                 *****************

                                            #,                                       
                                            ###                                      
                                            ####                                     
                                            #####                                    
                                            ######                                   
                                           ########,                                 
                                     ,,################,,,,,                         
                               ,,#################################,,                 
                          ,,##########################################,,             
                       ,#########################################, ''#####,          
                    ,#############################################,,   '####,        
                  ,##################################################,,,,####,       
                ,###########''''           ''''###############################       
              ,#####''   ,,,,##########,,,,          '''####'''          '####       
            ,##' ,,,,###########################,,,                        '##       
           ' ,,###''''                  '''############,,,                           
         ,,##''                                '''############,,,,        ,,,,,,###''
      ,#''                                            '''#######################'''  
     '                                                          ''''####''''         
             ,#######,   #######,   ,#######,      ##                                
            ,#'     '#,  ##    ##  ,#'     '#,    #''#        ######   ,####,        
            ##       ##  ##   ,#'  ##            #'  '#       #        #'  '#        
            ##       ##  #######   ##           ,######,      #####,   #    #        
            '#,     ,#'  ##    ##  '#,     ,#' ,#      #,         ##   #,  ,#        
             '#######'   ##     ##  '#######'  #'      '#     #####' # '####'        



                  #######################################################
                  #                        -***-                        #
                  #          Department of theory and spectroscopy      #
                  #    Directorship and core code : Frank Neese         #
                  #        Max Planck Institute fuer Kohlenforschung    #
                  #                Kaiser Wilhelm Platz 1               #
                  #                 D-45470 Muelheim/Ruhr               #
                  #                      Germany                        #
                  #                                                     #
                  #                  All rights reserved                #
                  #                        -***-                        #
                  #######################################################


                         Program Version 5.0.4 -  RELEASE  -


 With contributions from (in alphabetic order):
   Daniel Aravena         : Magnetic Suceptibility
   Michael Atanasov       : Ab Initio Ligand Field Theory (pilot matlab implementation)
   Alexander A. Auer      : GIAO ZORA, VPT2 properties, NMR spectrum
   Ute Becker             : Parallelization
   Giovanni Bistoni       : ED, misc. LED, open-shell LED, HFLD
   Martin Brehm           : Molecular dynamics
   Dmytro Bykov           : SCF Hessian
   Vijay G. Chilkuri      : MRCI spin determinant printing, contributions to CSF-ICE
   Dipayan Datta          : RHF DLPNO-CCSD density
   Achintya Kumar Dutta   : EOM-CC, STEOM-CC
   Dmitry Ganyushin       : Spin-Orbit,Spin-Spin,Magnetic field MRCI
   Miquel Garcia          : C-PCM and meta-GGA Hessian, CC/C-PCM, Gaussian charge scheme
   Yang Guo               : DLPNO-NEVPT2, F12-NEVPT2, CIM, IAO-localization
   Andreas Hansen         : Spin unrestricted coupled pair/coupled cluster methods
   Benjamin Helmich-Paris : MC-RPA, TRAH-SCF, COSX integrals
   Lee Huntington         : MR-EOM, pCC
   Robert Izsak           : Overlap fitted RIJCOSX, COSX-SCS-MP3, EOM
   Marcus Kettner         : VPT2
   Christian Kollmar      : KDIIS, OOCD, Brueckner-CCSD(T), CCSD density, CASPT2, CASPT2-K
   Simone Kossmann        : Meta GGA functionals, TD-DFT gradient, OOMP2, MP2 Hessian
   Martin Krupicka        : Initial AUTO-CI
   Lucas Lang             : DCDCAS
   Marvin Lechner         : AUTO-CI (C++ implementation), FIC-MRCC
   Dagmar Lenk            : GEPOL surface, SMD
   Dimitrios Liakos       : Extrapolation schemes; Compound Job, initial MDCI parallelization
   Dimitrios Manganas     : Further ROCIS development; embedding schemes
   Dimitrios Pantazis     : SARC Basis sets
   Anastasios Papadopoulos: AUTO-CI, single reference methods and gradients
   Taras Petrenko         : DFT Hessian,TD-DFT gradient, ASA, ECA, R-Raman, ABS, FL, XAS/XES, NRVS
   Peter Pinski           : DLPNO-MP2, DLPNO-MP2 Gradient
   Christoph Reimann      : Effective Core Potentials
   Marius Retegan         : Local ZFS, SOC
   Christoph Riplinger    : Optimizer, TS searches, QM/MM, DLPNO-CCSD(T), (RO)-DLPNO pert. Triples
   Tobias Risthaus        : Range-separated hybrids, TD-DFT gradient, RPA, STAB
   Michael Roemelt        : Original ROCIS implementation
   Masaaki Saitow         : Open-shell DLPNO-CCSD energy and density
   Barbara Sandhoefer     : DKH picture change effects
   Avijit Sen             : IP-ROCIS
   Kantharuban Sivalingam : CASSCF convergence, NEVPT2, FIC-MRCI
   Bernardo de Souza      : ESD, SOC TD-DFT
   Georgi Stoychev        : AutoAux, RI-MP2 NMR, DLPNO-MP2 response
   Willem Van den Heuvel  : Paramagnetic NMR
   Boris Wezisla          : Elementary symmetry handling
   Frank Wennmohs         : Technical directorship


 We gratefully acknowledge several colleagues who have allowed us to
 interface, adapt or use parts of their codes:
   Stefan Grimme, W. Hujo, H. Kruse, P. Pracht,  : VdW corrections, initial TS optimization,
                  C. Bannwarth, S. Ehlert          DFT functionals, gCP, sTDA/sTD-DF
   Ed Valeev, F. Pavosevic, A. Kumar             : LibInt (2-el integral package), F12 methods
   Garnet Chan, S. Sharma, J. Yang, R. Olivares  : DMRG
   Ulf Ekstrom                                   : XCFun DFT Library
   Mihaly Kallay                                 : mrcc  (arbitrary order and MRCC methods)
   Jiri Pittner, Ondrej Demel                    : Mk-CCSD
   Frank Weinhold                                : gennbo (NPA and NBO analysis)
   Christopher J. Cramer and Donald G. Truhlar   : smd solvation model
   Lars Goerigk                                  : TD-DFT with DH, B97 family of functionals
   V. Asgeirsson, H. Jonsson                     : NEB implementation
   FAccTs GmbH                                   : IRC, NEB, NEB-TS, DLPNO-Multilevel, CI-OPT
                                                   MM, QMMM, 2- and 3-layer-ONIOM, Crystal-QMMM,
                                                   LR-CPCM, SF, NACMEs, symmetry and pop. for TD-DFT,
                                                   nearIR, NL-DFT gradient (VV10), updates on ESD,
                                                   ML-optimized integration grids
   S Lehtola, MJT Oliveira, MAL Marques          : LibXC Library
   Liviu Ungur et al                             : ANISO software


 Your calculation uses the libint2 library for the computation of 2-el integrals
 For citations please refer to: http://libint.valeyev.net

 Your ORCA version has been built with support for libXC version: 5.1.0
 For citations please refer to: https://tddft.org/programs/libxc/

 This ORCA versions uses:
   CBLAS   interface :  Fast vector & matrix operations
   LAPACKE interface :  Fast linear algebra routines
   SCALAPACK package :  Parallel linear algebra routines
   Shared memory     :  Shared parallel matrices
   BLAS/LAPACK       :  OpenBLAS 0.3.15  USE64BITINT DYNAMIC_ARCH NO_AFFINITY SkylakeX SINGLE_THREADED
        Core in use  :  SkylakeX
   Copyright (c) 2011-2014, The OpenBLAS Project




***************************************
The coordinates will be read from file: opt.xyz
***************************************


================================================================================

----- Orbital basis set information -----
Your calculation utilizes the basis: EPR-II
   V. Barone, in Recent Advances in Density Functional Methods, Part 1 (ed. D. P. Chong), World Scientific, Singapore, 1995, p. 287.

----- AuxJ basis set information -----
Your calculation utilizes the AutoAux generation procedure.
  G. L. Stoychev, A. A. Auer, F. Neese, J. Chem. Theory Comput. 13, 554 (2017)

----- AuxC basis set information -----
Your calculation utilizes the AutoAux generation procedure.
  G. L. Stoychev, A. A. Auer, F. Neese, J. Chem. Theory Comput. 13, 554 (2017)

----- AuxJK basis set information -----
Your calculation utilizes the AutoAux generation procedure.
  G. L. Stoychev, A. A. Auer, F. Neese, J. Chem. Theory Comput. 13, 554 (2017)

================================================================================
                                        WARNINGS
                       Please study these warnings very carefully!
================================================================================


WARNING: your system is open-shell and RHF/RKS was chosen
  ===> : WILL SWITCH to UHF/UKS


INFO   : the flag for use of the SHARK integral package has been found!

================================================================================
                                       INPUT FILE
================================================================================
NAME = EPRII_i.inp
|  1> ! B3LYP EPR-II AUTOAUX
|  2> %pal nprocs 16 end
|  3> *XYZFile 0 2 opt.xyz
|  4> %EPRNMR
|  5>         GTENSOR   TRUE
|  6>         NUCLEI    = ALL H {SHIFT, AISO, ADIP, AORB}
|  7>         ORI       GIAO
|  8> END
|  9> 
| 10>                          ****END OF INPUT****
================================================================================

                       ****************************
                       * Single Point Calculation *
                       ****************************

---------------------------------
CARTESIAN COORDINATES (ANGSTROEM)
---------------------------------
  C      4.303993   -0.099044   -0.019986
  C      0.095379    0.041847   -0.250332
  C      0.727206   -1.205028   -0.115214
  C      2.122929   -1.212411   -0.043556
  C      2.874308   -0.020154   -0.101380
  C      2.228091    1.234157   -0.236580
  C      0.828539    1.228178   -0.309060
  H      2.668303   -2.150773    0.059972
  H      0.289670    2.170928   -0.414345
  C     -0.115666   -2.468406   -0.049589
  H     -0.784199   -2.484013   -0.930720
  H     -0.791676   -2.389160    0.822893
  C      0.636247   -3.799827    0.026362
  H      1.309912   -3.896981   -0.845049
  H      1.286422   -3.811728    0.920477
  C     -0.301843   -5.011708    0.074983
  H     -0.977280   -4.914794    0.945461
  H     -0.955453   -5.002515   -0.817199
  C      0.442407   -6.347212    0.151027
  H      1.079450   -6.399990    1.050835
  H      1.097598   -6.491215   -0.725436
  C      3.053158    2.505621   -0.293993
  H      3.669351    2.559915    0.622764
  H      3.788282    2.406081   -1.113865
  C      2.286495    3.819607   -0.461501
  H      1.683582    3.789097   -1.387366
  H      1.571864    3.952366    0.370090
  C      3.218416    5.039823   -0.514112
  H      3.844016    5.071239    0.400108
  H      3.946453    4.894522   -1.346232
  C      2.505214    6.343014   -0.678289
  H      1.561879    6.348293   -1.239679
  C      3.174852    7.653563   -0.417869
  H      3.874748    7.897348   -1.251684
  H      3.824892    7.567710    0.475950
  C      2.204128    8.830751   -0.238803
  H      1.570192    8.913846   -1.141092
  H      1.516816    8.605008    0.596374
  C      2.912091   10.163176    0.016523
  H      3.531850   10.118821    0.928896
  H      3.579244   10.430027   -0.821537
  C      5.515728   -0.175457    0.048577
  H      6.584104   -0.243307    0.110603
  H     -0.257066   -7.198161    0.187741
  H      2.190725   10.986727    0.143833
  H     -0.996407    0.085398   -0.311066

----------------------------
CARTESIAN COORDINATES (A.U.)
----------------------------
  NO LB      ZA    FRAG     MASS         X           Y           Z
   0 C     6.0000    0    12.011    8.133368   -0.187165   -0.037768
   1 C     6.0000    0    12.011    0.180239    0.079078   -0.473059
   2 C     6.0000    0    12.011    1.374220   -2.277173   -0.217723
   3 C     6.0000    0    12.011    4.011755   -2.291125   -0.082310
   4 C     6.0000    0    12.011    5.431655   -0.038085   -0.191581
   5 C     6.0000    0    12.011    4.210482    2.332219   -0.447072
   6 C     6.0000    0    12.011    1.565712    2.320921   -0.584040
   7 H     1.0000    0     1.008    5.042361   -4.064372    0.113331
   8 H     1.0000    0     1.008    0.547398    4.102459   -0.782998
   9 C     6.0000    0    12.011   -0.218578   -4.664611   -0.093709
  10 H     1.0000    0     1.008   -1.481922   -4.694104   -1.758806
  11 H     1.0000    0     1.008   -1.496052   -4.514858    1.555042
  12 C     6.0000    0    12.011    1.202332   -7.180633    0.049817
  13 H     1.0000    0     1.008    2.475375   -7.364228   -1.596911
  14 H     1.0000    0     1.008    2.430986   -7.203122    1.739450
  15 C     6.0000    0    12.011   -0.570401   -9.470755    0.141698
  16 H     1.0000    0     1.008   -1.846792   -9.287615    1.786663
  17 H     1.0000    0     1.008   -1.805544   -9.453382   -1.544282
  18 C     6.0000    0    12.011    0.836027  -11.994492    0.285399
  19 H     1.0000    0     1.008    2.039866  -12.094228    1.985790
  20 H     1.0000    0     1.008    2.074160  -12.266619   -1.370876
  21 C     6.0000    0    12.011    5.769632    4.734937   -0.555566
  22 H     1.0000    0     1.008    6.934068    4.837539    1.176852
  23 H     1.0000    0     1.008    7.158815    4.546834   -2.104900
  24 C     6.0000    0    12.011    4.320850    7.218011   -0.872110
  25 H     1.0000    0     1.008    3.181510    7.160355   -2.621742
  26 H     1.0000    0     1.008    2.970393    7.468889    0.699368
  27 C     6.0000    0    12.011    6.081926    9.523885   -0.971530
  28 H     1.0000    0     1.008    7.264138    9.583253    0.756095
  29 H     1.0000    0     1.008    7.457715    9.249306   -2.544009
  30 C     6.0000    0    12.011    4.734168   11.986560   -1.281780
  31 H     1.0000    0     1.008    2.951523   11.996535   -2.342654
  32 C     6.0000    0    12.011    5.999601   14.463137   -0.789657
  33 H     1.0000    0     1.008    7.322213   14.923825   -2.365340
  34 H     1.0000    0     1.008    7.227999   14.300899    0.899416
  35 C     6.0000    0    12.011    4.165199   16.687701   -0.451272
  36 H     1.0000    0     1.008    2.967233   16.844727   -2.156351
  37 H     1.0000    0     1.008    2.866366   16.261108    1.126983
  38 C     6.0000    0    12.011    5.503055   19.205619    0.031224
  39 H     1.0000    0     1.008    6.674230   19.121801    1.755359
  40 H     1.0000    0     1.008    6.763791   19.709896   -1.552480
  41 C     6.0000    0    12.011   10.423215   -0.331566    0.091797
  42 H     1.0000    0     1.008   12.442153   -0.459784    0.209009
  43 H     1.0000    0     1.008   -0.485785  -13.602553    0.354779
  44 H     1.0000    0     1.008    4.139869   20.761905    0.271806
  45 H     1.0000    0     1.008   -1.882936    0.161379   -0.587830

--------------------------------
INTERNAL COORDINATES (ANGSTROEM)
--------------------------------
 C      0   0   0     0.000000000000     0.00000000     0.00000000
 C      1   0   0     4.217267605314     0.00000000     0.00000000
 C      2   1   0     1.404335839355    61.05917944     0.00000000
 C      3   2   1     1.397581289152   117.31855105   359.93081548
 C      4   3   2     1.410457667856   121.69815711     0.11280711
 C      5   4   3     1.417452211844   120.60070249   359.94306814
 C      2   1   3     1.395835449026    60.43048081   179.97823380
 H      4   3   2     1.090263092744   120.59538612   180.10419748
 H      7   2   1     1.090981785792   118.62367839   179.98227717
 C      3   2   1     1.520152664705   119.51119788   179.74922628
 H     10   3   2     1.106152145971   108.20656321    53.65462085
 H     10   3   2     1.106568332075   108.25502794   300.29265110
 C     10   3   2     1.530955288703   116.90996100   176.98913102
 H     13  10   3     1.105722139290   109.66648721   302.49624649
 H     13  10   3     1.105582149477   109.77419113    58.74925706
 C     13  10   3     1.533307519737   112.85800538   180.55849391
 H     16  13  10     1.106046784222   109.22748351   302.30666372
 H     16  13  10     1.106019083694   109.23256118    57.65818003
 C     16  13  10     1.530771518507   113.18292093   179.99942115
 H     19  16  13     1.103750193219   111.27394370    59.69080120
 H     19  16  13     1.103721263703   111.28414851   299.98960799
 C      6   5   4     1.516789682418   119.82821011   179.86898971
 H     22   6   5     1.105931011271   108.23126521   302.70895442
 H     22   6   5     1.105670120289   108.31613910    55.34037549
 C     22   6   5     1.530486753679   116.82974887   179.12097525
 H     25  22   6     1.105288044218   109.95170627   301.81226574
 H     25  22   6     1.104475093840   110.17614524    58.68228741
 C     25  22   6     1.536285203199   112.44463511   180.27562253
 H     28  25  22     1.108224109920   109.67589191   303.25821190
 H     28  25  22     1.115156146016   108.54752561    56.88788539
 C     28  25  22     1.494630551553   114.00612795   179.95834673
 H     31  28  25     1.097755836451   118.06150904   329.04861691
 C     31  28  25     1.494580520597   122.11484849   164.61718009
 H     33  31  28     1.115586911276   110.02797811    74.78797326
 H     33  31  28     1.108528193491   109.59174295   320.32599168
 C     33  31  28     1.536275400507   114.14916441   196.93810627
 H     36  33  31     1.105850040393   108.94728716   302.67732659
 H     36  33  31     1.104934005282   108.94123051    57.87595306
 C     36  33  31     1.530280503978   113.22300645   180.41624551
 H     39  36  33     1.103853937675   111.26410751   300.31032679
 H     39  36  33     1.103923792860   111.30930330    59.97330787
 C      1   2   3     1.216076144828   178.30857588     1.10884777
 H     42   1   5     1.072323332254   179.91234577   284.13399622
 H     19  16  13     1.102145667214   111.51164448   179.82761984
 H     39  36  33     1.102186211315   111.53521094   180.17984320
 H      2   1   3     1.094340127783   179.63013783   183.26556386

---------------------------
INTERNAL COORDINATES (A.U.)
---------------------------
 C      0   0   0     0.000000000000     0.00000000     0.00000000
 C      1   0   0     7.969480807502     0.00000000     0.00000000
 C      2   1   0     2.653810136432    61.05917944     0.00000000
 C      3   2   1     2.641045886390   117.31855105   359.93081548
 C      4   3   2     2.665378715737   121.69815711     0.11280711
 C      5   4   3     2.678596488306   120.60070249   359.94306814
 C      2   1   3     2.637746726678    60.43048081   179.97823380
 H      4   3   2     2.060298659208   120.59538612   180.10419748
 H      7   2   1     2.061656792244   118.62367839   179.98227717
 C      3   2   1     2.872672218043   119.51119788   179.74922628
 H     10   3   2     2.090324618335   108.20656321    53.65462085
 H     10   3   2     2.091111096091   108.25502794   300.29265110
 C     10   3   2     2.893086218928   116.90996100   176.98913102
 H     13  10   3     2.089512023472   109.66648721   302.49624649
 H     13  10   3     2.089247481064   109.77419113    58.74925706
 C     13  10   3     2.897531291385   112.85800538   180.55849391
 H     16  13  10     2.090125513485   109.22748351   302.30666372
 H     16  13  10     2.090073167072   109.23256118    57.65818003
 C     16  13  10     2.892738943585   113.18292093   179.99942115
 H     19  16  13     2.085785585446   111.27394370    59.69080120
 H     19  16  13     2.085730916585   111.28414851   299.98960799
 C      6   5   4     2.866317102528   119.82821011   179.86898971
 H     22   6   5     2.089906734314   108.23126521   302.70895442
 H     22   6   5     2.089413721806   108.31613910    55.34037549
 C     22   6   5     2.892200816048   116.82974887   179.12097525
 H     25  22   6     2.088691702669   109.95170627   301.81226574
 H     25  22   6     2.087155449095   110.17614524    58.68228741
 C     25  22   6     2.903158297642   112.44463511   180.27562253
 H     28  25  22     2.094240062757   109.67589191   303.25821190
 H     28  25  22     2.107339712530   108.54752561    56.88788539
 C     28  25  22     2.824442413826   114.00612795   179.95834673
 H     31  28  25     2.074457892805   118.06150904   329.04861691
 C     31  28  25     2.824347869022   122.11484849   164.61718009
 H     33  31  28     2.108153740899   110.02797811    74.78797326
 H     33  31  28     2.094814697429   109.59174295   320.32599168
 C     33  31  28     2.903139773239   114.14916441   196.93810627
 H     36  33  31     2.089753721529   108.94728716   302.67732659
 H     36  33  31     2.088022666040   108.94123051    57.87595306
 C     36  33  31     2.891811060598   113.22300645   180.41624551
 H     39  36  33     2.085981634057   111.26410751   300.31032679
 H     39  36  33     2.086113641225   111.30930330    59.97330787
 C      1   2   3     2.298050871720   178.30857588     1.10884777
 H     42   1   5     2.026397424974   179.91234577   284.13399622
 H     19  16  13     2.082753470722   111.51164448   179.82761984
 H     39  36  33     2.082830087969   111.53521094   180.17984320
 H      2   1   3     2.068003138871   179.63013783   183.26556386

---------------------
BASIS SET INFORMATION
---------------------
There are 2 groups of distinct atoms

 Group   1 Type C   : 10s5p1d contracted to 6s2p1d pattern {511111/41/1}
 Group   2 Type H   : 6s1p contracted to 4s1p pattern {3111/1}

Atom   0C    basis set group =>   1
Atom   1C    basis set group =>   1
Atom   2C    basis set group =>   1
Atom   3C    basis set group =>   1
Atom   4C    basis set group =>   1
Atom   5C    basis set group =>   1
Atom   6C    basis set group =>   1
Atom   7H    basis set group =>   2
Atom   8H    basis set group =>   2
Atom   9C    basis set group =>   1
Atom  10H    basis set group =>   2
Atom  11H    basis set group =>   2
Atom  12C    basis set group =>   1
Atom  13H    basis set group =>   2
Atom  14H    basis set group =>   2
Atom  15C    basis set group =>   1
Atom  16H    basis set group =>   2
Atom  17H    basis set group =>   2
Atom  18C    basis set group =>   1
Atom  19H    basis set group =>   2
Atom  20H    basis set group =>   2
Atom  21C    basis set group =>   1
Atom  22H    basis set group =>   2
Atom  23H    basis set group =>   2
Atom  24C    basis set group =>   1
Atom  25H    basis set group =>   2
Atom  26H    basis set group =>   2
Atom  27C    basis set group =>   1
Atom  28H    basis set group =>   2
Atom  29H    basis set group =>   2
Atom  30C    basis set group =>   1
Atom  31H    basis set group =>   2
Atom  32C    basis set group =>   1
Atom  33H    basis set group =>   2
Atom  34H    basis set group =>   2
Atom  35C    basis set group =>   1
Atom  36H    basis set group =>   2
Atom  37H    basis set group =>   2
Atom  38C    basis set group =>   1
Atom  39H    basis set group =>   2
Atom  40H    basis set group =>   2
Atom  41C    basis set group =>   1
Atom  42H    basis set group =>   2
Atom  43H    basis set group =>   2
Atom  44H    basis set group =>   2
Atom  45H    basis set group =>   2
---------------------------------
AUXILIARY/J BASIS SET INFORMATION
---------------------------------
There are 2 groups of distinct atoms

 Group   1 Type C   : 17s13p12d2f contracted to 17s13p12d2f pattern {11111111111111111/1111111111111/111111111111/11}
 Group   2 Type H   : 15s6p1d contracted to 15s6p1d pattern {111111111111111/111111/1}

Atom   0C    basis set group =>   1
Atom   1C    basis set group =>   1
Atom   2C    basis set group =>   1
Atom   3C    basis set group =>   1
Atom   4C    basis set group =>   1
Atom   5C    basis set group =>   1
Atom   6C    basis set group =>   1
Atom   7H    basis set group =>   2
Atom   8H    basis set group =>   2
Atom   9C    basis set group =>   1
Atom  10H    basis set group =>   2
Atom  11H    basis set group =>   2
Atom  12C    basis set group =>   1
Atom  13H    basis set group =>   2
Atom  14H    basis set group =>   2
Atom  15C    basis set group =>   1
Atom  16H    basis set group =>   2
Atom  17H    basis set group =>   2
Atom  18C    basis set group =>   1
Atom  19H    basis set group =>   2
Atom  20H    basis set group =>   2
Atom  21C    basis set group =>   1
Atom  22H    basis set group =>   2
Atom  23H    basis set group =>   2
Atom  24C    basis set group =>   1
Atom  25H    basis set group =>   2
Atom  26H    basis set group =>   2
Atom  27C    basis set group =>   1
Atom  28H    basis set group =>   2
Atom  29H    basis set group =>   2
Atom  30C    basis set group =>   1
Atom  31H    basis set group =>   2
Atom  32C    basis set group =>   1
Atom  33H    basis set group =>   2
Atom  34H    basis set group =>   2
Atom  35C    basis set group =>   1
Atom  36H    basis set group =>   2
Atom  37H    basis set group =>   2
Atom  38C    basis set group =>   1
Atom  39H    basis set group =>   2
Atom  40H    basis set group =>   2
Atom  41C    basis set group =>   1
Atom  42H    basis set group =>   2
Atom  43H    basis set group =>   2
Atom  44H    basis set group =>   2
Atom  45H    basis set group =>   2
---------------------------------
AUXILIARY/C BASIS SET INFORMATION
---------------------------------
There are 2 groups of distinct atoms

 Group   1 Type C   : 17s13p12d2f contracted to 17s13p12d2f pattern {11111111111111111/1111111111111/111111111111/11}
 Group   2 Type H   : 15s6p1d contracted to 15s6p1d pattern {111111111111111/111111/1}

Atom   0C    basis set group =>   1
Atom   1C    basis set group =>   1
Atom   2C    basis set group =>   1
Atom   3C    basis set group =>   1
Atom   4C    basis set group =>   1
Atom   5C    basis set group =>   1
Atom   6C    basis set group =>   1
Atom   7H    basis set group =>   2
Atom   8H    basis set group =>   2
Atom   9C    basis set group =>   1
Atom  10H    basis set group =>   2
Atom  11H    basis set group =>   2
Atom  12C    basis set group =>   1
Atom  13H    basis set group =>   2
Atom  14H    basis set group =>   2
Atom  15C    basis set group =>   1
Atom  16H    basis set group =>   2
Atom  17H    basis set group =>   2
Atom  18C    basis set group =>   1
Atom  19H    basis set group =>   2
Atom  20H    basis set group =>   2
Atom  21C    basis set group =>   1
Atom  22H    basis set group =>   2
Atom  23H    basis set group =>   2
Atom  24C    basis set group =>   1
Atom  25H    basis set group =>   2
Atom  26H    basis set group =>   2
Atom  27C    basis set group =>   1
Atom  28H    basis set group =>   2
Atom  29H    basis set group =>   2
Atom  30C    basis set group =>   1
Atom  31H    basis set group =>   2
Atom  32C    basis set group =>   1
Atom  33H    basis set group =>   2
Atom  34H    basis set group =>   2
Atom  35C    basis set group =>   1
Atom  36H    basis set group =>   2
Atom  37H    basis set group =>   2
Atom  38C    basis set group =>   1
Atom  39H    basis set group =>   2
Atom  40H    basis set group =>   2
Atom  41C    basis set group =>   1
Atom  42H    basis set group =>   2
Atom  43H    basis set group =>   2
Atom  44H    basis set group =>   2
Atom  45H    basis set group =>   2
----------------------------------
AUXILIARY/JK BASIS SET INFORMATION
----------------------------------
There are 2 groups of distinct atoms

 Group   1 Type C   : 17s13p12d2f contracted to 17s13p12d2f pattern {11111111111111111/1111111111111/111111111111/11}
 Group   2 Type H   : 15s6p1d contracted to 15s6p1d pattern {111111111111111/111111/1}

Atom   0C    basis set group =>   1
Atom   1C    basis set group =>   1
Atom   2C    basis set group =>   1
Atom   3C    basis set group =>   1
Atom   4C    basis set group =>   1
Atom   5C    basis set group =>   1
Atom   6C    basis set group =>   1
Atom   7H    basis set group =>   2
Atom   8H    basis set group =>   2
Atom   9C    basis set group =>   1
Atom  10H    basis set group =>   2
Atom  11H    basis set group =>   2
Atom  12C    basis set group =>   1
Atom  13H    basis set group =>   2
Atom  14H    basis set group =>   2
Atom  15C    basis set group =>   1
Atom  16H    basis set group =>   2
Atom  17H    basis set group =>   2
Atom  18C    basis set group =>   1
Atom  19H    basis set group =>   2
Atom  20H    basis set group =>   2
Atom  21C    basis set group =>   1
Atom  22H    basis set group =>   2
Atom  23H    basis set group =>   2
Atom  24C    basis set group =>   1
Atom  25H    basis set group =>   2
Atom  26H    basis set group =>   2
Atom  27C    basis set group =>   1
Atom  28H    basis set group =>   2
Atom  29H    basis set group =>   2
Atom  30C    basis set group =>   1
Atom  31H    basis set group =>   2
Atom  32C    basis set group =>   1
Atom  33H    basis set group =>   2
Atom  34H    basis set group =>   2
Atom  35C    basis set group =>   1
Atom  36H    basis set group =>   2
Atom  37H    basis set group =>   2
Atom  38C    basis set group =>   1
Atom  39H    basis set group =>   2
Atom  40H    basis set group =>   2
Atom  41C    basis set group =>   1
Atom  42H    basis set group =>   2
Atom  43H    basis set group =>   2
Atom  44H    basis set group =>   2
Atom  45H    basis set group =>   2


           ************************************************************
           *        Program running with 16 parallel MPI-processes    *
           *              working on a common directory               *
           ************************************************************
------------------------------------------------------------------------------
                           ORCA GTO INTEGRAL CALCULATION
                           -- RI-GTO INTEGRALS CHOSEN --
------------------------------------------------------------------------------
------------------------------------------------------------------------------
                   ___                                                        
                  /   \      - P O W E R E D   B Y -                         
                 /     \                                                     
                 |  |  |   _    _      __       _____    __    __             
                 |  |  |  | |  | |    /  \     |  _  \  |  |  /  |          
                  \  \/   | |  | |   /    \    | | | |  |  | /  /          
                 / \  \   | |__| |  /  /\  \   | |_| |  |  |/  /          
                |  |  |   |  __  | /  /__\  \  |    /   |      \           
                |  |  |   | |  | | |   __   |  |    \   |  |\   \          
                \     /   | |  | | |  |  |  |  | |\  \  |  | \   \       
                 \___/    |_|  |_| |__|  |__|  |_| \__\ |__|  \__/        
                                                                              
                      - O R C A' S   B I G   F R I E N D -                    
                                      &                                       
                       - I N T E G R A L  F E E D E R -                       
                                                                              
 v1 FN, 2020, v2 2021                                                         
------------------------------------------------------------------------------


Reading SHARK input file EPRII_i.SHARKINP.tmp ... ok
----------------------
SHARK INTEGRAL PACKAGE
----------------------

Number of atoms                             ...     46
Number of basis functions                   ...    512
Number of shells                            ...    306
Maximum angular momentum                    ...      2
Integral batch strategy                     ... SHARK/LIBINT Hybrid
RI-J (if used) integral strategy            ... SPLIT-RIJ (Revised 2003 algorithm where possible)
Printlevel                                  ...      1
Contraction scheme used                     ... SEGMENTED contraction
Coulomb Range Separation                    ... NOT USED
Exchange Range Separation                   ... NOT USED
Finite Nucleus Model                        ... NOT USED
Auxiliary Coulomb fitting basis             ... AVAILABLE
   # of basis functions in Aux-J            ...   3496
   # of shells in Aux-J                     ...   1430
   Maximum angular momentum in Aux-J        ...      3
Auxiliary J/K fitting basis                 ... AVAILABLE
   # of basis functions in Aux-JK           ...   3496
   # of shells in Aux-JK                    ...   1430
   Maximum angular momentum in Aux-JK       ...      3
Auxiliary Correlation fitting basis         ... AVAILABLE
   # of basis functions in Aux-C            ...   3496
   # of shells in Aux-C                     ...   1430
   Maximum angular momentum in Aux-C        ...      3
Auxiliary 'external' fitting basis          ... NOT available
Integral threshold                          ...     1.000000e-10
Primitive cut-off                           ...     1.000000e-11
Primitive pair pre-selection threshold      ...     1.000000e-11

Calculating pre-screening integrals         ... done (  0.0 sec) Dimension = 306
Organizing shell pair data                  ... done (  0.1 sec)
Shell pair information
Total number of shell pairs                 ...     46971
Shell pairs after pre-screening             ...     23279
Total number of primitive shell pairs       ...    122156
Primitive shell pairs kept                  ...     43595
          la=0 lb=0:  10974 shell pairs
          la=1 lb=0:   8008 shell pairs
          la=1 lb=1:   1371 shell pairs
          la=2 lb=0:   2068 shell pairs
          la=2 lb=1:    746 shell pairs
          la=2 lb=2:    112 shell pairs

Calculating one electron integrals          ... done (  0.0 sec)
Calculating RI/J V-Matrix + Cholesky decomp.... done (  0.7 sec)
Calculating RI/JK V-Matrix + Cholesky decomp... done (  0.7 sec)
Calculating RI/C V-Matrix + Cholesky decomp.... done (  0.7 sec)
Calculating Nuclear repulsion               ... done (  0.0 sec) ENN=   1246.903824399165 Eh

SHARK setup successfully completed in   2.7 seconds

Maximum memory used throughout the entire GTOINT-calculation: 46.6 MB


           ************************************************************
           *        Program running with 16 parallel MPI-processes    *
           *              working on a common directory               *
           ************************************************************
-------------------------------------------------------------------------------
                                 ORCA SCF
-------------------------------------------------------------------------------

------------
SCF SETTINGS
------------
Hamiltonian:
 Density Functional     Method          .... DFT(GTOs)
 Exchange Functional    Exchange        .... B88
   X-Alpha parameter    XAlpha          ....  0.666667
   Becke's b parameter  XBeta           ....  0.004200
 Correlation Functional Correlation     .... LYP
 LDA part of GGA corr.  LDAOpt          .... VWN-5
 Gradients option       PostSCFGGA      .... off
 Hybrid DFT is turned on
   Fraction HF Exchange ScalHFX         ....  0.200000
   Scaling of DF-GGA-X  ScalDFX         ....  0.720000
   Scaling of DF-GGA-C  ScalDFC         ....  0.810000
   Scaling of DF-LDA-C  ScalLDAC        ....  1.000000
   Perturbative correction              ....  0.000000
   Density functional embedding theory  .... OFF
   NL short-range parameter             ....  4.800000
 RI-approximation to the Coulomb term is turned on
   Number of AuxJ basis functions       .... 3496
   RIJ-COSX (HFX calculated with COS-X)).... on


General Settings:
 Integral files         IntName         .... EPRII_i
 Hartree-Fock type      HFTyp           .... UHF
 Total Charge           Charge          ....    0
 Multiplicity           Mult            ....    2
 Number of Electrons    NEL             ....  141
 Basis Dimension        Dim             ....  512
 Nuclear Repulsion      ENuc            ....   1246.9038243992 Eh

Convergence Acceleration:
 DIIS                   CNVDIIS         .... on
   Start iteration      DIISMaxIt       ....    12
   Startup error        DIISStart       ....  0.200000
   # of expansion vecs  DIISMaxEq       ....     5
   Bias factor          DIISBfac        ....   1.050
   Max. coefficient     DIISMaxC        ....  10.000
 Trust-Rad. Augm. Hess. CNVTRAH         .... auto
   Auto Start mean grad. ratio tolernc. ....  1.125000
   Auto Start start iteration           ....    20
   Auto Start num. interpolation iter.  ....    10
   Max. Number of Micro iterations      ....    16
   Max. Number of Macro iterations      .... Maxiter - #DIIS iter
   Number of Davidson start vectors     ....     2
   Converg. threshold I  (grad. norm)   ....   5.000e-05
   Converg. threshold II (energy diff.) ....   1.000e-06
   Grad. Scal. Fac. for Micro threshold ....   0.100
   Minimum threshold for Micro iter.    ....   0.010
   NR start threshold (gradient norm)   ....   0.001
   Initial trust radius                 ....   0.400
   Minimum AH scaling param. (alpha)    ....   1.000
   Maximum AH scaling param. (alpha)    .... 1000.000
   Orbital update algorithm             .... Taylor
   White noise on init. David. guess    .... on
   Maximum white noise                  ....   0.010
   Quad. conv. algorithm                .... NR
 SOSCF                  CNVSOSCF        .... off
 Level Shifting         CNVShift        .... on
   Level shift para.    LevelShift      ....    0.2500
   Turn off err/grad.   ShiftErr        ....    0.0010
 Zerner damping         CNVZerner       .... off
 Static damping         CNVDamp         .... on
   Fraction old density DampFac         ....    0.7000
   Max. Damping (<1)    DampMax         ....    0.9800
   Min. Damping (>=0)   DampMin         ....    0.0000
   Turn off err/grad.   DampErr         ....    0.1000
 Fernandez-Rico         CNVRico         .... off

SCF Procedure:
 Maximum # iterations   MaxIter         ....   125
 SCF integral mode      SCFMode         .... Direct
   Integral package                     .... SHARK and LIBINT hybrid scheme
 Reset frequency        DirectResetFreq ....    20
 Integral Threshold     Thresh          ....  1.000e-10 Eh
 Primitive CutOff       TCut            ....  1.000e-11 Eh

Convergence Tolerance:
 Convergence Check Mode ConvCheckMode   .... Total+1el-Energy
 Convergence forced     ConvForced      .... 0
 Energy Change          TolE            ....  1.000e-06 Eh
 1-El. energy change                    ....  1.000e-03 Eh
 DIIS Error             TolErr          ....  1.000e-06


Diagonalization of the overlap matrix:
Smallest eigenvalue                        ... 1.520e-04
Time for diagonalization                   ...    0.055 sec
Threshold for overlap eigenvalues          ... 1.000e-08
Number of eigenvalues below threshold      ... 0
Time for construction of square roots      ...    0.042 sec
Total time needed                          ...    0.098 sec

Time for model grid setup =    0.289 sec

------------------------------
INITIAL GUESS: MODEL POTENTIAL
------------------------------
Loading Hartree-Fock densities                     ... done
Calculating cut-offs                               ... done
Initializing the effective Hamiltonian             ... done
Setting up the integral package (SHARK)            ... done
Starting the Coulomb interaction                   ... done (   0.2 sec)
Reading the grid                                   ... done
Mapping shells                                     ... done
Starting the XC term evaluation                    ... done (   0.1 sec)
  promolecular density results
     # of electrons  =    140.991298449
     EX              =   -105.605164597
     EC              =     -4.582281848
     EX+EC           =   -110.187446445
Transforming the Hamiltonian                       ... done (   0.0 sec)
Diagonalizing the Hamiltonian                      ... done (   0.0 sec)
Back transforming the eigenvectors                 ... done (   0.0 sec)
Now organizing SCF variables                       ... done
                      ------------------
                      INITIAL GUESS DONE (   1.0 sec)
                      ------------------
-------------------
DFT GRID GENERATION
-------------------

General Integration Accuracy     IntAcc      ... 4.388
Radial Grid Type                 RadialGrid  ... OptM3 with GC (2021)
Angular Grid (max. ang.)         AngularGrid ... 4 (Lebedev-302)
Angular grid pruning method      GridPruning ... 4 (adaptive)
Weight generation scheme         WeightScheme... Becke
Basis function cutoff            BFCut       ... 1.0000e-10
Integration weight cutoff        WCut        ... 1.0000e-14
Angular grids for H and He will be reduced by one unit
Partially contracted basis set               ... off
Rotationally invariant grid construction     ... off

Total number of grid points                  ...   199722
Total number of batches                      ...     3144
Average number of points per batch           ...       63
Average number of grid points per atom       ...     4342
Time for grid setup =    1.067 sec

--------------------
COSX GRID GENERATION
--------------------

GRIDX 1
-------
General Integration Accuracy     IntAcc      ... 3.816
Radial Grid Type                 RadialGrid  ... OptM3 with GC (2021)
Angular Grid (max. ang.)         AngularGrid ... 1 (Lebedev-50)
Angular grid pruning method      GridPruning ... 4 (adaptive)
Weight generation scheme         WeightScheme... Becke
Basis function cutoff            BFCut       ... 1.0000e-10
Integration weight cutoff        WCut        ... 1.0000e-14
Angular grids for H and He will be reduced by one unit
Partially contracted basis set               ... on
Rotationally invariant grid construction     ... off

Total number of grid points                  ...    25504
Total number of batches                      ...      424
Average number of points per batch           ...       60
Average number of grid points per atom       ...      554
UseSFitting                                  ... on

GRIDX 2
-------
General Integration Accuracy     IntAcc      ... 4.020
Radial Grid Type                 RadialGrid  ... OptM3 with GC (2021)
Angular Grid (max. ang.)         AngularGrid ... 2 (Lebedev-110)
Angular grid pruning method      GridPruning ... 4 (adaptive)
Weight generation scheme         WeightScheme... Becke
Basis function cutoff            BFCut       ... 1.0000e-10
Integration weight cutoff        WCut        ... 1.0000e-14
Angular grids for H and He will be reduced by one unit
Partially contracted basis set               ... on
Rotationally invariant grid construction     ... off

Total number of grid points                  ...    53567
Total number of batches                      ...      862
Average number of points per batch           ...       62
Average number of grid points per atom       ...     1164
UseSFitting                                  ... on

GRIDX 3
-------
General Integration Accuracy     IntAcc      ... 4.338
Radial Grid Type                 RadialGrid  ... OptM3 with GC (2021)
Angular Grid (max. ang.)         AngularGrid ... 3 (Lebedev-194)
Angular grid pruning method      GridPruning ... 4 (adaptive)
Weight generation scheme         WeightScheme... Becke
Basis function cutoff            BFCut       ... 1.0000e-10
Integration weight cutoff        WCut        ... 1.0000e-14
Angular grids for H and He will be reduced by one unit
Partially contracted basis set               ... on
Rotationally invariant grid construction     ... off

Total number of grid points                  ...   116746
Total number of batches                      ...     1847
Average number of points per batch           ...       63
Average number of grid points per atom       ...     2538
UseSFitting                                  ... on

Time for X-Grid setup             =    2.027 sec

--------------
SCF ITERATIONS
--------------
ITER       Energy         Delta-E        Max-DP      RMS-DP      [F,P]     Damp
               ***  Starting incremental Fock matrix formation  ***
  0   -739.2617003051   0.000000000000 0.04775094  0.00071048  0.0795732 0.7000
  1   -739.4920112126  -0.230310907488 0.03446879  0.00054035  0.0426130 0.7000
                               ***Turning on DIIS***
  2   -739.5931147968  -0.101103584249 0.11608312  0.00110352  0.0165431 0.0000
  3   -739.7315638590  -0.138449062179 0.02730023  0.00033214  0.0233724 0.0000
  4   -739.7725667733  -0.041002914262 0.02989375  0.00016215  0.0053372 0.0000
  5   -739.7742496358  -0.001682862560 0.01719545  0.00008075  0.0013229 0.0000
  6   -739.7743939046  -0.000144268730 0.01055534  0.00005200  0.0007163 0.0000
               *** Restarting incremental Fock matrix formation ***
                                   *** Resetting DIIS ***
  7   -739.7746379631  -0.000244058511 0.00277577  0.00001590  0.0012097 0.0000
  8   -739.7746357468   0.000002216275 0.00059556  0.00000454  0.0014596 0.0000
  9   -739.7746453989  -0.000009652095 0.00041895  0.00000279  0.0004885 0.0000
 10   -739.7746466564  -0.000001257479 0.00008608  0.00000073  0.0000635 0.0000
                 **** Energy Check signals convergence ****

               *****************************************************
               *                     SUCCESS                       *
               *           SCF CONVERGED AFTER  11 CYCLES          *
               *****************************************************

Old exchange energy                            =    -21.584163313 Eh
New exchange energy                            =    -21.584136924 Eh
Exchange energy change after final integration =      0.000026389 Eh
Total energy after final integration           =   -739.774620526 Eh
Final COS-X integration done in                =     7.210 sec

----------------
TOTAL SCF ENERGY
----------------

Total Energy       :         -739.77462053 Eh          -20130.29083 eV

Components:
Nuclear Repulsion  :         1246.90382440 Eh           33929.97803 eV
Electronic Energy  :        -1986.67844492 Eh          -54060.26886 eV
One Electron Energy:        -3471.71409758 Eh          -94470.14336 eV
Two Electron Energy:         1485.03565266 Eh           40409.87451 eV
Max COSX asymmetry :            0.00000268 Eh               0.00007 eV

Virial components:
Potential Energy   :        -1473.61262431 Eh          -40099.03810 eV
Kinetic Energy     :          733.83800378 Eh           19968.74727 eV
Virial Ratio       :            2.00808982


DFT components:
N(Alpha)           :       71.000037445595 electrons
N(Beta)            :       70.000027429620 electrons
N(Total)           :      141.000064875215 electrons
E(X)               :      -85.553086836539 Eh       
E(C)               :       -5.417688277172 Eh       
E(XC)              :      -90.970775113711 Eh       
DFET-embed. en.    :        0.000000000000 Eh       

---------------
SCF CONVERGENCE
---------------

  Last Energy change         ...   -2.5846e-07  Tolerance :   1.0000e-06
  Last MAX-Density change    ...    0.0000e+00  Tolerance :   1.0000e-05
  Last RMS-Density change    ...    0.0000e+00  Tolerance :   1.0000e-06
  Last DIIS Error            ...    3.2397e-05  Tolerance :   1.0000e-06

             **** THE GBW FILE WAS UPDATED (EPRII_i.gbw) ****
             **** DENSITY EPRII_i.scfp WAS UPDATED ****
             **** ENERGY FILE WAS UPDATED (EPRII_i.en.tmp) ****
----------------------
UHF SPIN CONTAMINATION
----------------------

Warning: in a DFT calculation there is little theoretical justification to 
         calculate <S**2> as in Hartree-Fock theory. We will do it anyways
         but you should keep in mind that the values have only limited relevance

Expectation value of <S**2>     :     0.754007
Ideal value S*(S+1) for S=0.5   :     0.750000
Deviation                       :     0.004007

             **** THE GBW FILE WAS UPDATED (EPRII_i.gbw) ****
             **** DENSITY EPRII_i.scfp WAS UPDATED ****
----------------
ORBITAL ENERGIES
----------------
                 SPIN UP ORBITALS
  NO   OCC          E(Eh)            E(eV) 
   0   1.0000     -10.215433      -277.9761 
   1   1.0000     -10.205082      -277.6944 
   2   1.0000     -10.201541      -277.5980 
   3   1.0000     -10.200956      -277.5821 
   4   1.0000     -10.193535      -277.3802 
   5   1.0000     -10.192547      -277.3533 
   6   1.0000     -10.192068      -277.3403 
   7   1.0000     -10.191286      -277.3190 
   8   1.0000     -10.188644      -277.2471 
   9   1.0000     -10.185117      -277.1511 
  10   1.0000     -10.184489      -277.1340 
  11   1.0000     -10.183600      -277.1098 
  12   1.0000     -10.182614      -277.0830 
  13   1.0000     -10.181959      -277.0652 
  14   1.0000     -10.181698      -277.0581 
  15   1.0000     -10.181583      -277.0550 
  16   1.0000     -10.179764      -277.0055 
  17   1.0000     -10.173139      -276.8252 
  18   1.0000     -10.171254      -276.7739 
  19   1.0000      -0.863018       -23.4839 
  20   1.0000      -0.811190       -22.0736 
  21   1.0000      -0.801243       -21.8029 
  22   1.0000      -0.782342       -21.2886 
  23   1.0000      -0.776510       -21.1299 
  24   1.0000      -0.757155       -20.6032 
  25   1.0000      -0.729680       -19.8556 
  26   1.0000      -0.722420       -19.6581 
  27   1.0000      -0.703242       -19.1362 
  28   1.0000      -0.670669       -18.2498 
  29   1.0000      -0.637982       -17.3604 
  30   1.0000      -0.617911       -16.8142 
  31   1.0000      -0.608023       -16.5451 
  32   1.0000      -0.583655       -15.8821 
  33   1.0000      -0.576264       -15.6809 
  34   1.0000      -0.560623       -15.2553 
  35   1.0000      -0.559471       -15.2240 
  36   1.0000      -0.526390       -14.3238 
  37   1.0000      -0.493560       -13.4305 
  38   1.0000      -0.469855       -12.7854 
  39   1.0000      -0.469523       -12.7764 
  40   1.0000      -0.466650       -12.6982 
  41   1.0000      -0.459794       -12.5116 
  42   1.0000      -0.453361       -12.3366 
  43   1.0000      -0.429027       -11.6744 
  44   1.0000      -0.425747       -11.5852 
  45   1.0000      -0.421734       -11.4760 
  46   1.0000      -0.418747       -11.3947 
  47   1.0000      -0.412531       -11.2255 
  48   1.0000      -0.405945       -11.0463 
  49   1.0000      -0.403712       -10.9856 
  50   1.0000      -0.382962       -10.4209 
  51   1.0000      -0.378810       -10.3079 
  52   1.0000      -0.373703       -10.1690 
  53   1.0000      -0.363236        -9.8842 
  54   1.0000      -0.360858        -9.8195 
  55   1.0000      -0.352633        -9.5956 
  56   1.0000      -0.348988        -9.4964 
  57   1.0000      -0.346886        -9.4392 
  58   1.0000      -0.332604        -9.0506 
  59   1.0000      -0.330127        -8.9832 
  60   1.0000      -0.327044        -8.8993 
  61   1.0000      -0.325246        -8.8504 
  62   1.0000      -0.322709        -8.7813 
  63   1.0000      -0.321488        -8.7481 
  64   1.0000      -0.320041        -8.7088 
  65   1.0000      -0.311388        -8.4733 
  66   1.0000      -0.299180        -8.1411 
  67   1.0000      -0.272017        -7.4020 
  68   1.0000      -0.240962        -6.5569 
  69   1.0000      -0.223246        -6.0748 
  70   1.0000      -0.179520        -4.8850 
  71   0.0000      -0.032413        -0.8820 
  72   0.0000       0.000635         0.0173 
  73   0.0000       0.020859         0.5676 
  74   0.0000       0.023670         0.6441 
  75   0.0000       0.026137         0.7112 
  76   0.0000       0.028568         0.7774 
  77   0.0000       0.031998         0.8707 
  78   0.0000       0.038555         1.0491 
  79   0.0000       0.044685         1.2159 
  80   0.0000       0.045139         1.2283 
  81   0.0000       0.051470         1.4006 
  82   0.0000       0.056872         1.5476 
  83   0.0000       0.064065         1.7433 
  84   0.0000       0.078041         2.1236 
  85   0.0000       0.081400         2.2150 
  86   0.0000       0.083499         2.2721 
  87   0.0000       0.091201         2.4817 
  88   0.0000       0.109916         2.9910 
  89   0.0000       0.115568         3.1448 
  90   0.0000       0.118558         3.2261 
  91   0.0000       0.145304         3.9539 
  92   0.0000       0.149550         4.0695 
  93   0.0000       0.151723         4.1286 
  94   0.0000       0.162101         4.4110 
  95   0.0000       0.164677         4.4811 
  96   0.0000       0.174246         4.7415 
  97   0.0000       0.178343         4.8530 
  98   0.0000       0.180889         4.9222 
  99   0.0000       0.185057         5.0357 
 100   0.0000       0.191210         5.2031 
 101   0.0000       0.191702         5.2165 
 102   0.0000       0.197314         5.3692 
 103   0.0000       0.197768         5.3815 
 104   0.0000       0.198549         5.4028 
 105   0.0000       0.201359         5.4793 
 106   0.0000       0.205985         5.6051 
 107   0.0000       0.217363         5.9147 
 108   0.0000       0.218069         5.9340 
 109   0.0000       0.219728         5.9791 
 110   0.0000       0.222811         6.0630 
 111   0.0000       0.225182         6.1275 
 112   0.0000       0.231498         6.2994 
 113   0.0000       0.238276         6.4838 
 114   0.0000       0.242438         6.5971 
 115   0.0000       0.249279         6.7832 
 116   0.0000       0.252339         6.8665 
 117   0.0000       0.253603         6.9009 
 118   0.0000       0.256978         6.9927 
 119   0.0000       0.259653         7.0655 
 120   0.0000       0.260966         7.1013 
 121   0.0000       0.275228         7.4893 
 122   0.0000       0.277277         7.5451 
 123   0.0000       0.280292         7.6271 
 124   0.0000       0.281065         7.6482 
 125   0.0000       0.283317         7.7094 
 126   0.0000       0.290983         7.9181 
 127   0.0000       0.296241         8.0611 
 128   0.0000       0.297439         8.0937 
 129   0.0000       0.297726         8.1015 
 130   0.0000       0.303433         8.2568 
 131   0.0000       0.307138         8.3577 
 132   0.0000       0.313008         8.5174 
 133   0.0000       0.315233         8.5779 
 134   0.0000       0.318551         8.6682 
 135   0.0000       0.320408         8.7188 
 136   0.0000       0.322229         8.7683 
 137   0.0000       0.330329         8.9887 
 138   0.0000       0.330593         8.9959 
 139   0.0000       0.332629         9.0513 
 140   0.0000       0.336419         9.1544 
 141   0.0000       0.348279         9.4772 
 142   0.0000       0.350949         9.5498 
 143   0.0000       0.353226         9.6118 
 144   0.0000       0.361698         9.8423 
 145   0.0000       0.366529         9.9738 
 146   0.0000       0.370213        10.0740 
 147   0.0000       0.373209        10.1555 
 148   0.0000       0.374615        10.1938 
 149   0.0000       0.381942        10.3932 
 150   0.0000       0.391186        10.6447 
 151   0.0000       0.394463        10.7339 
 152   0.0000       0.401013        10.9121 
 153   0.0000       0.405231        11.0269 
 154   0.0000       0.414532        11.2800 
 155   0.0000       0.418858        11.3977 
 156   0.0000       0.420583        11.4447 
 157   0.0000       0.424557        11.5528 
 158   0.0000       0.431718        11.7476 
 159   0.0000       0.440315        11.9816 
 160   0.0000       0.448122        12.1940 
 161   0.0000       0.452370        12.3096 
 162   0.0000       0.456433        12.4202 
 163   0.0000       0.463328        12.6078 
 164   0.0000       0.468360        12.7447 
 165   0.0000       0.472745        12.8640 
 166   0.0000       0.480919        13.0865 
 167   0.0000       0.489283        13.3141 
 168   0.0000       0.491935        13.3862 
 169   0.0000       0.505039        13.7428 
 170   0.0000       0.508481        13.8365 
 171   0.0000       0.513005        13.9596 
 172   0.0000       0.518419        14.1069 
 173   0.0000       0.524158        14.2631 
 174   0.0000       0.535121        14.5614 
 175   0.0000       0.541305        14.7297 
 176   0.0000       0.546103        14.8602 
 177   0.0000       0.552673        15.0390 
 178   0.0000       0.561619        15.2824 
 179   0.0000       0.571985        15.5645 
 180   0.0000       0.576445        15.6859 
 181   0.0000       0.585600        15.9350 
 182   0.0000       0.589507        16.0413 
 183   0.0000       0.595809        16.2128 
 184   0.0000       0.599254        16.3065 
 185   0.0000       0.616413        16.7734 
 186   0.0000       0.623946        16.9784 
 187   0.0000       0.650711        17.7067 
 188   0.0000       0.657243        17.8845 
 189   0.0000       0.677380        18.4324 
 190   0.0000       0.688471        18.7342 
 191   0.0000       0.697118        18.9696 
 192   0.0000       0.719819        19.5873 
 193   0.0000       0.759714        20.6729 
 194   0.0000       0.765157        20.8210 
 195   0.0000       0.772522        21.0214 
 196   0.0000       0.783070        21.3084 
 197   0.0000       0.791649        21.5419 
 198   0.0000       0.797993        21.7145 
 199   0.0000       0.827460        22.5163 
 200   0.0000       0.831945        22.6384 
 201   0.0000       0.838698        22.8221 
 202   0.0000       0.845902        23.0182 
 203   0.0000       0.849301        23.1107 
 204   0.0000       0.855174        23.2705 
 205   0.0000       0.858157        23.3516 
 206   0.0000       0.861225        23.4351 
 207   0.0000       0.871977        23.7277 
 208   0.0000       0.879409        23.9299 
 209   0.0000       0.881126        23.9766 
 210   0.0000       0.882402        24.0114 
 211   0.0000       0.895958        24.3803 
 212   0.0000       0.898175        24.4406 
 213   0.0000       0.905683        24.6449 
 214   0.0000       0.915591        24.9145 
 215   0.0000       0.918112        24.9831 
 216   0.0000       0.923072        25.1181 
 217   0.0000       0.929499        25.2929 
 218   0.0000       0.932000        25.3610 
 219   0.0000       0.936113        25.4729 
 220   0.0000       0.945833        25.7374 
 221   0.0000       0.947436        25.7810 
 222   0.0000       0.951611        25.8947 
 223   0.0000       0.958168        26.0731 
 224   0.0000       0.958757        26.0891 
 225   0.0000       0.969328        26.3768 
 226   0.0000       0.983169        26.7534 
 227   0.0000       0.991858        26.9898 
 228   0.0000       0.995623        27.0923 
 229   0.0000       0.997621        27.1466 
 230   0.0000       0.999945        27.2099 
 231   0.0000       1.005920        27.3725 
 232   0.0000       1.012109        27.5409 
 233   0.0000       1.019515        27.7424 
 234   0.0000       1.032739        28.1023 
 235   0.0000       1.034467        28.1493 
 236   0.0000       1.038693        28.2643 
 237   0.0000       1.043885        28.4056 
 238   0.0000       1.051647        28.6168 
 239   0.0000       1.059533        28.8314 
 240   0.0000       1.079051        29.3625 
 241   0.0000       1.086951        29.5774 
 242   0.0000       1.088202        29.6115 
 243   0.0000       1.090331        29.6694 
 244   0.0000       1.107120        30.1263 
 245   0.0000       1.110331        30.2136 
 246   0.0000       1.118813        30.4444 
 247   0.0000       1.126810        30.6621 
 248   0.0000       1.134367        30.8677 
 249   0.0000       1.144560        31.1451 
 250   0.0000       1.166820        31.7508 
 251   0.0000       1.178967        32.0813 
 252   0.0000       1.180347        32.1189 
 253   0.0000       1.186074        32.2747 
 254   0.0000       1.194115        32.4935 
 255   0.0000       1.198103        32.6020 
 256   0.0000       1.200594        32.6698 
 257   0.0000       1.203838        32.7581 
 258   0.0000       1.211009        32.9532 
 259   0.0000       1.220348        33.2074 
 260   0.0000       1.240026        33.7428 
 261   0.0000       1.242173        33.8013 
 262   0.0000       1.253074        34.0979 
 263   0.0000       1.262833        34.3634 
 264   0.0000       1.278935        34.8016 
 265   0.0000       1.284450        34.9517 
 266   0.0000       1.289427        35.0871 
 267   0.0000       1.299211        35.3533 
 268   0.0000       1.301252        35.4089 
 269   0.0000       1.322272        35.9808 
 270   0.0000       1.334091        36.3025 
 271   0.0000       1.338343        36.4182 
 272   0.0000       1.358694        36.9719 
 273   0.0000       1.368701        37.2443 
 274   0.0000       1.376334        37.4519 
 275   0.0000       1.380732        37.5716 
 276   0.0000       1.386495        37.7284 
 277   0.0000       1.408450        38.3259 
 278   0.0000       1.411582        38.4111 
 279   0.0000       1.426148        38.8075 
 280   0.0000       1.431387        38.9500 
 281   0.0000       1.434306        39.0294 
 282   0.0000       1.442778        39.2600 
 283   0.0000       1.454573        39.5809 
 284   0.0000       1.460255        39.7355 
 285   0.0000       1.482968        40.3536 
 286   0.0000       1.488769        40.5115 
 287   0.0000       1.501269        40.8516 
 288   0.0000       1.509796        41.0836 
 289   0.0000       1.516173        41.2572 
 290   0.0000       1.521623        41.4055 
 291   0.0000       1.534069        41.7441 
 292   0.0000       1.535611        41.7861 
 293   0.0000       1.545225        42.0477 
 294   0.0000       1.548310        42.1316 
 295   0.0000       1.551917        42.2298 
 296   0.0000       1.558761        42.4161 
 297   0.0000       1.561226        42.4831 
 298   0.0000       1.578974        42.9661 
 299   0.0000       1.581064        43.0229 
 300   0.0000       1.586831        43.1799 
 301   0.0000       1.590306        43.2744 
 302   0.0000       1.594151        43.3791 
 303   0.0000       1.604808        43.6690 
 304   0.0000       1.607829        43.7512 
 305   0.0000       1.610495        43.8238 
 306   0.0000       1.612203        43.8703 
 307   0.0000       1.618156        44.0323 
 308   0.0000       1.620471        44.0952 
 309   0.0000       1.639875        44.6233 
 310   0.0000       1.652726        44.9730 
 311   0.0000       1.658401        45.1274 
 312   0.0000       1.671695        45.4891 
 313   0.0000       1.675853        45.6023 
 314   0.0000       1.678695        45.6796 
 315   0.0000       1.686460        45.8909 
 316   0.0000       1.687328        45.9145 
 317   0.0000       1.692124        46.0450 
 318   0.0000       1.701183        46.2915 
 319   0.0000       1.705772        46.4164 
 320   0.0000       1.715855        46.6908 
 321   0.0000       1.720463        46.8162 
 322   0.0000       1.732479        47.1432 
 323   0.0000       1.743029        47.4302 
 324   0.0000       1.744142        47.4605 
 325   0.0000       1.750758        47.6405 
 326   0.0000       1.758291        47.8455 
 327   0.0000       1.760627        47.9091 
 328   0.0000       1.772580        48.2344 
 329   0.0000       1.776811        48.3495 
 330   0.0000       1.780942        48.4619 
 331   0.0000       1.787463        48.6393 
 332   0.0000       1.789136        48.6849 
 333   0.0000       1.804549        49.1043 
 334   0.0000       1.811637        49.2972 
 335   0.0000       1.816320        49.4246 
 336   0.0000       1.825184        49.6658 
 337   0.0000       1.840370        50.0790 
 338   0.0000       1.848595        50.3028 
 339   0.0000       1.854772        50.4709 
 340   0.0000       1.881402        51.1956 
 341   0.0000       1.898162        51.6516 
 342   0.0000       1.905388        51.8482 
 343   0.0000       1.919509        52.2325 
 344   0.0000       1.928121        52.4668 
 345   0.0000       1.938926        52.7609 
 346   0.0000       1.942320        52.8532 
 347   0.0000       1.947303        52.9888 
 348   0.0000       1.954988        53.1979 
 349   0.0000       1.970601        53.6228 
 350   0.0000       1.992715        54.2245 
 351   0.0000       2.006427        54.5977 
 352   0.0000       2.038875        55.4806 
 353   0.0000       2.045181        55.6522 
 354   0.0000       2.051784        55.8319 
 355   0.0000       2.066516        56.2328 
 356   0.0000       2.075999        56.4908 
 357   0.0000       2.097835        57.0850 
 358   0.0000       2.106423        57.3187 
 359   0.0000       2.117478        57.6195 
 360   0.0000       2.124344        57.8063 
 361   0.0000       2.150472        58.5173 
 362   0.0000       2.166992        58.9668 
 363   0.0000       2.178766        59.2872 
 364   0.0000       2.181579        59.3638 
 365   0.0000       2.197639        59.8008 
 366   0.0000       2.209043        60.1111 
 367   0.0000       2.223007        60.4911 
 368   0.0000       2.234156        60.7945 
 369   0.0000       2.242555        61.0230 
 370   0.0000       2.254751        61.3549 
 371   0.0000       2.260417        61.5091 
 372   0.0000       2.265041        61.6349 
 373   0.0000       2.282658        62.1143 
 374   0.0000       2.288883        62.2837 
 375   0.0000       2.294562        62.4382 
 376   0.0000       2.301620        62.6303 
 377   0.0000       2.313673        62.9583 
 378   0.0000       2.318317        63.0846 
 379   0.0000       2.328212        63.3539 
 380   0.0000       2.329594        63.3915 
 381   0.0000       2.342259        63.7361 
 382   0.0000       2.348188        63.8974 
 383   0.0000       2.353055        64.0299 
 384   0.0000       2.379596        64.7521 
 385   0.0000       2.401838        65.3573 
 386   0.0000       2.414808        65.7103 
 387   0.0000       2.418370        65.8072 
 388   0.0000       2.426975        66.0413 
 389   0.0000       2.435939        66.2853 
 390   0.0000       2.442419        66.4616 
 391   0.0000       2.449379        66.6510 
 392   0.0000       2.455247        66.8107 
 393   0.0000       2.468700        67.1768 
 394   0.0000       2.472311        67.2750 
 395   0.0000       2.475696        67.3671 
 396   0.0000       2.482731        67.5585 
 397   0.0000       2.496822        67.9420 
 398   0.0000       2.506861        68.2152 
 399   0.0000       2.516795        68.4855 
 400   0.0000       2.521740        68.6200 
 401   0.0000       2.546293        69.2882 
 402   0.0000       2.552656        69.4613 
 403   0.0000       2.563813        69.7649 
 404   0.0000       2.567995        69.8787 
 405   0.0000       2.579626        70.1952 
 406   0.0000       2.586970        70.3950 
 407   0.0000       2.593781        70.5804 
 408   0.0000       2.613464        71.1160 
 409   0.0000       2.621567        71.3365 
 410   0.0000       2.638089        71.7861 
 411   0.0000       2.645513        71.9881 
 412   0.0000       2.695513        73.3486 
 413   0.0000       2.710631        73.7600 
 414   0.0000       2.748903        74.8014 
 415   0.0000       2.784150        75.7606 
 416   0.0000       2.867993        78.0420 
 417   0.0000       2.914629        79.3111 
 418   0.0000       2.968184        80.7684 
 419   0.0000       3.293676        89.6255 
 420   0.0000       4.983715       135.6138 
 421   0.0000       4.985325       135.6576 
 422   0.0000       5.004194       136.1710 
 423   0.0000       5.006924       136.2453 
 424   0.0000       5.007914       136.2723 
 425   0.0000       5.010022       136.3296 
 426   0.0000       5.017356       136.5292 
 427   0.0000       5.027107       136.7945 
 428   0.0000       5.031122       136.9038 
 429   0.0000       5.034114       136.9852 
 430   0.0000       5.039808       137.1401 
 431   0.0000       5.046289       137.3165 
 432   0.0000       5.051552       137.4597 
 433   0.0000       5.132111       139.6518 
 434   0.0000       5.159803       140.4054 
 435   0.0000       5.184680       141.0823 
 436   0.0000       5.230903       142.3401 
 437   0.0000       5.251346       142.8964 
 438   0.0000       5.259758       143.1253 
 439   0.0000       5.268503       143.3633 
 440   0.0000       5.283466       143.7704 
 441   0.0000       5.298482       144.1790 
 442   0.0000       5.302592       144.2909 
 443   0.0000       5.308293       144.4460 
 444   0.0000       5.324305       144.8817 
 445   0.0000       5.336187       145.2050 
 446   0.0000       5.356342       145.7535 
 447   0.0000       5.378022       146.3434 
 448   0.0000       5.390979       146.6960 
 449   0.0000       5.407892       147.1562 
 450   0.0000       5.430716       147.7773 
 451   0.0000       5.451020       148.3298 
 452   0.0000       5.504050       149.7728 
 453   0.0000       5.516779       150.1192 
 454   0.0000       5.582730       151.9138 
 455   0.0000       5.602625       152.4552 
 456   0.0000       5.631606       153.2438 
 457   0.0000       5.669595       154.2775 
 458   0.0000       5.728738       155.8869 
 459   0.0000       5.742673       156.2661 
 460   0.0000       5.797364       157.7543 
 461   0.0000       5.832873       158.7205 
 462   0.0000       5.864641       159.5850 
 463   0.0000       5.895252       160.4180 
 464   0.0000       6.061814       164.9503 
 465   0.0000       6.321866       172.0267 
 466   0.0000      29.617523       805.9338 
 467   0.0000      29.713978       808.5584 
 468   0.0000      29.809607       811.1606 
 469   0.0000      29.854128       812.3721 
 470   0.0000      29.880710       813.0955 
 471   0.0000      29.922578       814.2348 
 472   0.0000      29.965929       815.4144 
 473   0.0000      29.997301       816.2680 
 474   0.0000      30.032901       817.2368 
 475   0.0000      30.075998       818.4095 
 476   0.0000      30.107501       819.2668 
 477   0.0000      30.131094       819.9088 
 478   0.0000      30.157968       820.6400 
 479   0.0000      30.206693       821.9659 
 480   0.0000      30.243427       822.9655 
 481   0.0000      30.270454       823.7009 
 482   0.0000      30.300442       824.5170 
 483   0.0000      30.364836       826.2692 
 484   0.0000      30.548379       831.2637 
 485   0.0000      36.612162       996.2676 
 486   0.0000      36.613128       996.2939 
 487   0.0000      36.626978       996.6707 
 488   0.0000      36.627656       996.6892 
 489   0.0000      36.635857       996.9124 
 490   0.0000      36.636330       996.9252 
 491   0.0000      36.646319       997.1970 
 492   0.0000      36.651363       997.3343 
 493   0.0000      36.660368       997.5793 
 494   0.0000      36.662620       997.6406 
 495   0.0000      36.671648       997.8863 
 496   0.0000      36.677605       998.0484 
 497   0.0000      36.759830      1000.2858 
 498   0.0000      36.784975      1000.9700 
 499   0.0000      36.829639      1002.1854 
 500   0.0000      36.844782      1002.5975 
 501   0.0000      36.861047      1003.0401 
 502   0.0000      36.872635      1003.3554 
 503   0.0000      36.874153      1003.3967 
 504   0.0000      36.879352      1003.5382 
 505   0.0000      36.889006      1003.8009 
 506   0.0000      36.929627      1004.9062 
 507   0.0000      36.933019      1004.9985 
 508   0.0000      36.945266      1005.3318 
 509   0.0000      36.973940      1006.1121 
 510   0.0000      36.993323      1006.6395 
 511   0.0000      37.018194      1007.3163 

                 SPIN DOWN ORBITALS
  NO   OCC          E(Eh)            E(eV) 
   0   1.0000     -10.215427      -277.9759 
   1   1.0000     -10.205090      -277.6946 
   2   1.0000     -10.201536      -277.5979 
   3   1.0000     -10.200957      -277.5821 
   4   1.0000     -10.193537      -277.3802 
   5   1.0000     -10.192549      -277.3534 
   6   1.0000     -10.192067      -277.3402 
   7   1.0000     -10.191281      -277.3188 
   8   1.0000     -10.188644      -277.2471 
   9   1.0000     -10.184488      -277.1340 
  10   1.0000     -10.184474      -277.1336 
  11   1.0000     -10.182614      -277.0830 
  12   1.0000     -10.182575      -277.0820 
  13   1.0000     -10.181959      -277.0652 
  14   1.0000     -10.181334      -277.0482 
  15   1.0000     -10.179490      -276.9980 
  16   1.0000     -10.173139      -276.8252 
  17   1.0000     -10.171423      -276.7785 
  18   1.0000     -10.171243      -276.7736 
  19   1.0000      -0.862998       -23.4834 
  20   1.0000      -0.809478       -22.0270 
  21   1.0000      -0.795289       -21.6409 
  22   1.0000      -0.781092       -21.2546 
  23   1.0000      -0.776346       -21.1254 
  24   1.0000      -0.755607       -20.5611 
  25   1.0000      -0.725341       -19.7375 
  26   1.0000      -0.722385       -19.6571 
  27   1.0000      -0.699903       -19.0453 
  28   1.0000      -0.669894       -18.2287 
  29   1.0000      -0.636950       -17.3323 
  30   1.0000      -0.617315       -16.7980 
  31   1.0000      -0.605922       -16.4880 
  32   1.0000      -0.582370       -15.8471 
  33   1.0000      -0.575573       -15.6621 
  34   1.0000      -0.559271       -15.2185 
  35   1.0000      -0.545079       -14.8324 
  36   1.0000      -0.526074       -14.3152 
  37   1.0000      -0.493227       -13.4214 
  38   1.0000      -0.469795       -12.7838 
  39   1.0000      -0.467708       -12.7270 
  40   1.0000      -0.463334       -12.6080 
  41   1.0000      -0.459469       -12.5028 
  42   1.0000      -0.451370       -12.2824 
  43   1.0000      -0.426723       -11.6117 
  44   1.0000      -0.424380       -11.5480 
  45   1.0000      -0.420791       -11.4503 
  46   1.0000      -0.418586       -11.3903 
  47   1.0000      -0.412245       -11.2178 
  48   1.0000      -0.401900       -10.9363 
  49   1.0000      -0.398981       -10.8568 
  50   1.0000      -0.380650       -10.3580 
  51   1.0000      -0.375717       -10.2238 
  52   1.0000      -0.372947       -10.1484 
  53   1.0000      -0.362320        -9.8592 
  54   1.0000      -0.359282        -9.7766 
  55   1.0000      -0.351716        -9.5707 
  56   1.0000      -0.347554        -9.4574 
  57   1.0000      -0.345417        -9.3993 
  58   1.0000      -0.331617        -9.0237 
  59   1.0000      -0.328090        -8.9278 
  60   1.0000      -0.325728        -8.8635 
  61   1.0000      -0.324247        -8.8232 
  62   1.0000      -0.322501        -8.7757 
  63   1.0000      -0.320495        -8.7211 
  64   1.0000      -0.318879        -8.6771 
  65   1.0000      -0.308734        -8.4011 
  66   1.0000      -0.299143        -8.1401 
  67   1.0000      -0.272010        -7.4018 
  68   1.0000      -0.240917        -6.5557 
  69   1.0000      -0.223187        -6.0732 
  70   0.0000      -0.037233        -1.0132 
  71   0.0000      -0.032296        -0.8788 
  72   0.0000       0.000737         0.0201 
  73   0.0000       0.020932         0.5696 
  74   0.0000       0.024018         0.6536 
  75   0.0000       0.026714         0.7269 
  76   0.0000       0.028700         0.7810 
  77   0.0000       0.032780         0.8920 
  78   0.0000       0.038930         1.0593 
  79   0.0000       0.044976         1.2239 
  80   0.0000       0.045386         1.2350 
  81   0.0000       0.051514         1.4018 
  82   0.0000       0.057348         1.5605 
  83   0.0000       0.064228         1.7477 
  84   0.0000       0.078060         2.1241 
  85   0.0000       0.081556         2.2193 
  86   0.0000       0.083718         2.2781 
  87   0.0000       0.092124         2.5068 
  88   0.0000       0.110837         3.0160 
  89   0.0000       0.115749         3.1497 
  90   0.0000       0.119223         3.2442 
  91   0.0000       0.145476         3.9586 
  92   0.0000       0.149595         4.0707 
  93   0.0000       0.152319         4.1448 
  94   0.0000       0.162579         4.4240 
  95   0.0000       0.165707         4.5091 
  96   0.0000       0.175516         4.7760 
  97   0.0000       0.179311         4.8793 
  98   0.0000       0.181702         4.9444 
  99   0.0000       0.186557         5.0765 
 100   0.0000       0.192006         5.2247 
 101   0.0000       0.195911         5.3310 
 102   0.0000       0.197960         5.3868 
 103   0.0000       0.198157         5.3921 
 104   0.0000       0.198718         5.4074 
 105   0.0000       0.202293         5.5047 
 106   0.0000       0.206810         5.6276 
 107   0.0000       0.218204         5.9376 
 108   0.0000       0.219766         5.9801 
 109   0.0000       0.220046         5.9877 
 110   0.0000       0.224028         6.0961 
 111   0.0000       0.225505         6.1363 
 112   0.0000       0.231804         6.3077 
 113   0.0000       0.239037         6.5045 
 114   0.0000       0.243131         6.6159 
 115   0.0000       0.249757         6.7962 
 116   0.0000       0.252550         6.8722 
 117   0.0000       0.253709         6.9038 
 118   0.0000       0.257867         7.0169 
 119   0.0000       0.260717         7.0945 
 120   0.0000       0.267822         7.2878 
 121   0.0000       0.277160         7.5419 
 122   0.0000       0.278379         7.5751 
 123   0.0000       0.281333         7.6555 
 124   0.0000       0.283779         7.7220 
 125   0.0000       0.285639         7.7726 
 126   0.0000       0.292230         7.9520 
 127   0.0000       0.297027         8.0825 
 128   0.0000       0.298491         8.1223 
 129   0.0000       0.298927         8.1342 
 130   0.0000       0.304934         8.2977 
 131   0.0000       0.309284         8.4160 
 132   0.0000       0.313299         8.5253 
 133   0.0000       0.317617         8.6428 
 134   0.0000       0.321410         8.7460 
 135   0.0000       0.321862         8.7583 
 136   0.0000       0.325960         8.8698 
 137   0.0000       0.331023         9.0076 
 138   0.0000       0.332468         9.0469 
 139   0.0000       0.334352         9.0982 
 140   0.0000       0.337575         9.1859 
 141   0.0000       0.351070         9.5531 
 142   0.0000       0.351616         9.5680 
 143   0.0000       0.354621         9.6497 
 144   0.0000       0.362290         9.8584 
 145   0.0000       0.366971         9.9858 
 146   0.0000       0.371884        10.1195 
 147   0.0000       0.373613        10.1665 
 148   0.0000       0.377291        10.2666 
 149   0.0000       0.383984        10.4487 
 150   0.0000       0.392019        10.6674 
 151   0.0000       0.395595        10.7647 
 152   0.0000       0.405485        11.0338 
 153   0.0000       0.409212        11.1352 
 154   0.0000       0.417500        11.3608 
 155   0.0000       0.420665        11.4469 
 156   0.0000       0.420950        11.4546 
 157   0.0000       0.426247        11.5988 
 158   0.0000       0.432647        11.7729 
 159   0.0000       0.442044        12.0286 
 160   0.0000       0.448841        12.2136 
 161   0.0000       0.452826        12.3220 
 162   0.0000       0.456662        12.4264 
 163   0.0000       0.464326        12.6349 
 164   0.0000       0.471407        12.8276 
 165   0.0000       0.480882        13.0855 
 166   0.0000       0.485493        13.2109 
 167   0.0000       0.489459        13.3189 
 168   0.0000       0.493265        13.4224 
 169   0.0000       0.506540        13.7837 
 170   0.0000       0.509046        13.8518 
 171   0.0000       0.516682        14.0596 
 172   0.0000       0.518678        14.1140 
 173   0.0000       0.524499        14.2723 
[...]
  Y           0.3330451            0.4149399           -0.8467029
  Z          -0.6578856            0.7455372            0.1065871

Notes:  (1) The A matrix conforms to the "SAI" spin Hamiltonian convention.
        (2) Tensor is right-handed.

 -----------------------------------------------------------
 Nucleus  43H : A:ISTP=    1 I=  0.5 P=533.5514 MHz/au**3
                Q:ISTP=    2 I=  1.0 Q=  0.0029 barn     
 -----------------------------------------------------------
 Solving for nuclear perturbation:
Forming RHS of the CP-SCF equations         ... 
Calc. nucleus orbit integrals (SHARK)       ... done

------------------------------------------------------------------------------
                           ORCA CP-SCF CALCULATION
------------------------------------------------------------------------------

Input orbitals are from        ... EPRII_i.gbw
Input Perturbation             ... EPRII_i.pin.tmp
Wavefunction output            ... EPRII_i.pout.tmp
Perturbation mode              ... Imaginary perturbation
Solver                         ... POPLE
Max. number of iterations      ... 64
Convergence tolerance          ... 1.000e-03
Integral handling              ... Direct
DFT GridXC                     ... 1
COSX GridX                     ... 1
COSX IntAccX                   ... 3.067
COSX Algorithm                 ... Auto
Number of perturbations        ... 3
Number of operators            ... 2
Orbital ranges used for CP-SCF:
 Operator 0:  Orbitals   0... 70  to  71...511
 Operator 1:  Orbitals   0... 69  to  70...511
Variables per perturbation     ... 62251
DFT calculation                         ... on
XC functional terms                     ... off
Hybrid DFT                              ... on
   Exchange mixing (SCF)                ...  0.200
   Exchange mixing (CP-SCF)             ...  0.200
   GGA exch. scaling(SCF)               ...  0.720
   GGA exch. scaling (CP-SCF)           ...  0.720
   GGA corr. scaling (SCF)              ...  0.810
   GGA corr. scaling (CP-SCF)           ...  0.810

CP-SCF GRID
-----------

General Integration Accuracy     IntAcc      ... 3.467
Radial Grid Type                 RadialGrid  ... OptM3 with GC (2021)
Angular Grid (max. ang.)         AngularGrid ... 1 (Lebedev-50)
Angular grid pruning method      GridPruning ... 4 (adaptive)
Weight generation scheme         WeightScheme... Becke
Basis function cutoff            BFCut       ... 1.0000e-10
Integration weight cutoff        WCut        ... 1.0000e-14
Angular grids for H and He will be reduced by one unit
Partially contracted basis set               ... off
Rotationally invariant grid construction     ... off

Total number of grid points                  ...    27924
Total number of batches                      ...      456
Average number of points per batch           ...       61
Average number of grid points per atom       ...      607

CP-SCF GRIDX
------------

General Integration Accuracy     IntAcc      ... 3.067
Radial Grid Type                 RadialGrid  ... OptM3 with GC (2021)
Angular Grid (max. ang.)         AngularGrid ... 1 (Lebedev-50)
Angular grid pruning method      GridPruning ... 4 (adaptive)
Weight generation scheme         WeightScheme... Becke
Basis function cutoff            BFCut       ... 1.0000e-10
Integration weight cutoff        WCut        ... 1.0000e-14
Angular grids for H and He will be reduced by one unit
Partially contracted basis set               ... on
Rotationally invariant grid construction     ... off

Total number of grid points                  ...    13278
Total number of batches                      ...      237
Average number of points per batch           ...       56
Average number of grid points per atom       ...      289

Memory available               ... 877.2 MB
Memory needed per perturbation ...  15.3 MB
Perturbations treated per batch... 3
Number of batches              ... 1
     CP-SCF ITERATION   0:   3.6976e-02 (   1.8 sec   0/  3 done)
     CP-SCF ITERATION   1:   5.5980e-04 (   1.8 sec   3/  3 done)
                    *** THE CP-SCF HAS CONVERGED ***

Forming final perturbed densities           ... done
Transforming perturbed density to AO basis  ... done

 Raw HFC matrix (all values in MHz): 
 -----------------------------------
                -0.0259               0.0181              -0.0012
                 0.0181               0.0554              -0.0049
                -0.0012              -0.0049              -0.0294

 A(FC)           0.0000               0.0000               0.0000
 A(SD)          -0.0296              -0.0299               0.0595
 A(ORB+DIA)      0.0000               0.0000               0.0000    A(PC) =   0.0000
 A(ORB)          0.0000              -0.0000               0.0000    A(PC) =   0.0000
 A(DIA)          0.0000               0.0000               0.0000    A(PC) =   0.0000
             ----------           ----------           ----------
 A(Tot)         -0.0296              -0.0298               0.0595    A(iso)=    0.0000
 Orientation: 
  X           0.7280343            0.6534205           -0.2073829
  Y          -0.1930229           -0.0948881           -0.9765953
  Z          -0.6578056            0.7510246            0.0570434

Notes:  (1) The A matrix conforms to the "SAI" spin Hamiltonian convention.
        (2) Tensor is right-handed.

 -----------------------------------------------------------
 Nucleus  44H : A:ISTP=    1 I=  0.5 P=533.5514 MHz/au**3
                Q:ISTP=    2 I=  1.0 Q=  0.0029 barn     
 -----------------------------------------------------------
 Solving for nuclear perturbation:
Forming RHS of the CP-SCF equations         ... 
Calc. nucleus orbit integrals (SHARK)       ... done

------------------------------------------------------------------------------
                           ORCA CP-SCF CALCULATION
------------------------------------------------------------------------------

Input orbitals are from        ... EPRII_i.gbw
Input Perturbation             ... EPRII_i.pin.tmp
Wavefunction output            ... EPRII_i.pout.tmp
Perturbation mode              ... Imaginary perturbation
Solver                         ... POPLE
Max. number of iterations      ... 64
Convergence tolerance          ... 1.000e-03
Integral handling              ... Direct
DFT GridXC                     ... 1
COSX GridX                     ... 1
COSX IntAccX                   ... 3.067
COSX Algorithm                 ... Auto
Number of perturbations        ... 3
Number of operators            ... 2
Orbital ranges used for CP-SCF:
 Operator 0:  Orbitals   0... 70  to  71...511
 Operator 1:  Orbitals   0... 69  to  70...511
Variables per perturbation     ... 62251
DFT calculation                         ... on
XC functional terms                     ... off
Hybrid DFT                              ... on
   Exchange mixing (SCF)                ...  0.200
   Exchange mixing (CP-SCF)             ...  0.200
   GGA exch. scaling(SCF)               ...  0.720
   GGA exch. scaling (CP-SCF)           ...  0.720
   GGA corr. scaling (SCF)              ...  0.810
   GGA corr. scaling (CP-SCF)           ...  0.810

CP-SCF GRID
-----------

General Integration Accuracy     IntAcc      ... 3.467
Radial Grid Type                 RadialGrid  ... OptM3 with GC (2021)
Angular Grid (max. ang.)         AngularGrid ... 1 (Lebedev-50)
Angular grid pruning method      GridPruning ... 4 (adaptive)
Weight generation scheme         WeightScheme... Becke
Basis function cutoff            BFCut       ... 1.0000e-10
Integration weight cutoff        WCut        ... 1.0000e-14
Angular grids for H and He will be reduced by one unit
Partially contracted basis set               ... off
Rotationally invariant grid construction     ... off

Total number of grid points                  ...    27924
Total number of batches                      ...      456
Average number of points per batch           ...       61
Average number of grid points per atom       ...      607

CP-SCF GRIDX
------------

General Integration Accuracy     IntAcc      ... 3.067
Radial Grid Type                 RadialGrid  ... OptM3 with GC (2021)
Angular Grid (max. ang.)         AngularGrid ... 1 (Lebedev-50)
Angular grid pruning method      GridPruning ... 4 (adaptive)
Weight generation scheme         WeightScheme... Becke
Basis function cutoff            BFCut       ... 1.0000e-10
Integration weight cutoff        WCut        ... 1.0000e-14
Angular grids for H and He will be reduced by one unit
Partially contracted basis set               ... on
Rotationally invariant grid construction     ... off

Total number of grid points                  ...    13278
Total number of batches                      ...      237
Average number of points per batch           ...       56
Average number of grid points per atom       ...      289

Memory available               ... 876.7 MB
Memory needed per perturbation ...  15.3 MB
Perturbations treated per batch... 3
Number of batches              ... 1
     CP-SCF ITERATION   0:   3.6841e-02 (   1.8 sec   0/  3 done)
     CP-SCF ITERATION   1:   5.1264e-04 (   1.8 sec   3/  3 done)
                    *** THE CP-SCF HAS CONVERGED ***

Forming final perturbed densities           ... done
Transforming perturbed density to AO basis  ... done

 Raw HFC matrix (all values in MHz): 
 -----------------------------------
                -0.9267              -0.2461              -0.1382
                -0.2461               1.0785               0.3329
                -0.1382               0.3328              -1.0187

 A(FC)          -0.2890              -0.2890              -0.2890
 A(SD)          -0.6136              -0.8385               1.4521
 A(ORB+DIA)     -0.0001              -0.0002               0.0006    A(PC) =   0.0001
 A(ORB)          0.0000              -0.0002               0.0004    A(PC) =   0.0001
 A(DIA)         -0.0001              -0.0000               0.0001    A(PC) =   0.0000
             ----------           ----------           ----------
 A(Tot)         -0.9027              -1.1278               1.1636    A(iso)=   -0.2890
 Orientation: 
  X          -0.8557101            0.5019520           -0.1257155
  Y          -0.1873241           -0.0740233            0.9795051
  Z           0.4823587            0.8617219            0.1573702

Notes:  (1) The A matrix conforms to the "SAI" spin Hamiltonian convention.
        (2) Tensor is right-handed.

 -----------------------------------------------------------
 Nucleus  45H : A:ISTP=    1 I=  0.5 P=533.5514 MHz/au**3
                Q:ISTP=    2 I=  1.0 Q=  0.0029 barn     
 -----------------------------------------------------------
 Solving for nuclear perturbation:
Forming RHS of the CP-SCF equations         ... 
Calc. nucleus orbit integrals (SHARK)       ... done

------------------------------------------------------------------------------
                           ORCA CP-SCF CALCULATION
------------------------------------------------------------------------------

Input orbitals are from        ... EPRII_i.gbw
Input Perturbation             ... EPRII_i.pin.tmp
Wavefunction output            ... EPRII_i.pout.tmp
Perturbation mode              ... Imaginary perturbation
Solver                         ... POPLE
Max. number of iterations      ... 64
Convergence tolerance          ... 1.000e-03
Integral handling              ... Direct
DFT GridXC                     ... 1
COSX GridX                     ... 1
COSX IntAccX                   ... 3.067
COSX Algorithm                 ... Auto
Number of perturbations        ... 3
Number of operators            ... 2
Orbital ranges used for CP-SCF:
 Operator 0:  Orbitals   0... 70  to  71...511
 Operator 1:  Orbitals   0... 69  to  70...511
Variables per perturbation     ... 62251
DFT calculation                         ... on
XC functional terms                     ... off
Hybrid DFT                              ... on
   Exchange mixing (SCF)                ...  0.200
   Exchange mixing (CP-SCF)             ...  0.200
   GGA exch. scaling(SCF)               ...  0.720
   GGA exch. scaling (CP-SCF)           ...  0.720
   GGA corr. scaling (SCF)              ...  0.810
   GGA corr. scaling (CP-SCF)           ...  0.810

CP-SCF GRID
-----------

General Integration Accuracy     IntAcc      ... 3.467
Radial Grid Type                 RadialGrid  ... OptM3 with GC (2021)
Angular Grid (max. ang.)         AngularGrid ... 1 (Lebedev-50)
Angular grid pruning method      GridPruning ... 4 (adaptive)
Weight generation scheme         WeightScheme... Becke
Basis function cutoff            BFCut       ... 1.0000e-10
Integration weight cutoff        WCut        ... 1.0000e-14
Angular grids for H and He will be reduced by one unit
Partially contracted basis set               ... off
Rotationally invariant grid construction     ... off

Total number of grid points                  ...    27924
Total number of batches                      ...      456
Average number of points per batch           ...       61
Average number of grid points per atom       ...      607

CP-SCF GRIDX
------------

General Integration Accuracy     IntAcc      ... 3.067
Radial Grid Type                 RadialGrid  ... OptM3 with GC (2021)
Angular Grid (max. ang.)         AngularGrid ... 1 (Lebedev-50)
Angular grid pruning method      GridPruning ... 4 (adaptive)
Weight generation scheme         WeightScheme... Becke
Basis function cutoff            BFCut       ... 1.0000e-10
Integration weight cutoff        WCut        ... 1.0000e-14
Angular grids for H and He will be reduced by one unit
Partially contracted basis set               ... on
Rotationally invariant grid construction     ... off

Total number of grid points                  ...    13278
Total number of batches                      ...      237
Average number of points per batch           ...       56
Average number of grid points per atom       ...      289

Memory available               ... 876.2 MB
Memory needed per perturbation ...  15.3 MB
Perturbations treated per batch... 3
Number of batches              ... 1
     CP-SCF ITERATION   0:   4.3413e-02 (   1.9 sec   0/  3 done)
     CP-SCF ITERATION   1:   1.6785e-03 (   1.9 sec   1/  3 done)
     CP-SCF ITERATION   2:   7.8181e-05 (   1.6 sec   3/  3 done)
                    *** THE CP-SCF HAS CONVERGED ***

Forming final perturbed densities           ... done
Transforming perturbed density to AO basis  ... done

 Raw HFC matrix (all values in MHz): 
 -----------------------------------
                -0.0469               0.2676              -0.0124
                 0.2676               0.2733              -0.0163
                -0.0124              -0.0162              -0.2004

 A(FC)           0.0086               0.0086               0.0086
 A(SD)          -0.2055              -0.2115               0.4170
 A(ORB+DIA)      0.0000               0.0000               0.0001    A(PC) =   0.0001
 A(ORB)          0.0000              -0.0000               0.0001    A(PC) =   0.0000
 A(DIA)          0.0000               0.0000               0.0000    A(PC) =   0.0000
             ----------           ----------           ----------
 A(Tot)         -0.1968              -0.2029               0.4258    A(iso)=    0.0087
 Orientation: 
  X          -0.7210199            0.4867931            0.4931155
  Y           0.4292405           -0.2448768            0.8693607
  Z           0.5439513            0.8384914           -0.0323903

Notes:  (1) The A matrix conforms to the "SAI" spin Hamiltonian convention.
        (2) Tensor is right-handed.


--------------------------------------------------------------------------------
----------------------------------------------------------------------------
                           ORCA EULER ANGLE PROGRAM
----------------------------------------------------------------------------

Only g-tensor available        -->  using g-tensor as reference tensor

Reference tensor               ...  g

g-tensor ordering              ...  |g_min> --> |gx>
                                    |g_mid> --> |gy>
                                    |g_max> --> |gz>

A- and EFG-tensor ordering     ...  the axes |Ax>, |Qx>, |Ay>, etc. are assigned
                                    such that the Euler rotation is minimal. You
                                    can find the respective eigenvalues as Ax,
                                    EFGx, Ay, etc. in the tables below.
                                    The relation of |Ax>, |Ay>,  etc. to Amin, Amid, etc.
                                    (as printed in the ORCA EPR/NMR CALCULATION Output)
                                    is obtained in the detailed printout.

Euler rotation around          ...  z - y - z
   First rotation              -->  by alpha around z
   Second rotation             -->  by beta around y'
   Third rotation              -->  by gamma around z''
   Positive / Negative angle   -->  clockwise / counterclockwise rotation

Plot EFG-tensors                    (-)
Plot HFC-tensors                    (-)
Detailed Printout                   (-)

-------------------------------------------------------------------------
          Euler rotation of hyperfine tensor to g-tensor
-------------------------------------------------------------------------

-------------------------------------------------------------------
 Atom  |   Alpha    Beta    Gamma   |   Ax       Ay       Az 
       |          [degrees]         |           [MHz]         
-------------------------------------------------------------------
  7H      152.0     37.4   -164.9      -0.12     0.27    -0.11
  8H     -161.4     35.8    150.4      -0.76     1.34    -0.72
 10H     -166.0     23.5    158.6      -0.06     0.22    -0.06
 11H       -3.1     35.3    -16.2      -0.06     0.22    -0.06
 13H       14.5     34.3    -16.5      -0.07     0.14    -0.07
 14H       17.3     41.6    -27.1      -0.07     0.14    -0.07
 16H        2.8     29.6    -18.8      -0.05     0.09    -0.05
 17H       -3.0     28.4     -5.6      -0.05     0.09    -0.05
 19H       21.9     32.3    -31.4      -0.04     0.07    -0.04
 20H       17.6     30.6    -20.3      -0.04     0.07    -0.04
 22H       84.9     36.5   -101.4      -0.33     2.79    -0.30
 23H       50.2     32.5    -41.5       0.14     3.12    -0.42
 25H     -124.7     10.5    131.4      -4.47     3.68    -4.65
 26H        3.6     40.5    -29.8      -4.57     4.48    -6.03
 28H     -110.0     24.5     67.2      41.77    42.55    55.78
 29H      -89.2     44.7    123.0     131.40   129.29   142.32
 31H       55.6     18.9    -54.8     -59.44   -95.64   -20.27
 33H      -48.4     23.3     21.0     131.81   142.77   129.74
 34H     -128.7     49.1    150.4      38.51    52.47    39.33
 36H       95.0     40.0   -104.9      -4.53     3.66    -4.68
 37H       47.1     34.1    -11.8      -4.62     4.41    -6.14
 39H      -21.1     18.1     33.6      -0.26     2.75    -0.27
 40H       18.7     23.7    -21.9       0.18     3.03    -0.33
 42H      -64.7     43.1     94.3      -0.18    -0.18     0.34
 43H       10.9     29.2    -20.0      -0.03     0.06    -0.03
 44H       29.9     39.7    -15.3      -0.90     1.16    -1.13
 45H      -19.4     37.5      0.3      -0.20     0.43    -0.20
-------------------------------------------------------------------


Maximum memory used throughout the entire EPRNMR-calculation: 217.0 MB

Timings for individual modules:

Sum of individual times         ...     3818.416 sec (=  63.640 min)
GTO integral calculation        ...        4.963 sec (=   0.083 min)   0.1 %
Spin-Orbit-Coupling Matrices    ...       10.744 sec (=   0.179 min)   0.3 %
SCF iterations                  ...       79.524 sec (=   1.325 min)   2.1 %
EPR/NMR calculation             ...     3723.185 sec (=  62.053 min)  97.5 %
                             ****ORCA TERMINATED NORMALLY****
TOTAL RUN TIME: 0 days 1 hours 3 minutes 42 seconds 572 msec
