
                                 *****************
                                 * O   R   C   A *
                                 *****************

                                            #,                                       
                                            ###                                      
                                            ####                                     
                                            #####                                    
                                            ######                                   
                                           ########,                                 
                                     ,,################,,,,,                         
                               ,,#################################,,                 
                          ,,##########################################,,             
                       ,#########################################, ''#####,          
                    ,#############################################,,   '####,        
                  ,##################################################,,,,####,       
                ,###########''''           ''''###############################       
              ,#####''   ,,,,##########,,,,          '''####'''          '####       
            ,##' ,,,,###########################,,,                        '##       
           ' ,,###''''                  '''############,,,                           
         ,,##''                                '''############,,,,        ,,,,,,###''
      ,#''                                            '''#######################'''  
     '                                                          ''''####''''         
             ,#######,   #######,   ,#######,      ##                                
            ,#'     '#,  ##    ##  ,#'     '#,    #''#        ######   ,####,        
            ##       ##  ##   ,#'  ##            #'  '#       #        #'  '#        
            ##       ##  #######   ##           ,######,      #####,   #    #        
            '#,     ,#'  ##    ##  '#,     ,#' ,#      #,         ##   #,  ,#        
             '#######'   ##     ##  '#######'  #'      '#     #####' # '####'        



                  #######################################################
                  #                        -***-                        #
                  #          Department of theory and spectroscopy      #
                  #    Directorship and core code : Frank Neese         #
                  #        Max Planck Institute fuer Kohlenforschung    #
                  #                Kaiser Wilhelm Platz 1               #
                  #                 D-45470 Muelheim/Ruhr               #
                  #                      Germany                        #
                  #                                                     #
                  #                  All rights reserved                #
                  #                        -***-                        #
                  #######################################################


                         Program Version 5.0.4 -  RELEASE  -


 With contributions from (in alphabetic order):
   Daniel Aravena         : Magnetic Suceptibility
   Michael Atanasov       : Ab Initio Ligand Field Theory (pilot matlab implementation)
   Alexander A. Auer      : GIAO ZORA, VPT2 properties, NMR spectrum
   Ute Becker             : Parallelization
   Giovanni Bistoni       : ED, misc. LED, open-shell LED, HFLD
   Martin Brehm           : Molecular dynamics
   Dmytro Bykov           : SCF Hessian
   Vijay G. Chilkuri      : MRCI spin determinant printing, contributions to CSF-ICE
   Dipayan Datta          : RHF DLPNO-CCSD density
   Achintya Kumar Dutta   : EOM-CC, STEOM-CC
   Dmitry Ganyushin       : Spin-Orbit,Spin-Spin,Magnetic field MRCI
   Miquel Garcia          : C-PCM and meta-GGA Hessian, CC/C-PCM, Gaussian charge scheme
   Yang Guo               : DLPNO-NEVPT2, F12-NEVPT2, CIM, IAO-localization
   Andreas Hansen         : Spin unrestricted coupled pair/coupled cluster methods
   Benjamin Helmich-Paris : MC-RPA, TRAH-SCF, COSX integrals
   Lee Huntington         : MR-EOM, pCC
   Robert Izsak           : Overlap fitted RIJCOSX, COSX-SCS-MP3, EOM
   Marcus Kettner         : VPT2
   Christian Kollmar      : KDIIS, OOCD, Brueckner-CCSD(T), CCSD density, CASPT2, CASPT2-K
   Simone Kossmann        : Meta GGA functionals, TD-DFT gradient, OOMP2, MP2 Hessian
   Martin Krupicka        : Initial AUTO-CI
   Lucas Lang             : DCDCAS
   Marvin Lechner         : AUTO-CI (C++ implementation), FIC-MRCC
   Dagmar Lenk            : GEPOL surface, SMD
   Dimitrios Liakos       : Extrapolation schemes; Compound Job, initial MDCI parallelization
   Dimitrios Manganas     : Further ROCIS development; embedding schemes
   Dimitrios Pantazis     : SARC Basis sets
   Anastasios Papadopoulos: AUTO-CI, single reference methods and gradients
   Taras Petrenko         : DFT Hessian,TD-DFT gradient, ASA, ECA, R-Raman, ABS, FL, XAS/XES, NRVS
   Peter Pinski           : DLPNO-MP2, DLPNO-MP2 Gradient
   Christoph Reimann      : Effective Core Potentials
   Marius Retegan         : Local ZFS, SOC
   Christoph Riplinger    : Optimizer, TS searches, QM/MM, DLPNO-CCSD(T), (RO)-DLPNO pert. Triples
   Tobias Risthaus        : Range-separated hybrids, TD-DFT gradient, RPA, STAB
   Michael Roemelt        : Original ROCIS implementation
   Masaaki Saitow         : Open-shell DLPNO-CCSD energy and density
   Barbara Sandhoefer     : DKH picture change effects
   Avijit Sen             : IP-ROCIS
   Kantharuban Sivalingam : CASSCF convergence, NEVPT2, FIC-MRCI
   Bernardo de Souza      : ESD, SOC TD-DFT
   Georgi Stoychev        : AutoAux, RI-MP2 NMR, DLPNO-MP2 response
   Willem Van den Heuvel  : Paramagnetic NMR
   Boris Wezisla          : Elementary symmetry handling
   Frank Wennmohs         : Technical directorship


 We gratefully acknowledge several colleagues who have allowed us to
 interface, adapt or use parts of their codes:
   Stefan Grimme, W. Hujo, H. Kruse, P. Pracht,  : VdW corrections, initial TS optimization,
                  C. Bannwarth, S. Ehlert          DFT functionals, gCP, sTDA/sTD-DF
   Ed Valeev, F. Pavosevic, A. Kumar             : LibInt (2-el integral package), F12 methods
   Garnet Chan, S. Sharma, J. Yang, R. Olivares  : DMRG
   Ulf Ekstrom                                   : XCFun DFT Library
   Mihaly Kallay                                 : mrcc  (arbitrary order and MRCC methods)
   Jiri Pittner, Ondrej Demel                    : Mk-CCSD
   Frank Weinhold                                : gennbo (NPA and NBO analysis)
   Christopher J. Cramer and Donald G. Truhlar   : smd solvation model
   Lars Goerigk                                  : TD-DFT with DH, B97 family of functionals
   V. Asgeirsson, H. Jonsson                     : NEB implementation
   FAccTs GmbH                                   : IRC, NEB, NEB-TS, DLPNO-Multilevel, CI-OPT
                                                   MM, QMMM, 2- and 3-layer-ONIOM, Crystal-QMMM,
                                                   LR-CPCM, SF, NACMEs, symmetry and pop. for TD-DFT,
                                                   nearIR, NL-DFT gradient (VV10), updates on ESD,
                                                   ML-optimized integration grids
   S Lehtola, MJT Oliveira, MAL Marques          : LibXC Library
   Liviu Ungur et al                             : ANISO software


 Your calculation uses the libint2 library for the computation of 2-el integrals
 For citations please refer to: http://libint.valeyev.net

 Your ORCA version has been built with support for libXC version: 5.1.0
 For citations please refer to: https://tddft.org/programs/libxc/

 This ORCA versions uses:
   CBLAS   interface :  Fast vector & matrix operations
   LAPACKE interface :  Fast linear algebra routines
   SCALAPACK package :  Parallel linear algebra routines
   Shared memory     :  Shared parallel matrices
   BLAS/LAPACK       :  OpenBLAS 0.3.15  USE64BITINT DYNAMIC_ARCH NO_AFFINITY SkylakeX SINGLE_THREADED
        Core in use  :  SkylakeX
   Copyright (c) 2011-2014, The OpenBLAS Project




***************************************
The coordinates will be read from file: model.xyz
***************************************


================================================================================

----- Orbital basis set information -----
Your calculation utilizes the basis: cc-pVDZ 
       H, B-Ne : Obtained from the ccRepo (grant-hill.group.shef.ac.uk/ccrepo) Feb. 2017
                 T. H. Dunning, Jr., J. Chem. Phys. 90, 1007 (1989)
            He : Obtained from the ccRepo (grant-hill.group.shef.ac.uk/ccrepo) Feb. 2017
                 D. E. Woon, T. H. Dunning, Jr., J. Chem. Phys. 100, 2975 (1994)
  Li-Be, Na-Mg : Obtained from the ccRepo (grant-hill.group.shef.ac.uk/ccrepo) Feb. 2017
                 B. P. Prascher, D. E. Woon, K. A. Peterson, T. H. Dunning, Jr., A. K. Wilson, Theor. Chem. Acc. 128, 69 (2011)
         Al-Ar : Obtained from the ccRepo (grant-hill.group.shef.ac.uk/ccrepo) Feb. 2017
                 D. E. Woon, T. H. Dunning, Jr., J. Chem. Phys. 98, 1358 (1993)
            Ca : Obtained from the Peterson Research Group Website (tyr0.chem.wsu.edu/~kipeters) Feb. 2017
                 J. Koput, K. A. Peterson, J. Phys. Chem. 106, 9595 (2002)
         Sc-Zn : Obtained from the ccRepo (grant-hill.group.shef.ac.uk/ccrepo) Feb. 2017
                 N. B. Balabanov, K. A. Peterson, J. Chem. Phys. 123, 064107 (2005)
                 N. B. Balabanov, K. A. Peterson, J. Chem. Phys. 125, 074110 (2006)
         Ga-Kr : Obtained from the ccRepo (grant-hill.group.shef.ac.uk/ccrepo) Feb. 2017
                 A. K. Wilson, D. E. Woon, K. A. Peterson, T. H. Dunning, Jr., J. Chem. Phys. 110, 7667 (1999)

----- AuxJ basis set information -----
Your calculation utilizes the auxiliary basis: def2/J
   F. Weigend, Phys. Chem. Chem. Phys. 8, 1057 (2006).

================================================================================
                                        WARNINGS
                       Please study these warnings very carefully!
================================================================================


WARNING: your system is open-shell and RHF/RKS was chosen
  ===> : WILL SWITCH to UHF/UKS


WARNING: Geometry Optimization
  ===> : Switching off AutoStart
         For restart on a previous wavefunction, please use MOREAD

INFO   : the flag for use of the SHARK integral package has been found!

================================================================================
                                       INPUT FILE
================================================================================
NAME = opt.inp
|  1> ! B3LYP cc-pVDZ OPT
|  2> %pal nprocs 16 end
|  3> *XYZFile 0 2 model.xyz
|  4> 
|  5>                          ****END OF INPUT****
================================================================================

                       *****************************
                       * Geometry Optimization Run *
                       *****************************

Geometry optimization settings:
Update method            Update   .... BFGS
Choice of coordinates    CoordSys .... Z-matrix Internals
Initial Hessian          InHess   .... Almoef's Model

Convergence Tolerances:
Energy Change            TolE     ....  5.0000e-06 Eh
Max. Gradient            TolMAXG  ....  3.0000e-04 Eh/bohr
RMS Gradient             TolRMSG  ....  1.0000e-04 Eh/bohr
Max. Displacement        TolMAXD  ....  4.0000e-03 bohr
RMS Displacement         TolRMSD  ....  2.0000e-03 bohr
Strict Convergence                ....  False
------------------------------------------------------------------------------
                        ORCA OPTIMIZATION COORDINATE SETUP
------------------------------------------------------------------------------

The optimization will be done in new redundant internal coordinates
Making redundant internal coordinates   ...  (new redundants) done
Evaluating the initial hessian          ...  (Almloef) done
Evaluating the coordinates              ...  done
Calculating the B-matrix                .... done
Calculating the G-matrix                .... done
Diagonalizing the G-matrix              .... done
Small eigenvalue found = 8.670e-04
Small eigenvalue found = 3.896e-03
Small eigenvalue found = 4.297e-03
Small eigenvalue found = 9.833e-03
Small eigenvalue found = 1.237e-02
Small eigenvalue found = 2.165e-02
Small eigenvalue found = 2.601e-02
Small eigenvalue found = 2.788e-02
The first mode is                       ....  110
The number of degrees of freedom        ....  132

    -----------------------------------------------------------------
                    Redundant Internal Coordinates


    -----------------------------------------------------------------
         Definition                    Initial Value    Approx d2E/dq
    -----------------------------------------------------------------
      1. B(C   2,C   1)                  1.4186         0.562434   
      2. B(C   3,C   2)                  1.3955         0.612309   
      3. B(C   4,C   0)                  1.4327         0.534111   
      4. B(C   4,C   3)                  1.4092         0.582143   
      5. B(C   5,C   4)                  1.4187         0.562353   
      6. B(C   6,C   5)                  1.3955         0.612339   
      7. B(C   6,C   1)                  1.4093         0.581936   
      8. B(H   7,C   3)                  1.0898         0.360325   
      9. B(H   8,C   6)                  1.0898         0.360349   
     10. B(C   9,C   2)                  1.5167         0.392304   
     11. B(H  10,C   9)                  1.1053         0.340443   
     12. B(H  11,C   9)                  1.1059         0.339644   
     13. B(C  12,C   9)                  1.5310         0.372270   
     14. B(H  13,C  12)                  1.1057         0.339927   
     15. B(H  14,C  12)                  1.1057         0.339946   
     16. B(C  15,C  12)                  1.5337         0.368529   
     17. B(H  16,C  15)                  1.1058         0.339755   
     18. B(H  17,C  15)                  1.1058         0.339731   
     19. B(C  18,C  15)                  1.5307         0.372667   
     20. B(H  19,C  18)                  1.1037         0.342388   
     21. B(H  20,C  18)                  1.1037         0.342423   
     22. B(C  21,C   5)                  1.5167         0.392278   
     23. B(H  22,C  21)                  1.1059         0.339664   
     24. B(H  23,C  21)                  1.1051         0.340639   
     25. B(C  24,C  21)                  1.5312         0.371949   
     26. B(H  25,C  24)                  1.1055         0.340149   
     27. B(H  26,C  24)                  1.1055         0.340217   
     28. B(C  27,C  24)                  1.5333         0.369022   
     29. B(H  28,C  27)                  1.1065         0.338938   
     30. B(H  29,C  27)                  1.1066         0.338835   
     31. B(C  30,C  27)                  1.5327         0.369829   
     32. B(H  31,C  30)                  1.1068         0.338576   
     33. B(C  32,C  30)                  1.5325         0.370139   
     34. B(H  33,C  32)                  1.1071         0.338193   
     35. B(H  34,C  32)                  1.1070         0.338318   
     36. B(C  35,C  32)                  1.5330         0.369485   
     37. B(H  36,C  35)                  1.1061         0.339403   
     38. B(H  37,C  35)                  1.1061         0.339367   
     39. B(C  38,C  35)                  1.5309         0.372385   
     40. B(H  39,C  38)                  1.1039         0.342230   
     41. B(H  40,C  38)                  1.1039         0.342211   
     42. B(C  41,C   0)                  1.2161         1.183410   
     43. B(H  42,C  41)                  1.0724         0.384084   
     44. B(H  43,C  18)                  1.1021         0.344433   
     45. B(H  44,C  38)                  1.1024         0.344093   
     46. B(H  45,C   1)                  1.0724         0.384090   
     47. L(C   4,C   0,C  41,C   3, 1) 179.4917         0.475178   
     48. L(C   4,C   0,C  41,C   3, 2) 179.7652         0.475178   
     49. A(C   2,C   1,C   6)          120.3619         0.421733   
     50. A(C   2,C   1,H  45)          118.7381         0.350948   
     51. A(C   6,C   1,H  45)          120.8997         0.352977   
     52. A(C   1,C   2,C   3)          117.3129         0.425586   
     53. A(C   1,C   2,C   9)          119.8919         0.393323   
     54. A(C   3,C   2,C   9)          122.7952         0.399232   
     55. A(C   2,C   3,C   4)          122.3289         0.428221   
     56. A(C   4,C   3,H   7)          117.6376         0.349209   
     57. A(C   2,C   3,H   7)          120.0334         0.352202   
     58. A(C   0,C   4,C   5)          120.6583         0.415326   
     59. A(C   0,C   4,C   3)          118.9852         0.417891   
     60. A(C   3,C   4,C   5)          120.3564         0.421749   
     61. A(C   6,C   5,C  21)          122.7844         0.399231   
     62. A(C   4,C   5,C   6)          117.3190         0.425579   
     63. A(C   4,C   5,C  21)          119.8966         0.393308   
     64. A(C   5,C   6,H   8)          120.0377         0.352209   
     65. A(C   1,C   6,H   8)          117.6422         0.349192   
     66. A(C   1,C   6,C   5)          122.3201         0.428197   
     67. A(C   2,C   9,H  10)          108.1108         0.323935   
     68. A(H  10,C   9,H  11)          104.4709         0.285671   
     69. A(C   2,C   9,H  11)          108.2548         0.323810   
     70. A(H  11,C   9,C  12)          109.2174         0.321041   
     71. A(H  10,C   9,C  12)          109.1968         0.321164   
     72. A(C   2,C   9,C  12)          116.8747         0.366186   
     73. A(H  14,C  12,C  15)          108.9909         0.320557   
     74. A(H  13,C  12,C  15)          109.1325         0.320554   
     75. A(C   9,C  12,C  15)          112.5616         0.362292   
     76. A(H  13,C  12,H  14)          106.2034         0.285643   
     77. A(C   9,C  12,H  14)          109.9781         0.321087   
     78. A(C   9,C  12,H  13)          109.7687         0.321084   
     79. A(H  16,C  15,C  18)          109.6058         0.321114   
     80. A(C  12,C  15,C  18)          113.2126         0.362358   
     81. A(H  16,C  15,H  17)          105.8547         0.285592   
     82. A(C  12,C  15,H  17)          109.1663         0.320524   
     83. A(C  12,C  15,H  16)          109.1868         0.320528   
     84. A(H  17,C  15,C  18)          109.5495         0.321110   
     85. A(H  20,C  18,H  43)          107.6110         0.286554   
     86. A(C  15,C  18,H  43)          111.4935         0.321833   
     87. A(H  19,C  18,H  20)          107.3686         0.286288   
     88. A(C  15,C  18,H  20)          111.2439         0.321525   
     89. A(C  15,C  18,H  19)          111.3263         0.321520   
     90. A(H  19,C  18,H  43)          107.5917         0.286549   
     91. A(H  23,C  21,C  24)          109.1766         0.321149   
     92. A(H  22,C  21,C  24)          109.3301         0.320998   
     93. A(C   5,C  21,C  24)          116.8499         0.366128   
     94. A(H  22,C  21,H  23)          104.4607         0.285699   
     95. A(C   5,C  21,H  23)          108.0647         0.323962   
     96. A(C   5,C  21,H  22)          108.2429         0.323810   
     97. A(H  26,C  24,C  27)          109.1681         0.320669   
     98. A(H  25,C  24,C  27)          109.0637         0.320659   
     99. A(C  21,C  24,C  27)          112.5086         0.362321   
    100. A(H  25,C  24,H  26)          106.2167         0.285707   
    101. A(C  21,C  24,H  26)          109.9825         0.321084   
    102. A(C  21,C  24,H  25)          109.7001         0.321073   
    103. A(H  29,C  27,C  30)          109.2479         0.320570   
    104. A(H  28,C  27,C  30)          109.4094         0.320586   
    105. A(C  24,C  27,C  30)          113.6088         0.361968   
    106. A(H  28,C  27,H  29)          105.8122         0.285367   
    107. A(C  24,C  27,H  29)          109.1088         0.320456   
    108. A(C  24,C  27,H  28)          109.3593         0.320472   
    109. A(H  31,C  30,C  32)          109.2036         0.320574   
    110. A(C  27,C  30,C  32)          113.6456         0.362155   
    111. A(C  27,C  30,H  31)          109.1932         0.320530   
    112. A(H  33,C  32,C  35)          109.1677         0.320422   
    113. A(C  30,C  32,C  35)          113.7785         0.362097   
    114. A(H  33,C  32,H  34)          105.8000         0.285202   
    115. A(C  30,C  32,H  34)          109.3523         0.320534   
    116. A(C  30,C  32,H  33)          109.1884         0.320515   
    117. A(H  34,C  32,C  35)          109.2472         0.320442   
    118. A(H  37,C  35,C  38)          109.5142         0.321014   
    119. A(H  36,C  35,C  38)          109.5197         0.321019   
    120. A(C  32,C  35,C  38)          113.3073         0.362471   
    121. A(H  36,C  35,H  37)          105.8351         0.285498   
    122. A(C  32,C  35,H  37)          109.2486         0.320604   
    123. A(C  32,C  35,H  36)          109.1436         0.320609   
    124. A(H  40,C  38,H  44)          107.5834         0.286482   
    125. A(H  39,C  38,H  44)          107.6055         0.286485   
    126. A(C  35,C  38,H  44)          111.5830         0.321741   
    127. A(H  39,C  38,H  40)          107.3284         0.286240   
    128. A(C  35,C  38,H  40)          111.2557         0.321453   
    129. A(C  35,C  38,H  39)          111.2750         0.321455   
    130. L(C   0,C  41,H  42, 2)       180.0664         0.398981   
    131. L(C   0,C  41,H  42, 1)       179.8567         0.398981   
    132. D(C   9,C   2,C   1,C   6)   -179.7671         0.021676   
    133. D(C   3,C   2,C   1,C   6)      0.2350         0.021676   
    134. D(C   9,C   2,C   1,H  45)      0.0356         0.021676   
    135. D(C   3,C   2,C   1,H  45)   -179.9624         0.021676   
    136. D(H   7,C   3,C   2,C   9)      0.0184         0.025905   
    137. D(C   4,C   3,C   2,C   9)    179.9245         0.025905   
    138. D(H   7,C   3,C   2,C   1)   -179.9838         0.025905   
    139. D(C   4,C   3,C   2,C   1)     -0.0776         0.025905   
    140. D(C   0,C   4,C   3,C   2)    179.8723         0.023291   
    141. D(C   0,C   4,C   3,H   7)     -0.2194         0.023291   
    142. D(C   5,C   4,C   3,C   2)     -0.1862         0.023291   
    143. D(C   5,C   4,C   3,H   7)    179.7220         0.023291   
    144. D(C   6,C   5,C   4,C   3)      0.2840         0.021669   
    145. D(C   6,C   5,C   4,C   0)   -179.7755         0.021669   
    146. D(C  21,C   5,C   4,C   0)      0.3303         0.021669   
    147. D(C  21,C   5,C   4,C   3)   -179.6102         0.021669   
    148. D(H   8,C   6,C   5,C   4)    179.9443         0.025908   
    149. D(H   8,C   6,C   5,C  21)     -0.1648         0.025908   
    150. D(C   1,C   6,C   5,C  21)    179.7632         0.025908   
    151. D(C   1,C   6,C   5,C   4)     -0.1277         0.025908   
    152. D(C   5,C   6,C   1,H  45)   -179.9330         0.023274   
    153. D(C   5,C   6,C   1,C   2)     -0.1347         0.023274   
    154. D(H   8,C   6,C   1,H  45)     -0.0034         0.023274   
    155. D(H   8,C   6,C   1,C   2)    179.7949         0.023274   
    156. D(C  12,C   9,C   2,C   3)     -3.0207         0.011443   
    157. D(C  12,C   9,C   2,C   1)    176.9815         0.011443   
    158. D(H  11,C   9,C   2,C   3)    120.7394         0.011443   
    159. D(H  11,C   9,C   2,C   1)    -59.2584         0.011443   
    160. D(H  10,C   9,C   2,C   3)   -126.6340         0.011443   
    161. D(H  10,C   9,C   2,C   1)     53.3682         0.011443   
    162. D(H  13,C  12,C   9,C   2)    -57.2514         0.011070   
    163. D(C  15,C  12,C   9,H  10)    -55.9625         0.011070   
    164. D(C  15,C  12,C   9,C   2)   -179.0184         0.011070   
    165. D(H  14,C  12,C   9,H  11)    -64.0204         0.011070   
    166. D(H  14,C  12,C   9,H  10)   -177.6974         0.011070   
    167. D(H  14,C  12,C   9,C   2)     59.2466         0.011070   
    168. D(H  13,C  12,C   9,H  11)    179.4815         0.011070   
    169. D(C  15,C  12,C   9,H  11)     57.7145         0.011070   
    170. D(H  13,C  12,C   9,H  10)     65.8045         0.011070   
    171. D(C  18,C  15,C  12,H  14)    -57.8856         0.010862   
    172. D(C  18,C  15,C  12,C   9)    179.8208         0.010862   
    173. D(H  17,C  15,C  12,H  14)    179.8028         0.010862   
    174. D(H  17,C  15,C  12,H  13)    -64.6182         0.010862   
    175. D(H  17,C  15,C  12,C   9)     57.5091         0.010862   
    176. D(H  16,C  15,C  12,H  14)     64.5133         0.010862   
    177. D(C  18,C  15,C  12,H  13)     57.6935         0.010862   
    178. D(H  16,C  15,C  12,H  13)   -179.9076         0.010862   
    179. D(H  16,C  15,C  12,C   9)    -57.7803         0.010862   
    180. D(H  43,C  18,C  15,H  17)    -57.7770         0.011093   
    181. D(H  43,C  18,C  15,H  16)     57.9598         0.011093   
    182. D(H  20,C  18,C  15,H  17)     62.3525         0.011093   
    183. D(H  20,C  18,C  15,H  16)    178.0893         0.011093   
    184. D(H  20,C  18,C  15,C  12)    -59.7454         0.011093   
    185. D(H  43,C  18,C  15,C  12)   -179.8749         0.011093   
    186. D(H  19,C  18,C  15,H  16)    -62.2014         0.011093   
    187. D(H  19,C  18,C  15,C  12)     59.9640         0.011093   
    188. D(H  19,C  18,C  15,H  17)   -177.9382         0.011093   
    189. D(C  24,C  21,C   5,C   4)    176.2008         0.011442   
    190. D(H  23,C  21,C   5,C   6)   -127.2178         0.011442   
    191. D(H  23,C  21,C   5,C   4)     52.6704         0.011442   
    192. D(H  22,C  21,C   5,C   6)    120.1959         0.011442   
    193. D(C  24,C  21,C   5,C   6)     -3.6874         0.011442   
    194. D(H  22,C  21,C   5,C   4)    -59.9159         0.011442   
    195. D(C  27,C  24,C  21,H  23)    -54.9781         0.011052   
    196. D(C  27,C  24,C  21,C   5)   -177.9369         0.011052   
    197. D(H  26,C  24,C  21,H  23)   -176.9070         0.011052   
    198. D(H  26,C  24,C  21,H  22)    -63.1926         0.011052   
    199. D(H  26,C  24,C  21,C   5)     60.1342         0.011052   
    200. D(H  25,C  24,C  21,H  23)     66.6164         0.011052   
    201. D(C  27,C  24,C  21,H  22)     58.7363         0.011052   
    202. D(H  25,C  24,C  21,H  22)   -179.6692         0.011052   
    203. D(H  25,C  24,C  21,C   5)    -56.3424         0.011052   
    204. D(C  30,C  27,C  24,H  26)    -58.5386         0.010890   
    205. D(C  30,C  27,C  24,H  25)     57.1159         0.010890   
    206. D(C  30,C  27,C  24,C  21)    179.0719         0.010890   
    207. D(H  29,C  27,C  24,H  26)    179.3090         0.010890   
    208. D(H  29,C  27,C  24,H  25)    -65.0365         0.010890   
    209. D(H  29,C  27,C  24,C  21)     56.9195         0.010890   
    210. D(H  28,C  27,C  24,H  26)     64.0072         0.010890   
    211. D(H  28,C  27,C  24,H  25)    179.6617         0.010890   
    212. D(H  28,C  27,C  24,C  21)    -58.3823         0.010890   
    213. D(C  32,C  30,C  27,H  29)    -56.8129         0.010243   
    214. D(C  32,C  30,C  27,H  28)     58.5936         0.010243   
    215. D(C  32,C  30,C  27,C  24)   -178.8882         0.010243   
    216. D(H  31,C  30,C  27,H  29)     65.3697         0.010243   
    217. D(H  31,C  30,C  27,H  28)   -179.2238         0.010243   
    218. D(H  31,C  30,C  27,C  24)    -56.7056         0.010243   
    219. D(C  35,C  32,C  30,H  31)     57.1055         0.010259   
    220. D(C  35,C  32,C  30,C  27)    179.2823         0.010259   
    221. D(H  34,C  32,C  30,H  31)    179.5541         0.010259   
    222. D(H  34,C  32,C  30,C  27)    -58.2690         0.010259   
    223. D(H  33,C  32,C  30,H  31)    -65.1186         0.010259   
    224. D(H  33,C  32,C  30,C  27)     57.0583         0.010259   
    225. D(C  38,C  35,C  32,H  34)     58.1277         0.010915   
    226. D(C  38,C  35,C  32,H  33)    -57.1303         0.010915   
    227. D(C  38,C  35,C  32,C  30)   -179.3658         0.010915   
    228. D(H  37,C  35,C  32,H  34)    -64.2634         0.010915   
    229. D(H  37,C  35,C  32,H  33)   -179.5214         0.010915   
    230. D(H  37,C  35,C  32,C  30)     58.2431         0.010915   
    231. D(H  36,C  35,C  32,H  34)   -179.5508         0.010915   
    232. D(H  36,C  35,C  32,H  33)     65.1911         0.010915   
    233. D(H  36,C  35,C  32,C  30)    -57.0443         0.010915   
    234. D(H  44,C  38,C  35,H  36)     57.9110         0.011077   
    235. D(H  44,C  38,C  35,C  32)   -179.9769         0.011077   
    236. D(H  40,C  38,C  35,H  37)   -177.8968         0.011077   
    237. D(H  40,C  38,C  35,H  36)    -62.2523         0.011077   
    238. D(H  40,C  38,C  35,C  32)     59.8598         0.011077   
    239. D(H  39,C  38,C  35,H  37)     62.4711         0.011077   
    240. D(H  39,C  38,C  35,H  36)    178.1156         0.011077   
    241. D(H  44,C  38,C  35,H  37)    -57.7336         0.011077   
    242. D(H  39,C  38,C  35,C  32)    -59.7723         0.011077   
    -----------------------------------------------------------------

Number of atoms                         .... 46
Number of degrees of freedom            .... 242

         *************************************************************
         *                GEOMETRY OPTIMIZATION CYCLE   1            *
         *************************************************************
---------------------------------
CARTESIAN COORDINATES (ANGSTROEM)
---------------------------------
  C      4.232815   -0.047975    0.003497
  C      0.000000    0.000000    0.000000
  C      0.682084   -1.243874   -0.005687
  C      2.077148   -1.209170   -0.004713
  C      2.800934   -0.000000    0.000000
  C      2.118803    1.243906   -0.000000
  C      0.723750    1.209313    0.001340
  H      2.645912   -2.138803   -0.009197
  H      0.155004    2.138945    0.002312
  C     -0.107444   -2.538837   -0.012423
  H     -0.821031   -2.501792   -0.855670
  H     -0.746653   -2.559544    0.889821
  C      0.696707   -3.839261   -0.090229
  H      1.332591   -3.832191   -0.994750
  H      1.386337   -3.909085    0.771198
  C     -0.198672   -5.084222   -0.114940
  H     -0.836257   -5.091321    0.788551
  H     -0.892176   -5.015676   -0.973577
  C      0.590347   -6.393280   -0.197057
  H      1.266769   -6.509154    0.667377
  H      1.211530   -6.429299   -1.108644
  C      2.908200    2.538981   -0.003849
  H      3.540280    2.561845    0.903332
  H      3.628430    2.498819   -0.841078
  C      2.103979    3.838832   -0.094133
  H      1.465157    3.819926   -0.996194
  H      1.417544    3.919065    0.768660
  C      3.000632    5.081773   -0.141403
  H      3.638075    5.108791    0.762615
  H      3.695735    4.994637   -0.997985
  C      2.221458    6.396821   -0.254724
  H      1.574746    6.360398   -1.152161
  C      3.117600    7.637782   -0.329199
  H      3.808877    7.536408   -1.187976
  H      3.759948    7.680975    0.571322
  C      2.341800    8.953483   -0.460126
  H      1.694554    8.905348   -1.355806
  H      1.656854    9.060265    0.401845
  C      3.247547   10.184443   -0.549115
  H      3.883695   10.279329    0.347996
  H      3.918833   10.124990   -1.423397
  C      5.447855   -0.099468    0.003891
  H      6.519451   -0.142197    0.005481
  H     -0.079670   -7.268143   -0.215340
  H      2.661311   11.113394   -0.641932
  H     -1.072444    0.000000    0.000000

----------------------------
CARTESIAN COORDINATES (A.U.)
----------------------------
  NO LB      ZA    FRAG     MASS         X           Y           Z
   0 C     6.0000    0    12.011    7.998861   -0.090660    0.006608
   1 C     6.0000    0    12.011    0.000000    0.000000    0.000000
   2 C     6.0000    0    12.011    1.288953   -2.350581   -0.010746
   3 C     6.0000    0    12.011    3.925241   -2.285000   -0.008907
   4 C     6.0000    0    12.011    5.292998   -0.000000    0.000000
   5 C     6.0000    0    12.011    4.003957    2.350641   -0.000000
   6 C     6.0000    0    12.011    1.367689    2.285270    0.002532
   7 H     1.0000    0     1.008    5.000048   -4.041751   -0.017379
   8 H     1.0000    0     1.008    0.292915    4.042021    0.004370
   9 C     6.0000    0    12.011   -0.203041   -4.797706   -0.023475
  10 H     1.0000    0     1.008   -1.551524   -4.727702   -1.616982
  11 H     1.0000    0     1.008   -1.410970   -4.836838    1.681517
  12 C     6.0000    0    12.011    1.316585   -7.255151   -0.170509
  13 H     1.0000    0     1.008    2.518233   -7.241792   -1.879805
  14 H     1.0000    0     1.008    2.619797   -7.387101    1.457353
  15 C     6.0000    0    12.011   -0.375436   -9.607786   -0.217205
  16 H     1.0000    0     1.008   -1.580297   -9.621202    1.490146
  17 H     1.0000    0     1.008   -1.685968   -9.478254   -1.839795
  18 C     6.0000    0    12.011    1.115593  -12.081548   -0.372384
  19 H     1.0000    0     1.008    2.393846  -12.300519    1.261159
  20 H     1.0000    0     1.008    2.289460  -12.149614   -2.095034
  21 C     6.0000    0    12.011    5.495701    4.797979   -0.007273
  22 H     1.0000    0     1.008    6.690159    4.841186    1.707050
  23 H     1.0000    0     1.008    6.856739    4.722083   -1.589407
  24 C     6.0000    0    12.011    3.975944    7.254341   -0.177886
  25 H     1.0000    0     1.008    2.768745    7.218615   -1.882534
  26 H     1.0000    0     1.008    2.678769    7.405960    1.452557
  27 C     6.0000    0    12.011    5.670373    9.603160   -0.267213
  28 H     1.0000    0     1.008    6.874966    9.654216    1.441134
  29 H     1.0000    0     1.008    6.983928    9.438495   -1.885919
  30 C     6.0000    0    12.011    4.197948   12.088239   -0.481359
  31 H     1.0000    0     1.008    2.975838   12.019409   -2.177268
  32 C     6.0000    0    12.011    5.891411   14.433316   -0.622097
  33 H     1.0000    0     1.008    7.197734   14.241747   -2.244949
  34 H     1.0000    0     1.008    7.105272   14.514939    1.079643
  35 C     6.0000    0    12.011    4.425361   16.919631   -0.869513
  36 H     1.0000    0     1.008    3.202242   16.828669   -2.562101
  37 H     1.0000    0     1.008    3.131000   17.121420    0.759377
  38 C     6.0000    0    12.011    6.136974   19.245809   -1.037677
  39 H     1.0000    0     1.008    7.339120   19.425117    0.657618
  40 H     1.0000    0     1.008    7.405521   19.133459   -2.689831
  41 C     6.0000    0    12.011   10.294955   -0.187968    0.007353
  42 H     1.0000    0     1.008   12.319977   -0.268714    0.010358
  43 H     1.0000    0     1.008   -0.150555  -13.734800   -0.406934
  44 H     1.0000    0     1.008    5.029149   21.001271   -1.213075
  45 H     1.0000    0     1.008   -2.026625    0.000000    0.000000

--------------------------------
INTERNAL COORDINATES (ANGSTROEM)
--------------------------------
 C      0   0   0     0.000000000000     0.00000000     0.00000000
 C      1   0   0     4.233088302293     0.00000000     0.00000000
 C      2   1   0     1.418623719026    60.61273946     0.00000000
 C      3   2   1     1.395495745436   117.31294488     0.00000000
 C      4   3   2     1.409247952056   122.32889295   359.92235697
 C      5   4   3     1.418662916705   120.35644226   359.81378834
 C      6   5   4     1.395482143264   117.31896002     0.28398301
 H      4   3   2     1.089830025838   120.03343469   180.01623454
 H      7   6   5     1.089811772557   120.03770597   179.94431496
 C      3   2   1     1.516684004883   119.89187028   179.97782413
 H     10   3   2     1.105280223159   108.11080084    53.36819715
 H     10   3   2     1.105920056601   108.25475929   300.74161037
 C     10   3   2     1.530952270967   116.87466368   176.98150851
 H     13  10   3     1.105693009340   109.76867847   302.74859942
 H     13  10   3     1.105677663083   109.97813535    59.24662390
 C     13  10   3     1.533701874616   112.56155160   180.98156906
 H     16  13  10     1.105830588193   109.18675327   302.21969641
 H     16  13  10     1.105849924169   109.16625132    57.50913673
 C     16  13  10     1.530662193255   113.21261732   179.82079500
 H     19  16  13     1.103729860885   111.32625981    59.96397420
 H     19  16  13     1.103701877123   111.24392251   300.25461563
 C      6   5   4     1.516701443676   119.89657382   180.38977465
 H     22   6   5     1.105904233535   108.24294512   300.08411105
 H     22   6   5     1.105123543680   108.06471810    52.67040613
 C     22   6   5     1.531187525797   116.84991468   176.20078879
 H     25  22   6     1.105515766432   109.70012565   303.65762142
 H     25  22   6     1.105460658752   109.98248734    60.13422146
 C     25  22   6     1.533337667335   112.50858325   182.06306205
 H     28  25  22     1.106486500808   109.35932218   301.61773982
 H     28  25  22     1.106568971519   109.10877379    56.91952888
 C     28  25  22     1.532743353567   113.60876022   179.07192050
 H     31  28  25     1.106777171420   109.19323680   303.29440068
 C     31  28  25     1.532515003362   113.64555824   181.11181427
 H     33  31  28     1.107084939737   109.18838317    57.05826644
 H     33  31  28     1.106984690048   109.35227369   301.73095964
 C     33  31  28     1.532996102593   113.77849636   179.28230416
 H     36  33  31     1.106113462257   109.14357066   302.95565152
 H     36  33  31     1.106141659418   109.24856484    58.24310691
 C     36  33  31     1.530868557627   113.30734895   180.63418250
 H     39  36  33     1.103855406857   111.27503964   300.22770868
 H     39  36  33     1.103870171220   111.25565211    59.85981709
 C      1   2   3     1.216131158651   178.22240437     0.63614093
 H     42   1   5     1.072448068698   179.84205220   191.41781577
 H     19  16  13     1.102108218146   111.49347347   180.12510344
 H     39  36  33     1.102377632698   111.58300683   180.02307824
 H      2   1   3     1.072443710000   179.34891021     4.45885516

---------------------------
INTERNAL COORDINATES (A.U.)
---------------------------
 C      0   0   0     0.000000000000     0.00000000     0.00000000
 C      1   0   0     7.999377592039     0.00000000     0.00000000
 C      2   1   0     2.680810316044    60.61273946     0.00000000
 C      3   2   1     2.637104779927   117.31294488     0.00000000
 C      4   3   2     2.663092684175   122.32889295   359.92235697
 C      5   4   3     2.680884388922   120.35644226   359.81378834
 C      6   5   4     2.637079075546   117.31896002     0.28398301
 H      4   3   2     2.059480281359   120.03343469   180.01623454
 H      7   6   5     2.059445787655   120.03770597   179.94431496
 C      3   2   1     2.866117400928   119.89187028   179.97782413
 H     10   3   2     2.088676923011   108.11080084    53.36819715
 H     10   3   2     2.089886032987   108.25475929   300.74161037
 C     10   3   2     2.893080516232   116.87466368   176.98150851
 H     13  10   3     2.089456975845   109.76867847   302.74859942
 H     13  10   3     2.089427975622   109.97813535    59.24662390
 C     13  10   3     2.898276514107   112.56155160   180.98156906
 H     16  13  10     2.089716962198   109.18675327   302.21969641
 H     16  13  10     2.089753501898   109.16625132    57.50913673
 C     16  13  10     2.892532348800   113.21261732   179.82079500
 H     19  16  13     2.085747162903   111.32625981    59.96397420
 H     19  16  13     2.085694281258   111.24392251   300.25461563
 C      6   5   4     2.866150355471   119.89657382   180.38977465
 H     22   6   5     2.089856131726   108.24294512   300.08411105
 H     22   6   5     2.088380841703   108.06471810    52.67040613
 C     22   6   5     2.893525083433   116.84991468   176.20078879
 H     25  22   6     2.089122035289   109.70012565   303.65762142
 H     25  22   6     2.089017896865   109.98248734    60.13422146
 C     25  22   6     2.897588262089   112.50858325   182.06306205
 H     28  25  22     2.090956457408   109.35932218   301.61773982
 H     28  25  22     2.091112304467   109.10877379    56.91952888
 C     28  25  22     2.896465171830   113.60876022   179.07192050
 H     31  28  25     2.091505745260   109.19323680   303.29440068
 C     31  28  25     2.896033652480   113.64555824   181.11181427
 H     33  31  28     2.092087343091   109.18838317    57.05826644
 H     33  31  28     2.091897898635   109.35227369   301.73095964
 C     33  31  28     2.896942798270   113.77849636   179.28230416
 H     36  33  31     2.090251516709   109.14357066   302.95565152
 H     36  33  31     2.090304801621   109.24856484    58.24310691
 C     36  33  31     2.892922320946   113.30734895   180.63418250
 H     39  36  33     2.085984410407   111.27503964   300.22770868
 H     39  36  33     2.086012311011   111.25565211    59.85981709
 C      1   2   3     2.298154832779   178.22240437     0.63614093
 H     42   1   5     2.026633142693   179.84205220   191.41781577
 H     19  16  13     2.082682702239   111.49347347   180.12510344
 H     39  36  33     2.083191821961   111.58300683   180.02307824
 H      2   1   3     2.026624905946   179.34891021     4.45885516

---------------------
BASIS SET INFORMATION
---------------------
There are 2 groups of distinct atoms

 Group   1 Type C   : 17s4p1d contracted to 3s2p1d pattern {881/31/1}
 Group   2 Type H   : 4s1p contracted to 2s1p pattern {31/1}

Atom   0C    basis set group =>   1
Atom   1C    basis set group =>   1
Atom   2C    basis set group =>   1
Atom   3C    basis set group =>   1
Atom   4C    basis set group =>   1
Atom   5C    basis set group =>   1
Atom   6C    basis set group =>   1
Atom   7H    basis set group =>   2
Atom   8H    basis set group =>   2
Atom   9C    basis set group =>   1
Atom  10H    basis set group =>   2
Atom  11H    basis set group =>   2
Atom  12C    basis set group =>   1
Atom  13H    basis set group =>   2
Atom  14H    basis set group =>   2
Atom  15C    basis set group =>   1
Atom  16H    basis set group =>   2
Atom  17H    basis set group =>   2
Atom  18C    basis set group =>   1
Atom  19H    basis set group =>   2
Atom  20H    basis set group =>   2
Atom  21C    basis set group =>   1
Atom  22H    basis set group =>   2
Atom  23H    basis set group =>   2
Atom  24C    basis set group =>   1
Atom  25H    basis set group =>   2
Atom  26H    basis set group =>   2
Atom  27C    basis set group =>   1
Atom  28H    basis set group =>   2
Atom  29H    basis set group =>   2
Atom  30C    basis set group =>   1
Atom  31H    basis set group =>   2
Atom  32C    basis set group =>   1
Atom  33H    basis set group =>   2
Atom  34H    basis set group =>   2
Atom  35C    basis set group =>   1
Atom  36H    basis set group =>   2
Atom  37H    basis set group =>   2
Atom  38C    basis set group =>   1
Atom  39H    basis set group =>   2
Atom  40H    basis set group =>   2
Atom  41C    basis set group =>   1
Atom  42H    basis set group =>   2
Atom  43H    basis set group =>   2
Atom  44H    basis set group =>   2
Atom  45H    basis set group =>   2
---------------------------------
AUXILIARY/J BASIS SET INFORMATION
---------------------------------
There are 2 groups of distinct atoms

 Group   1 Type C   : 12s5p4d2f1g contracted to 6s4p3d1f1g pattern {711111/2111/211/2/1}
 Group   2 Type H   : 5s2p1d contracted to 3s1p1d pattern {311/2/1}

Atom   0C    basis set group =>   1
Atom   1C    basis set group =>   1
Atom   2C    basis set group =>   1
Atom   3C    basis set group =>   1
Atom   4C    basis set group =>   1
Atom   5C    basis set group =>   1
Atom   6C    basis set group =>   1
Atom   7H    basis set group =>   2
Atom   8H    basis set group =>   2
Atom   9C    basis set group =>   1
Atom  10H    basis set group =>   2
Atom  11H    basis set group =>   2
Atom  12C    basis set group =>   1
Atom  13H    basis set group =>   2
Atom  14H    basis set group =>   2
Atom  15C    basis set group =>   1
Atom  16H    basis set group =>   2
Atom  17H    basis set group =>   2
Atom  18C    basis set group =>   1
Atom  19H    basis set group =>   2
Atom  20H    basis set group =>   2
Atom  21C    basis set group =>   1
Atom  22H    basis set group =>   2
Atom  23H    basis set group =>   2
Atom  24C    basis set group =>   1
Atom  25H    basis set group =>   2
Atom  26H    basis set group =>   2
Atom  27C    basis set group =>   1
Atom  28H    basis set group =>   2
Atom  29H    basis set group =>   2
Atom  30C    basis set group =>   1
Atom  31H    basis set group =>   2
Atom  32C    basis set group =>   1
Atom  33H    basis set group =>   2
Atom  34H    basis set group =>   2
Atom  35C    basis set group =>   1
Atom  36H    basis set group =>   2
Atom  37H    basis set group =>   2
Atom  38C    basis set group =>   1
Atom  39H    basis set group =>   2
Atom  40H    basis set group =>   2
Atom  41C    basis set group =>   1
Atom  42H    basis set group =>   2
Atom  43H    basis set group =>   2
Atom  44H    basis set group =>   2
Atom  45H    basis set group =>   2


           ************************************************************
           *        Program running with 16 parallel MPI-processes    *
           *              working on a common directory               *
           ************************************************************
------------------------------------------------------------------------------
                           ORCA GTO INTEGRAL CALCULATION
                           -- RI-GTO INTEGRALS CHOSEN --
------------------------------------------------------------------------------
------------------------------------------------------------------------------
                   ___                                                        
                  /   \      - P O W E R E D   B Y -                         
                 /     \                                                     
                 |  |  |   _    _      __       _____    __    __             
                 |  |  |  | |  | |    /  \     |  _  \  |  |  /  |          
                  \  \/   | |  | |   /    \    | | | |  |  | /  /          
                 / \  \   | |__| |  /  /\  \   | |_| |  |  |/  /          
                |  |  |   |  __  | /  /__\  \  |    /   |      \           
                |  |  |   | |  | | |   __   |  |    \   |  |\   \          
                \     /   | |  | | |  |  |  |  | |\  \  |  | \   \       
                 \___/    |_|  |_| |__|  |__|  |_| \__\ |__|  \__/        
                                                                              
                      - O R C A' S   B I G   F R I E N D -                    
                                      &                                       
                       - I N T E G R A L  F E E D E R -                       
                                                                              
 v1 FN, 2020, v2 2021                                                         
------------------------------------------------------------------------------


Reading SHARK input file opt.SHARKINP.tmp ... ok
----------------------
SHARK INTEGRAL PACKAGE
----------------------

Number of atoms                             ...     46
Number of basis functions                   ...    515
Number of shells                            ...    309
Maximum angular momentum                    ...      2
Integral batch strategy                     ... SHARK/LIBINT Hybrid
RI-J (if used) integral strategy            ... SPLIT-RIJ (Revised 2003 algorithm where possible)
Printlevel                                  ...      1
Contraction scheme used                     ... PARTIAL GENERAL contraction
Coulomb Range Separation                    ... NOT USED
Exchange Range Separation                   ... NOT USED
Finite Nucleus Model                        ... NOT USED
Auxiliary Coulomb fitting basis             ... AVAILABLE
   # of basis functions in Aux-J            ...   1228
   # of shells in Aux-J                     ...    420
   Maximum angular momentum in Aux-J        ...      4
Auxiliary J/K fitting basis                 ... NOT available
Auxiliary Correlation fitting basis         ... NOT available
Auxiliary 'external' fitting basis          ... NOT available
Integral threshold                          ...     2.500000e-11
Primitive cut-off                           ...     2.500000e-12
Primitive pair pre-selection threshold      ...     2.500000e-12

Calculating pre-screening integrals         ... done (  0.0 sec) Dimension = 309
Calculating pre-screening integrals (ORCA)  ... done (  0.1 sec) Dimension = 195
Organizing shell pair data                  ... done (  0.1 sec)
Shell pair information
Total number of shell pairs                 ...     47895
Shell pairs after pre-screening             ...     20670
Total number of primitive shell pairs       ...     80739
Primitive shell pairs kept                  ...     29257
          la=0 lb=0:   9309 shell pairs
          la=1 lb=0:   7207 shell pairs
          la=1 lb=1:   1283 shell pairs
          la=2 lb=0:   2032 shell pairs
          la=2 lb=1:    726 shell pairs
          la=2 lb=2:    113 shell pairs

Calculating one electron integrals          ... done (  0.0 sec)
Calculating RI/J V-Matrix + Cholesky decomp.... done (  0.1 sec)
Calculating Nuclear repulsion               ... done (  0.0 sec) ENN=   1245.479777137061 Eh

SHARK setup successfully completed in   0.8 seconds

Maximum memory used throughout the entire GTOINT-calculation: 30.5 MB


           ************************************************************
           *        Program running with 16 parallel MPI-processes    *
           *              working on a common directory               *
           ************************************************************
-------------------------------------------------------------------------------
                                 ORCA SCF
-------------------------------------------------------------------------------

------------
SCF SETTINGS
------------
Hamiltonian:
 Density Functional     Method          .... DFT(GTOs)
 Exchange Functional    Exchange        .... B88
   X-Alpha parameter    XAlpha          ....  0.666667
   Becke's b parameter  XBeta           ....  0.004200
 Correlation Functional Correlation     .... LYP
 LDA part of GGA corr.  LDAOpt          .... VWN-5
 Gradients option       PostSCFGGA      .... off
 Hybrid DFT is turned on
   Fraction HF Exchange ScalHFX         ....  0.200000
   Scaling of DF-GGA-X  ScalDFX         ....  0.720000
   Scaling of DF-GGA-C  ScalDFC         ....  0.810000
   Scaling of DF-LDA-C  ScalLDAC        ....  1.000000
   Perturbative correction              ....  0.000000
   Density functional embedding theory  .... OFF
   NL short-range parameter             ....  4.800000
 RI-approximation to the Coulomb term is turned on
   Number of AuxJ basis functions       .... 1228
   RIJ-COSX (HFX calculated with COS-X)).... on


General Settings:
 Integral files         IntName         .... opt
 Hartree-Fock type      HFTyp           .... UHF
 Total Charge           Charge          ....    0
 Multiplicity           Mult            ....    2
 Number of Electrons    NEL             ....  141
 Basis Dimension        Dim             ....  401
 Nuclear Repulsion      ENuc            ....   1245.4797771371 Eh

Convergence Acceleration:
 DIIS                   CNVDIIS         .... on
   Start iteration      DIISMaxIt       ....    12
   Startup error        DIISStart       ....  0.200000
   # of expansion vecs  DIISMaxEq       ....     5
   Bias factor          DIISBfac        ....   1.050
   Max. coefficient     DIISMaxC        ....  10.000
 Trust-Rad. Augm. Hess. CNVTRAH         .... auto
   Auto Start mean grad. ratio tolernc. ....  1.125000
   Auto Start start iteration           ....    20
   Auto Start num. interpolation iter.  ....    10
   Max. Number of Micro iterations      ....    16
   Max. Number of Macro iterations      .... Maxiter - #DIIS iter
   Number of Davidson start vectors     ....     2
   Converg. threshold I  (grad. norm)   ....   1.000e-05
   Converg. threshold II (energy diff.) ....   1.000e-08
   Grad. Scal. Fac. for Micro threshold ....   0.100
   Minimum threshold for Micro iter.    ....   0.010
   NR start threshold (gradient norm)   ....   0.001
   Initial trust radius                 ....   0.400
   Minimum AH scaling param. (alpha)    ....   1.000
   Maximum AH scaling param. (alpha)    .... 1000.000
   Orbital update algorithm             .... Taylor
   White noise on init. David. guess    .... on
   Maximum white noise                  ....   0.010
   Quad. conv. algorithm                .... NR
 SOSCF                  CNVSOSCF        .... off
 Level Shifting         CNVShift        .... on
   Level shift para.    LevelShift      ....    0.2500
   Turn off err/grad.   ShiftErr        ....    0.0010
 Zerner damping         CNVZerner       .... off
 Static damping         CNVDamp         .... on
   Fraction old density DampFac         ....    0.7000
   Max. Damping (<1)    DampMax         ....    0.9800
   Min. Damping (>=0)   DampMin         ....    0.0000
   Turn off err/grad.   DampErr         ....    0.1000
 Fernandez-Rico         CNVRico         .... off

SCF Procedure:
 Maximum # iterations   MaxIter         ....   125
 SCF integral mode      SCFMode         .... Direct
   Integral package                     .... SHARK and LIBINT hybrid scheme
 Reset frequency        DirectResetFreq ....    20
 Integral Threshold     Thresh          ....  2.500e-11 Eh
 Primitive CutOff       TCut            ....  2.500e-12 Eh

Convergence Tolerance:
 Convergence Check Mode ConvCheckMode   .... Total+1el-Energy
 Convergence forced     ConvForced      .... 0
 Energy Change          TolE            ....  1.000e-08 Eh
 1-El. energy change                    ....  1.000e-05 Eh
 DIIS Error             TolErr          ....  5.000e-07


Diagonalization of the overlap matrix:
Smallest eigenvalue                        ... 1.532e-04
Time for diagonalization                   ...    0.041 sec
Threshold for overlap eigenvalues          ... 1.000e-08
Number of eigenvalues below threshold      ... 0
Time for construction of square roots      ...    0.038 sec
Total time needed                          ...    0.081 sec

Time for model grid setup =    0.267 sec

------------------------------
INITIAL GUESS: MODEL POTENTIAL
------------------------------
Loading Hartree-Fock densities                     ... done
Calculating cut-offs                               ... done
Initializing the effective Hamiltonian             ... done
Setting up the integral package (SHARK)            ... done
Starting the Coulomb interaction                   ... done (   0.2 sec)
Reading the grid                                   ... done
Mapping shells                                     ... done
Starting the XC term evaluation                    ... done (   0.1 sec)
  promolecular density results
     # of electrons  =    140.997800437
     EX              =   -105.592812404
     EC              =     -4.581631111
     EX+EC           =   -110.174443514
Transforming the Hamiltonian                       ... done (   0.0 sec)
Diagonalizing the Hamiltonian                      ... done (   0.0 sec)
Back transforming the eigenvectors                 ... done (   0.0 sec)
Now organizing SCF variables                       ... done
                      ------------------
                      INITIAL GUESS DONE (   0.8 sec)
                      ------------------
-------------------
DFT GRID GENERATION
-------------------

General Integration Accuracy     IntAcc      ... 4.388
Radial Grid Type                 RadialGrid  ... OptM3 with GC (2021)
Angular Grid (max. ang.)         AngularGrid ... 4 (Lebedev-302)
Angular grid pruning method      GridPruning ... 4 (adaptive)
Weight generation scheme         WeightScheme... Becke
Basis function cutoff            BFCut       ... 1.0000e-11
Integration weight cutoff        WCut        ... 1.0000e-14
Angular grids for H and He will be reduced by one unit
Partially contracted basis set               ... off
Rotationally invariant grid construction     ... off

Total number of grid points                  ...   199703
Total number of batches                      ...     3146
Average number of points per batch           ...       63
Average number of grid points per atom       ...     4341
Time for grid setup =    1.070 sec

--------------------
COSX GRID GENERATION
--------------------

GRIDX 1
-------
General Integration Accuracy     IntAcc      ... 3.816
Radial Grid Type                 RadialGrid  ... OptM3 with GC (2021)
Angular Grid (max. ang.)         AngularGrid ... 1 (Lebedev-50)
Angular grid pruning method      GridPruning ... 4 (adaptive)
Weight generation scheme         WeightScheme... Becke
Basis function cutoff            BFCut       ... 1.0000e-11
Integration weight cutoff        WCut        ... 1.0000e-14
Angular grids for H and He will be reduced by one unit
Partially contracted basis set               ... on
Rotationally invariant grid construction     ... off

Total number of grid points                  ...    25486
Total number of batches                      ...      427
Average number of points per batch           ...       59
Average number of grid points per atom       ...      554
UseSFitting                                  ... on

GRIDX 2
-------
General Integration Accuracy     IntAcc      ... 4.020
Radial Grid Type                 RadialGrid  ... OptM3 with GC (2021)
Angular Grid (max. ang.)         AngularGrid ... 2 (Lebedev-110)
Angular grid pruning method      GridPruning ... 4 (adaptive)
Weight generation scheme         WeightScheme... Becke
Basis function cutoff            BFCut       ... 1.0000e-11
Integration weight cutoff        WCut        ... 1.0000e-14
Angular grids for H and He will be reduced by one unit
Partially contracted basis set               ... on
Rotationally invariant grid construction     ... off

Total number of grid points                  ...    53542
Total number of batches                      ...      864
Average number of points per batch           ...       61
Average number of grid points per atom       ...     1164
UseSFitting                                  ... on

GRIDX 3
-------
General Integration Accuracy     IntAcc      ... 4.338
Radial Grid Type                 RadialGrid  ... OptM3 with GC (2021)
Angular Grid (max. ang.)         AngularGrid ... 3 (Lebedev-194)
Angular grid pruning method      GridPruning ... 4 (adaptive)
Weight generation scheme         WeightScheme... Becke
Basis function cutoff            BFCut       ... 1.0000e-11
Integration weight cutoff        WCut        ... 1.0000e-14
Angular grids for H and He will be reduced by one unit
Partially contracted basis set               ... on
Rotationally invariant grid construction     ... off

Total number of grid points                  ...   116788
Total number of batches                      ...     1849
Average number of points per batch           ...       63
Average number of grid points per atom       ...     2539
UseSFitting                                  ... on

Time for X-Grid setup             =    1.907 sec

 re-compute Schwartz prescreening matrix in partically contracted basis (1) ...done (   0.117 sec)
--------------
SCF ITERATIONS
--------------
ITER       Energy         Delta-E        Max-DP      RMS-DP      [F,P]     Damp
               ***  Starting incremental Fock matrix formation  ***
  0   -739.1726950833   0.000000000000 0.06505853  0.00079486  0.0870834 0.7000
  1   -739.4021132314  -0.229418148009 0.04798574  0.00059046  0.0458784 0.7000
                               ***Turning on DIIS***
  2   -739.5030678656  -0.100954634295 0.09389799  0.00110579  0.0175573 0.0000
  3   -739.6423660456  -0.139298179918 0.01876241  0.00032844  0.0249572 0.0000
  4   -739.6816626551  -0.039296609545 0.00906245  0.00011239  0.0065890 0.0000
  5   -739.6839059697  -0.002243314635 0.00126089  0.00003475  0.0015270 0.0000
  6   -739.6840937337  -0.000187763904 0.00124257  0.00002147  0.0008277 0.0000
               *** Restarting incremental Fock matrix formation ***
                                   *** Resetting DIIS ***
  7   -739.6844455930  -0.000351859352 0.00119004  0.00001124  0.0012283 0.0000
  8   -739.6844424139   0.000003179113 0.00040748  0.00000388  0.0015125 0.0000
  9   -739.6844527227  -0.000010308844 0.00025232  0.00000251  0.0005235 0.0000
 10   -739.6844542157  -0.000001492964 0.00005243  0.00000063  0.0000599 0.0000
 11   -739.6844542564  -0.000000040700 0.00003277  0.00000031  0.0000232 0.0000
 12   -739.6844542656  -0.000000009207 0.00001158  0.00000015  0.0000086 0.0000
 13   -739.6844542657  -0.000000000090 0.00000576  0.00000007  0.0000051 0.0000
 14   -739.6844542765  -0.000000010766 0.00000233  0.00000003  0.0000019 0.0000
 15   -739.6844542601   0.000000016387 0.00000141  0.00000002  0.0000013 0.0000
 16   -739.6844542555   0.000000004544 0.00000084  0.00000001  0.0000014 0.0000
                            ***DIIS convergence achieved***

               *****************************************************
               *                     SUCCESS                       *
               *           SCF CONVERGED AFTER  17 CYCLES          *
               *****************************************************

Old exchange energy                            =    -21.605815729 Eh
New exchange energy                            =    -21.605862469 Eh
Exchange energy change after final integration =     -0.000046740 Eh
Total energy after final integration           =   -739.684500995 Eh
Final COS-X integration done in                =     5.949 sec

----------------
TOTAL SCF ENERGY
----------------

Total Energy       :         -739.68450099 Eh          -20127.83855 eV

Components:
Nuclear Repulsion  :         1245.47977714 Eh           33891.22773 eV
Electronic Energy  :        -1985.16427813 Eh          -54019.06628 eV
One Electron Energy:        -3468.73619315 Eh          -94389.11047 eV
Two Electron Energy:         1483.57191502 Eh           40370.04418 eV
Max COSX asymmetry :            0.00000050 Eh               0.00001 eV

Virial components:
Potential Energy   :        -1473.91511426 Eh          -40107.26927 eV
Kinetic Energy     :          734.23061326 Eh           19979.43072 eV
Virial Ratio       :            2.00742803


DFT components:
N(Alpha)           :       71.000126136553 electrons
N(Beta)            :       70.000121573481 electrons
N(Total)           :      141.000247710034 electrons
E(X)               :      -85.614200655187 Eh       
E(C)               :       -5.413038589299 Eh       
E(XC)              :      -91.027239244487 Eh       
DFET-embed. en.    :        0.000000000000 Eh       

---------------
SCF CONVERGENCE
---------------

  Last Energy change         ...    8.9847e-10  Tolerance :   1.0000e-08
  Last MAX-Density change    ...    0.0000e+00  Tolerance :   1.0000e-07
  Last RMS-Density change    ...    0.0000e+00  Tolerance :   5.0000e-09
  Last DIIS Error            ...    4.5981e-07  Tolerance :   5.0000e-07

             **** THE GBW FILE WAS UPDATED (opt.gbw) ****
             **** DENSITY opt.scfp WAS UPDATED ****
             **** ENERGY FILE WAS UPDATED (opt.en.tmp) ****
----------------------
UHF SPIN CONTAMINATION
----------------------

Warning: in a DFT calculation there is little theoretical justification to 
         calculate <S**2> as in Hartree-Fock theory. We will do it anyways
         but you should keep in mind that the values have only limited relevance

Expectation value of <S**2>     :     0.752990
Ideal value S*(S+1) for S=0.5   :     0.750000
Deviation                       :     0.002990

             **** THE GBW FILE WAS UPDATED (opt.gbw) ****
             **** DENSITY opt.scfp WAS UPDATED ****
----------------
ORBITAL ENERGIES
----------------
                 SPIN UP ORBITALS
  NO   OCC          E(Eh)            E(eV) 
   0   1.0000     -10.205194      -277.6974 
   1   1.0000     -10.195277      -277.4276 
   2   1.0000     -10.194653      -277.4106 
   3   1.0000     -10.192556      -277.3535 
   4   1.0000     -10.187450      -277.2146 
   5   1.0000     -10.187006      -277.2025 
   6   1.0000     -10.185624      -277.1649 
   7   1.0000     -10.185408      -277.1590 
   8   1.0000     -10.184562      -277.1360 
   9   1.0000     -10.183231      -277.0998 
  10   1.0000     -10.183224      -277.0996 
  11   1.0000     -10.182049      -277.0676 
  12   1.0000     -10.181676      -277.0575 
  13   1.0000     -10.181592      -277.0552 
  14   1.0000     -10.181399      -277.0499 
  15   1.0000     -10.180284      -277.0196 
  16   1.0000     -10.178470      -276.9702 
  17   1.0000     -10.175704      -276.8950 
  18   1.0000     -10.173695      -276.8403 
  19   1.0000      -0.862493       -23.4696 
  20   1.0000      -0.812833       -22.1183 
  21   1.0000      -0.802915       -21.8484 
  22   1.0000      -0.783903       -21.3311 
  23   1.0000      -0.775844       -21.1118 
  24   1.0000      -0.758166       -20.6308 
  25   1.0000      -0.731200       -19.8970 
  26   1.0000      -0.721010       -19.6197 
  27   1.0000      -0.704464       -19.1694 
  28   1.0000      -0.670521       -18.2458 
  29   1.0000      -0.638742       -17.3810 
  30   1.0000      -0.619541       -16.8586 
  31   1.0000      -0.609414       -16.5830 
  32   1.0000      -0.583666       -15.8824 
  33   1.0000      -0.576742       -15.6939 
  34   1.0000      -0.561424       -15.2771 
  35   1.0000      -0.558409       -15.1951 
  36   1.0000      -0.525611       -14.3026 
  37   1.0000      -0.493169       -13.4198 
  38   1.0000      -0.472496       -12.8573 
  39   1.0000      -0.470282       -12.7970 
  40   1.0000      -0.468400       -12.7458 
  41   1.0000      -0.459909       -12.5148 
  42   1.0000      -0.454525       -12.3683 
  43   1.0000      -0.426752       -11.6125 
  44   1.0000      -0.424512       -11.5516 
  45   1.0000      -0.420793       -11.4504 
  46   1.0000      -0.418798       -11.3961 
  47   1.0000      -0.412903       -11.2357 
  48   1.0000      -0.408691       -11.1211 
  49   1.0000      -0.403667       -10.9843 
  50   1.0000      -0.383165       -10.4265 
  51   1.0000      -0.379699       -10.3321 
  52   1.0000      -0.374924       -10.2022 
  53   1.0000      -0.363576        -9.8934 
  54   1.0000      -0.359412        -9.7801 
  55   1.0000      -0.352978        -9.6050 
  56   1.0000      -0.349463        -9.5094 
  57   1.0000      -0.345491        -9.4013 
  58   1.0000      -0.332851        -9.0573 
  59   1.0000      -0.330950        -9.0056 
  60   1.0000      -0.326388        -8.8815 
  61   1.0000      -0.324021        -8.8171 
  62   1.0000      -0.322846        -8.7851 
  63   1.0000      -0.321174        -8.7396 
  64   1.0000      -0.319973        -8.7069 
  65   1.0000      -0.307042        -8.3550 
  66   1.0000      -0.297524        -8.0960 
  67   1.0000      -0.270387        -7.3576 
  68   1.0000      -0.240798        -6.5525 
  69   1.0000      -0.221903        -6.0383 
  70   1.0000      -0.214853        -5.8465 
  71   0.0000      -0.031527        -0.8579 
  72   0.0000       0.003931         0.1070 
  73   0.0000       0.049624         1.3503 
  74   0.0000       0.061932         1.6852 
  75   0.0000       0.063246         1.7210 
  76   0.0000       0.071212         1.9378 
  77   0.0000       0.075312         2.0493 
  78   0.0000       0.078058         2.1241 
  79   0.0000       0.083250         2.2654 
  80   0.0000       0.085405         2.3240 
  81   0.0000       0.091587         2.4922 
  82   0.0000       0.095379         2.5954 
  83   0.0000       0.096948         2.6381 
  84   0.0000       0.100401         2.7320 
  85   0.0000       0.107192         2.9169 
  86   0.0000       0.113781         3.0961 
  87   0.0000       0.115403         3.1403 
  88   0.0000       0.127992         3.4828 
  89   0.0000       0.137154         3.7321 
  90   0.0000       0.142461         3.8766 
  91   0.0000       0.147983         4.0268 
  92   0.0000       0.154730         4.2104 
  93   0.0000       0.156352         4.2546 
  94   0.0000       0.159216         4.3325 
  95   0.0000       0.161505         4.3948 
  96   0.0000       0.163405         4.4465 
  97   0.0000       0.169719         4.6183 
  98   0.0000       0.174368         4.7448 
  99   0.0000       0.179244         4.8775 
 100   0.0000       0.183728         4.9995 
 101   0.0000       0.187391         5.0992 
 102   0.0000       0.198425         5.3994 
 103   0.0000       0.200719         5.4618 
 104   0.0000       0.211470         5.7544 
 105   0.0000       0.216006         5.8778 
 106   0.0000       0.219236         5.9657 
 107   0.0000       0.224971         6.1218 
 108   0.0000       0.233213         6.3460 
 109   0.0000       0.239964         6.5297 
 110   0.0000       0.253936         6.9100 
 111   0.0000       0.267396         7.2762 
 112   0.0000       0.274014         7.4563 
 113   0.0000       0.287897         7.8341 
 114   0.0000       0.292507         7.9595 
 115   0.0000       0.329444         8.9646 
 116   0.0000       0.333936         9.0869 
 117   0.0000       0.353802         9.6275 
 118   0.0000       0.359694         9.7878 
 119   0.0000       0.375192        10.2095 
 120   0.0000       0.402420        10.9504 
 121   0.0000       0.411132        11.1875 
 122   0.0000       0.411860        11.2073 
 123   0.0000       0.413509        11.2522 
 124   0.0000       0.419817        11.4238 
 125   0.0000       0.421002        11.4561 
 126   0.0000       0.421641        11.4734 
 127   0.0000       0.437677        11.9098 
 128   0.0000       0.445700        12.1281 
 129   0.0000       0.452505        12.3133 
 130   0.0000       0.456801        12.4302 
 131   0.0000       0.465474        12.6662 
 132   0.0000       0.477144        12.9838 
 133   0.0000       0.482959        13.1420 
 134   0.0000       0.486864        13.2482 
 135   0.0000       0.489690        13.3251 
 136   0.0000       0.495184        13.4746 
 137   0.0000       0.501913        13.6577 
 138   0.0000       0.513946        13.9852 
 139   0.0000       0.514688        14.0054 
 140   0.0000       0.525010        14.2863 
 141   0.0000       0.528250        14.3744 
 142   0.0000       0.534527        14.5452 
 143   0.0000       0.540526        14.7084 
 144   0.0000       0.543208        14.7814 
 145   0.0000       0.546744        14.8777 
 146   0.0000       0.563832        15.3427 
 147   0.0000       0.571695        15.5566 
 148   0.0000       0.581514        15.8238 
 149   0.0000       0.593275        16.1438 
 150   0.0000       0.602190        16.3864 
 151   0.0000       0.610504        16.6126 
 152   0.0000       0.613058        16.6822 
 153   0.0000       0.619428        16.8555 
 154   0.0000       0.625104        17.0099 
 155   0.0000       0.626112        17.0374 
 156   0.0000       0.628154        17.0929 
 157   0.0000       0.635599        17.2955 
 158   0.0000       0.638891        17.3851 
 159   0.0000       0.643212        17.5027 
 160   0.0000       0.643929        17.5222 
 161   0.0000       0.647884        17.6298 
 162   0.0000       0.651685        17.7333 
 163   0.0000       0.654026        17.7970 
 164   0.0000       0.657550        17.8929 
 165   0.0000       0.659428        17.9440 
 166   0.0000       0.661014        17.9871 
 167   0.0000       0.661429        17.9984 
 168   0.0000       0.663472        18.0540 
 169   0.0000       0.666080        18.1250 
 170   0.0000       0.668292        18.1851 
 171   0.0000       0.671837        18.2816 
 172   0.0000       0.678884        18.4734 
 173   0.0000       0.685350        18.6493 
 174   0.0000       0.686660        18.6850 
 175   0.0000       0.690714        18.7953 
 176   0.0000       0.694537        18.8993 
 177   0.0000       0.696926        18.9643 
 178   0.0000       0.704095        19.1594 
 179   0.0000       0.707944        19.2641 
 180   0.0000       0.711109        19.3503 
 181   0.0000       0.712668        19.3927 
 182   0.0000       0.716307        19.4917 
 183   0.0000       0.725240        19.7348 
 184   0.0000       0.725690        19.7470 
 185   0.0000       0.727218        19.7886 
 186   0.0000       0.733209        19.9516 
 187   0.0000       0.739138        20.1130 
 188   0.0000       0.750408        20.4196 
 189   0.0000       0.762431        20.7468 
 190   0.0000       0.775451        21.1011 
 191   0.0000       0.779339        21.2069 
 192   0.0000       0.803948        21.8765 
 193   0.0000       0.809065        22.0158 
 194   0.0000       0.814995        22.1771 
 195   0.0000       0.836248        22.7555 
 196   0.0000       0.843128        22.9427 
 197   0.0000       0.858042        23.3485 
 198   0.0000       0.863902        23.5080 
 199   0.0000       0.873383        23.7660 
 200   0.0000       0.889387        24.2015 
 201   0.0000       0.898399        24.4467 
 202   0.0000       0.902148        24.5487 
 203   0.0000       0.925896        25.1949 
 204   0.0000       0.930160        25.3109 
 205   0.0000       0.954783        25.9810 
 206   0.0000       0.977713        26.6049 
 207   0.0000       0.995231        27.0816 
 208   0.0000       0.998946        27.1827 
 209   0.0000       1.005552        27.3625 
 210   0.0000       1.008266        27.4363 
 211   0.0000       1.031782        28.0762 
 212   0.0000       1.038192        28.2506 
 213   0.0000       1.047708        28.5096 
 214   0.0000       1.048924        28.5427 
 215   0.0000       1.058143        28.7935 
 216   0.0000       1.071435        29.1552 
 217   0.0000       1.086350        29.5611 
 218   0.0000       1.088088        29.6084 
 219   0.0000       1.120690        30.4955 
 220   0.0000       1.154427        31.4136 
 221   0.0000       1.160350        31.5747 
 222   0.0000       1.168889        31.8071 
 223   0.0000       1.192350        32.4455 
 224   0.0000       1.204790        32.7840 
 225   0.0000       1.210937        32.9513 
 226   0.0000       1.214452        33.0469 
 227   0.0000       1.215201        33.0673 
 228   0.0000       1.216200        33.0945 
 229   0.0000       1.218301        33.1516 
 230   0.0000       1.222838        33.2751 
 231   0.0000       1.223526        33.2938 
 232   0.0000       1.242880        33.8205 
 233   0.0000       1.259262        34.2663 
 234   0.0000       1.260743        34.3066 
 235   0.0000       1.287195        35.0264 
 236   0.0000       1.288480        35.0613 
 237   0.0000       1.298606        35.3369 
 238   0.0000       1.316277        35.8177 
 239   0.0000       1.323591        36.0167 
 240   0.0000       1.330355        36.2008 
 241   0.0000       1.333768        36.2937 
 242   0.0000       1.340540        36.4780 
 243   0.0000       1.346574        36.6422 
 244   0.0000       1.357774        36.9469 
 245   0.0000       1.380498        37.5652 
 246   0.0000       1.412113        38.4256 
 247   0.0000       1.414192        38.4821 
 248   0.0000       1.426481        38.8165 
 249   0.0000       1.428003        38.8579 
 250   0.0000       1.428502        38.8715 
 251   0.0000       1.433709        39.0132 
 252   0.0000       1.445547        39.3353 
 253   0.0000       1.460652        39.7464 
 254   0.0000       1.470696        40.0197 
 255   0.0000       1.472707        40.0744 
 256   0.0000       1.486021        40.4367 
 257   0.0000       1.497529        40.7498 
 258   0.0000       1.508515        41.0488 
 259   0.0000       1.511697        41.1354 
 260   0.0000       1.518926        41.3321 
 261   0.0000       1.526697        41.5435 
 262   0.0000       1.549696        42.1694 
 263   0.0000       1.586219        43.1632 
 264   0.0000       1.588960        43.2378 
 265   0.0000       1.595841        43.4250 
 266   0.0000       1.598453        43.4961 
 267   0.0000       1.606046        43.7027 
 268   0.0000       1.614119        43.9224 
 269   0.0000       1.618816        44.0502 
 270   0.0000       1.624023        44.1919 
 271   0.0000       1.628139        44.3039 
 272   0.0000       1.629005        44.3275 
 273   0.0000       1.631600        44.3981 
 274   0.0000       1.635544        44.5054 
 275   0.0000       1.646357        44.7996 
 276   0.0000       1.650056        44.9003 
 277   0.0000       1.651153        44.9302 
 278   0.0000       1.657136        45.0930 
 279   0.0000       1.660057        45.1724 
 280   0.0000       1.663557        45.2677 
 281   0.0000       1.665799        45.3287 
 282   0.0000       1.675799        45.6008 
 283   0.0000       1.680163        45.7196 
 284   0.0000       1.687474        45.9185 
 285   0.0000       1.692984        46.0684 
 286   0.0000       1.695036        46.1243 
 287   0.0000       1.698024        46.2056 
 288   0.0000       1.701161        46.2910 
 289   0.0000       1.703094        46.3435 
 290   0.0000       1.706881        46.4466 
 291   0.0000       1.710302        46.5397 
 292   0.0000       1.714706        46.6595 
 293   0.0000       1.718722        46.7688 
 294   0.0000       1.723985        46.9120 
 295   0.0000       1.726739        46.9869 
 296   0.0000       1.728053        47.0227 
 297   0.0000       1.736899        47.2634 
 298   0.0000       1.749292        47.6007 
 299   0.0000       1.754736        47.7488 
 300   0.0000       1.760500        47.9056 
 301   0.0000       1.763681        47.9922 
 302   0.0000       1.768334        48.1188 
 303   0.0000       1.772728        48.2384 
 304   0.0000       1.779064        48.4108 
 305   0.0000       1.785564        48.5877 
 306   0.0000       1.793679        48.8085 
 307   0.0000       1.797131        48.9024 
 308   0.0000       1.802492        49.0483 
 309   0.0000       1.804188        49.0945 
 310   0.0000       1.829374        49.7798 
 311   0.0000       1.835709        49.9522 
 312   0.0000       1.850074        50.3431 
 313   0.0000       1.855294        50.4851 
 314   0.0000       1.869176        50.8629 
 315   0.0000       1.872942        50.9653 
 316   0.0000       1.879686        51.1489 
 317   0.0000       1.889715        51.4218 
 318   0.0000       1.916825        52.1595 
 319   0.0000       1.920536        52.2604 
 320   0.0000       1.922007        52.3005 
 321   0.0000       1.924325        52.3635 
 322   0.0000       1.943286        52.8795 
 323   0.0000       1.948380        53.0181 
 324   0.0000       1.967308        53.5332 
 325   0.0000       1.973712        53.7074 
 326   0.0000       1.989443        54.1355 
 327   0.0000       1.995147        54.2907 
 328   0.0000       1.999154        54.3997 
 329   0.0000       2.014700        54.8228 
 330   0.0000       2.017254        54.8923 
 331   0.0000       2.039547        55.4989 
 332   0.0000       2.047266        55.7089 
 333   0.0000       2.053337        55.8742 
 334   0.0000       2.066249        56.2255 
 335   0.0000       2.075906        56.4883 
 336   0.0000       2.089915        56.8695 
 337   0.0000       2.094911        57.0054 
 338   0.0000       2.103367        57.2355 
 339   0.0000       2.122991        57.7695 
[...]
      pz      :     0.982675  p :     3.049610
      px      :     1.084873
      py      :     0.982062
      dz2     :     0.012573  d :     0.099636
      dxz     :     0.024841
      dyz     :     0.000191
      dx2y2   :     0.037371
      dxy     :     0.024661
 42 H s       :     0.884252  s :     0.884252
      pz      :     0.020273  p :     0.094428
      px      :     0.054396
      py      :     0.019759
 43 H s       :     0.896308  s :     0.896308
      pz      :     0.015554  p :     0.076390
      px      :     0.027399
      py      :     0.033437
 44 H s       :     0.896563  s :     0.896563
      pz      :     0.015916  p :     0.076373
      px      :     0.028152
      py      :     0.032305
 45 H s       :     0.896517  s :     0.896517
      pz      :     0.017838  p :     0.079585
      px      :     0.047098
      py      :     0.014648

SPIN
  0 C s       :    -0.000003  s :    -0.000003
      pz      :    -0.000032  p :    -0.000044
      px      :    -0.000004
      py      :    -0.000008
      dz2     :     0.000001  d :     0.000024
      dxz     :     0.000021
      dyz     :     0.000000
      dx2y2   :     0.000002
      dxy     :     0.000001
  1 C s       :    -0.000006  s :    -0.000006
      pz      :    -0.000141  p :    -0.000155
      px      :    -0.000005
      py      :    -0.000009
      dz2     :     0.000002  d :     0.000028
      dxz     :     0.000002
      dyz     :     0.000022
      dx2y2   :     0.000002
      dxy     :     0.000001
  2 C s       :     0.000010  s :     0.000010
      pz      :     0.000254  p :     0.000269
      px      :     0.000008
      py      :     0.000008
      dz2     :    -0.000001  d :    -0.000012
      dxz     :    -0.000005
      dyz     :    -0.000004
      dx2y2   :    -0.000001
      dxy     :    -0.000001
  3 C s       :    -0.000005  s :    -0.000005
      pz      :    -0.000125  p :    -0.000136
      px      :    -0.000007
      py      :    -0.000003
      dz2     :     0.000001  d :     0.000029
      dxz     :     0.000017
      dyz     :     0.000008
      dx2y2   :     0.000001
      dxy     :     0.000001
  4 C s       :     0.000019  s :     0.000019
      pz      :     0.000264  p :     0.000291
      px      :     0.000008
      py      :     0.000018
      dz2     :    -0.000001  d :    -0.000019
      dxz     :    -0.000003
      dyz     :    -0.000010
      dx2y2   :    -0.000004
      dxy     :    -0.000002
  5 C s       :    -0.000034  s :    -0.000034
      pz      :    -0.000191  p :    -0.000277
      px      :    -0.000030
      py      :    -0.000056
      dz2     :     0.000001  d :     0.000122
      dxz     :     0.000027
      dyz     :     0.000033
      dx2y2   :     0.000049
      dxy     :     0.000011
  6 C s       :     0.000031  s :     0.000031
      pz      :     0.000260  p :     0.000306
      px      :     0.000011
      py      :     0.000035
      dz2     :    -0.000000  d :    -0.000024
      dxz     :    -0.000010
      dyz     :    -0.000004
      dx2y2   :     0.000001
      dxy     :    -0.000010
  7 H s       :     0.000005  s :     0.000005
      pz      :    -0.000004  p :    -0.000004
      px      :    -0.000000
      py      :    -0.000000
  8 H s       :    -0.000002  s :    -0.000002
      pz      :     0.000005  p :     0.000015
      px      :     0.000001
      py      :     0.000009
  9 C s       :    -0.000002  s :    -0.000002
      pz      :    -0.000001  p :    -0.000009
      px      :    -0.000004
      py      :    -0.000004
      dz2     :     0.000000  d :     0.000013
      dxz     :     0.000008
      dyz     :     0.000004
      dx2y2   :     0.000000
      dxy     :     0.000001
 10 H s       :     0.000012  s :     0.000012
      pz      :    -0.000000  p :    -0.000000
      px      :    -0.000000
      py      :     0.000000
 11 H s       :     0.000012  s :     0.000012
      pz      :    -0.000000  p :    -0.000000
      px      :    -0.000000
      py      :     0.000000
 12 C s       :     0.000000  s :     0.000000
      pz      :     0.000000  p :     0.000000
      px      :     0.000000
      py      :     0.000000
      dz2     :    -0.000000  d :    -0.000000
      dxz     :     0.000000
      dyz     :    -0.000000
      dx2y2   :    -0.000000
      dxy     :    -0.000000
 13 H s       :    -0.000000  s :    -0.000000
      pz      :    -0.000000  p :    -0.000000
      px      :    -0.000000
      py      :    -0.000000
 14 H s       :     0.000000  s :     0.000000
      pz      :     0.000000  p :     0.000000
      px      :     0.000000
      py      :     0.000000
 15 C s       :    -0.000000  s :    -0.000000
      pz      :     0.000000  p :     0.000000
      px      :     0.000000
      py      :    -0.000000
      dz2     :    -0.000000  d :    -0.000000
      dxz     :    -0.000000
      dyz     :     0.000000
      dx2y2   :    -0.000000
      dxy     :    -0.000000
 16 H s       :     0.000000  s :     0.000000
      pz      :     0.000000  p :     0.000000
      px      :     0.000000
      py      :     0.000000
 17 H s       :     0.000000  s :     0.000000
      pz      :     0.000000  p :     0.000000
      px      :     0.000000
      py      :     0.000000
 18 C s       :    -0.000000  s :    -0.000000
      pz      :    -0.000000  p :    -0.000000
      px      :    -0.000000
      py      :    -0.000000
      dz2     :     0.000000  d :     0.000000
      dxz     :     0.000000
      dyz     :     0.000000
      dx2y2   :     0.000000
      dxy     :     0.000000
 19 H s       :     0.000000  s :     0.000000
      pz      :    -0.000000  p :    -0.000000
      px      :    -0.000000
      py      :    -0.000000
 20 H s       :     0.000000  s :     0.000000
      pz      :    -0.000000  p :    -0.000000
      px      :    -0.000000
      py      :    -0.000000
 21 C s       :    -0.000154  s :    -0.000154
      pz      :     0.000483  p :     0.000844
      px      :     0.000265
      py      :     0.000096
      dz2     :     0.000021  d :     0.000190
      dxz     :     0.000025
      dyz     :     0.000085
      dx2y2   :     0.000097
      dxy     :    -0.000036
 22 H s       :     0.000162  s :     0.000162
      pz      :    -0.000001  p :     0.000029
      px      :     0.000031
      py      :    -0.000001
 23 H s       :     0.000423  s :     0.000423
      pz      :     0.000035  p :     0.000194
      px      :     0.000018
      py      :     0.000141
 24 C s       :     0.002033  s :     0.002033
      pz      :     0.001355  p :     0.006188
      px      :     0.001246
      py      :     0.003587
      dz2     :    -0.000036  d :    -0.000689
      dxz     :     0.000046
      dyz     :    -0.000146
      dx2y2   :    -0.000544
      dxy     :    -0.000009
 25 H s       :    -0.000545  s :    -0.000545
      pz      :     0.000025  p :     0.000248
      px      :     0.000015
      py      :     0.000208
 26 H s       :     0.001217  s :     0.001217
      pz      :     0.000103  p :     0.000524
      px      :     0.000452
      py      :    -0.000030
 27 C s       :    -0.004404  s :    -0.004404
      pz      :    -0.006513  p :    -0.024221
      px      :    -0.006682
      py      :    -0.011026
      dz2     :     0.000794  d :     0.038105
      dxz     :     0.014414
      dyz     :     0.013869
      dx2y2   :     0.003117
      dxy     :     0.005911
 28 H s       :     0.015260  s :     0.015260
      pz      :    -0.000071  p :    -0.000899
      px      :    -0.000524
      py      :    -0.000305
 29 H s       :     0.047448  s :     0.047448
      pz      :    -0.000356  p :    -0.000355
      px      :    -0.000195
      py      :     0.000196
 30 C s       :     0.031403  s :     0.031403
      pz      :     0.620729  p :     0.802324
      px      :     0.164262
      py      :     0.017333
      dz2     :    -0.001399  d :    -0.003617
      dxz     :    -0.000319
      dyz     :    -0.000041
      dx2y2   :    -0.000525
      dxy     :    -0.001333
 31 H s       :    -0.020192  s :    -0.020192
      pz      :     0.018704  p :     0.026207
      px      :     0.007174
      py      :     0.000330
 32 C s       :    -0.004392  s :    -0.004392
      pz      :    -0.006815  p :    -0.024290
      px      :    -0.006255
      py      :    -0.011221
      dz2     :     0.001276  d :     0.037961
      dxz     :     0.011927
      dyz     :     0.015180
      dx2y2   :     0.001878
      dxy     :     0.007700
 33 H s       :     0.047811  s :     0.047811
      pz      :    -0.000378  p :    -0.000346
      px      :    -0.000157
      py      :     0.000189
 34 H s       :     0.014244  s :     0.014244
      pz      :    -0.000041  p :    -0.000881
      px      :    -0.000496
      py      :    -0.000344
 35 C s       :     0.002331  s :     0.002331
      pz      :     0.001047  p :     0.006791
      px      :     0.001637
      py      :     0.004107
      dz2     :    -0.000061  d :    -0.000655
      dxz     :     0.000008
      dyz     :    -0.000115
      dx2y2   :    -0.000567
      dxy     :     0.000081
 36 H s       :    -0.000583  s :    -0.000583
      pz      :     0.000027  p :     0.000250
      px      :     0.000021
      py      :     0.000202
 37 H s       :     0.001385  s :     0.001385
      pz      :     0.000114  p :     0.000555
      px      :     0.000473
      py      :    -0.000032
 38 C s       :    -0.000161  s :    -0.000161
      pz      :     0.000274  p :     0.000884
      px      :     0.000133
      py      :     0.000476
      dz2     :     0.000035  d :     0.000227
      dxz     :     0.000016
      dyz     :     0.000072
      dx2y2   :     0.000147
      dxy     :    -0.000043
 39 H s       :     0.000167  s :     0.000167
      pz      :    -0.000003  p :     0.000017
      px      :     0.000023
      py      :    -0.000004
 40 H s       :     0.000309  s :     0.000309
      pz      :     0.000042  p :     0.000164
      px      :     0.000016
      py      :     0.000106
 41 C s       :     0.000003  s :     0.000003
      pz      :     0.000085  p :     0.000103
      px      :     0.000002
      py      :     0.000016
      dz2     :    -0.000000  d :    -0.000003
      dxz     :    -0.000002
      dyz     :    -0.000000
      dx2y2   :    -0.000000
      dxy     :    -0.000001
 42 H s       :    -0.000003  s :    -0.000003
      pz      :     0.000002  p :     0.000003
      px      :     0.000001
      py      :     0.000000
 43 H s       :     0.000000  s :     0.000000
      pz      :    -0.000000  p :    -0.000000
      px      :    -0.000000
      py      :    -0.000000
 44 H s       :    -0.000142  s :    -0.000142
      pz      :     0.000023  p :     0.000079
      px      :     0.000029
      py      :     0.000027
 45 H s       :     0.000004  s :     0.000004
      pz      :    -0.000004  p :    -0.000005
      px      :    -0.000001
      py      :    -0.000000


                      *****************************
                      * MAYER POPULATION ANALYSIS *
                      *****************************

  NA   - Mulliken gross atomic population
  ZA   - Total nuclear charge
  QA   - Mulliken gross atomic charge
  VA   - Mayer's total valence
  BVA  - Mayer's bonded valence
  FA   - Mayer's free valence

  ATOM       NA         ZA         QA         VA         BVA        FA
  0 C      5.3790     6.0000     0.6210     2.9118     2.9118     0.0000
  1 C      5.9706     6.0000     0.0294     3.9582     3.9582     0.0000
  2 C      6.0265     6.0000    -0.0265     4.0869     4.0869     0.0000
  3 C      5.9698     6.0000     0.0302     3.8978     3.8978     0.0000
  4 C      6.0594     6.0000    -0.0594     3.8491     3.8491     0.0000
  5 C      6.0726     6.0000    -0.0726     4.1614     4.1614     0.0000
  6 C      5.9768     6.0000     0.0232     3.9742     3.9742     0.0000
  7 H      1.0555     1.0000    -0.0555     1.0010     1.0010     0.0000
  8 H      1.0442     1.0000    -0.0442     0.9846     0.9846     0.0000
  9 C      5.9659     6.0000     0.0341     4.0145     4.0145     0.0000
 10 H      0.9766     1.0000     0.0234     0.9656     0.9656     0.0000
 11 H      0.9743     1.0000     0.0257     0.9648     0.9648     0.0000
 12 C      6.0390     6.0000    -0.0390     4.1179     4.1179     0.0000
 13 H      0.9844     1.0000     0.0156     0.9645     0.9645     0.0000
 14 H      0.9822     1.0000     0.0178     0.9631     0.9631     0.0000
 15 C      6.0247     6.0000    -0.0247     4.1160     4.1160     0.0000
 16 H      0.9952     1.0000     0.0048     0.9670     0.9670     0.0000
 17 H      0.9952     1.0000     0.0048     0.9672     0.9672     0.0000
 18 C      5.9983     6.0000     0.0017     4.0186     4.0186     0.0000
 19 H      0.9829     1.0000     0.0171     0.9775     0.9775     0.0000
 20 H      0.9826     1.0000     0.0174     0.9773     0.9773     0.0000
 21 C      5.9543     6.0000     0.0457     4.0166     4.0166     0.0000
 22 H      0.9692     1.0000     0.0308     0.9691     0.9691     0.0000
 23 H      0.9697     1.0000     0.0303     0.9703     0.9703     0.0000
 24 C      6.0415     6.0000    -0.0415     4.1238     4.1237     0.0001
 25 H      0.9834     1.0000     0.0166     0.9621     0.9621     0.0000
 26 H      0.9818     1.0000     0.0182     0.9632     0.9632     0.0000
 27 C      5.9324     6.0000     0.0676     4.0022     3.9998     0.0025
 28 H      0.9936     1.0000     0.0064     0.9724     0.9720     0.0004
 29 H      0.9859     1.0000     0.0141     0.9652     0.9614     0.0038
 30 C      6.1135     6.0000    -0.1135     4.0046     3.2570     0.7475
 31 H      1.0180     1.0000    -0.0180     0.9897     0.9874     0.0023
 32 C      5.9590     6.0000     0.0410     4.0159     4.0134     0.0025
 33 H      0.9870     1.0000     0.0130     0.9642     0.9603     0.0039
 34 H      0.9960     1.0000     0.0040     0.9717     0.9714     0.0003
 35 C      6.0446     6.0000    -0.0446     4.1295     4.1293     0.0001
 36 H      0.9926     1.0000     0.0074     0.9653     0.9653     0.0000
 37 H      0.9917     1.0000     0.0083     0.9669     0.9669     0.0000
 38 C      6.0023     6.0000    -0.0023     4.0213     4.0213     0.0000
 39 H      0.9839     1.0000     0.0161     0.9771     0.9771     0.0000
 40 H      0.9841     1.0000     0.0159     0.9774     0.9774     0.0000
 41 C      6.5958     6.0000    -0.5958     3.4049     3.4049     0.0000
 42 H      1.0320     1.0000    -0.0320     1.0298     1.0298     0.0000
 43 H      0.9877     1.0000     0.0123     0.9734     0.9734    -0.0000
 44 H      0.9882     1.0000     0.0118     0.9735     0.9735     0.0000
 45 H      1.0561     1.0000    -0.0561     0.9793     0.9793     0.0000

  Mayer bond orders larger than 0.100000
B(  0-C ,  4-C ) :   0.9075 B(  0-C , 41-C ) :   2.1394 B(  1-C ,  2-C ) :   1.4220 
B(  1-C ,  6-C ) :   1.4307 B(  1-C , 45-H ) :   0.9332 B(  2-C ,  3-C ) :   1.4264 
B(  2-C ,  9-C ) :   1.0450 B(  3-C ,  4-C ) :   1.3926 B(  3-C ,  7-H ) :   0.9277 
B(  4-C ,  5-C ) :   1.4096 B(  5-C ,  6-C ) :   1.4417 B(  5-C , 21-C ) :   1.0881 
B(  6-C ,  8-H ) :   0.9185 B(  9-C , 10-H ) :   0.9148 B(  9-C , 11-H ) :   0.9135 
B(  9-C , 12-C ) :   1.1037 B( 12-C , 13-H ) :   0.9320 B( 12-C , 14-H ) :   0.9295 
B( 12-C , 15-C ) :   1.0751 B( 15-C , 16-H ) :   0.9414 B( 15-C , 17-H ) :   0.9413 
B( 15-C , 18-C ) :   1.1057 B( 18-C , 19-H ) :   0.9665 B( 18-C , 20-H ) :   0.9666 
B( 18-C , 43-H ) :   0.9621 B( 21-C , 22-H ) :   0.8984 B( 21-C , 23-H ) :   0.8982 
B( 21-C , 24-C ) :   1.0997 B( 24-C , 25-H ) :   0.9287 B( 24-C , 26-H ) :   0.9311 
B( 24-C , 27-C ) :   1.0731 B( 27-C , 28-H ) :   0.9243 B( 27-C , 29-H ) :   0.9113 
B( 27-C , 30-C ) :   1.0718 B( 30-C , 31-H ) :   0.9586 B( 30-C , 32-C ) :   1.0800 
B( 32-C , 33-H ) :   0.9156 B( 32-C , 34-H ) :   0.9283 B( 32-C , 35-C ) :   1.0710 
B( 35-C , 36-H ) :   0.9445 B( 35-C , 37-H ) :   0.9474 B( 35-C , 38-C ) :   1.1047 
B( 38-C , 39-H ) :   0.9667 B( 38-C , 40-H ) :   0.9664 B( 38-C , 44-H ) :   0.9628 
B( 41-C , 42-H ) :   1.1172 

-------
TIMINGS
-------

Total SCF time: 0 days 0 hours 0 min 55 sec 

Total time                  ....      55.384 sec
Sum of individual times     ....      52.397 sec  ( 94.6%)

Fock matrix formation       ....      47.010 sec  ( 84.9%)
  Split-RI-J                ....       4.009 sec  (  8.5% of F)
  Chain of spheres X        ....      27.302 sec  ( 58.1% of F)
  XC integration            ....      11.828 sec  ( 25.2% of F)
    Basis function eval.    ....       1.051 sec  (  8.9% of XC)
    Density eval.           ....       1.153 sec  (  9.8% of XC)
    XC-Functional eval.     ....       0.280 sec  (  2.4% of XC)
    XC-Potential eval.      ....       0.732 sec  (  6.2% of XC)
Diagonalization             ....       1.000 sec  (  1.8%)
Density matrix formation    ....       0.090 sec  (  0.2%)
Population analysis         ....       0.305 sec  (  0.5%)
Initial guess               ....       0.125 sec  (  0.2%)
Orbital Transformation      ....       0.000 sec  (  0.0%)
Orbital Orthonormalization  ....       0.078 sec  (  0.1%)
DIIS solution               ....       0.773 sec  (  1.4%)
Grid generation             ....       3.094 sec  (  5.6%)

Maximum memory used throughout the entire SCF-calculation: 102.4 MB

-------------------------   --------------------
FINAL SINGLE POINT ENERGY      -739.695999053792
-------------------------   --------------------

                                *** OPTIMIZATION RUN DONE ***

                            ***************************************
                            *     ORCA property calculations      *
                            ***************************************

                                    ---------------------
                                    Active property flags
                                    ---------------------
   (+) Dipole Moment


------------------------------------------------------------------------------
                       ORCA ELECTRIC PROPERTIES CALCULATION
------------------------------------------------------------------------------

Dipole Moment Calculation                       ... on
Quadrupole Moment Calculation                   ... off
Polarizability Calculation                      ... off
GBWName                                         ... opt.gbw
Electron density                                ... opt.scfp
The origin for moment calculation is the CENTER OF MASS  = ( 3.810679,  2.735609 -0.338386)

-------------
DIPOLE MOMENT
-------------
                                X             Y             Z
Electronic contribution:      4.23406     -11.00195      -0.16398
Nuclear contribution   :     -4.44592      11.00378       0.11775
                        -----------------------------------------
Total Dipole Moment    :     -0.21186       0.00183      -0.04623
                        -----------------------------------------
Magnitude (a.u.)       :      0.21685
Magnitude (Debye)      :      0.55120



--------------------
Rotational spectrum 
--------------------
 
Rotational constants in cm-1:     0.034304     0.002976     0.002760 
Rotational constants in MHz :  1028.401036    89.219646    82.746430 

 Dipole components along the rotational axes: 
x,y,z [a.u.] :    -0.034892    -0.209986    -0.041403 
x,y,z [Debye]:    -0.088689    -0.533742    -0.105239 

 

Timings for individual modules:

Sum of individual times         ...      826.097 sec (=  13.768 min)
GTO integral calculation        ...       28.576 sec (=   0.476 min)   3.5 %
SCF iterations                  ...      645.000 sec (=  10.750 min)  78.1 %
SCF Gradient evaluation         ...      150.395 sec (=   2.507 min)  18.2 %
Geometry relaxation             ...        2.125 sec (=   0.035 min)   0.3 %
                             ****ORCA TERMINATED NORMALLY****
TOTAL RUN TIME: 0 days 0 hours 14 minutes 20 seconds 75 msec
