
                                 *****************
                                 * O   R   C   A *
                                 *****************

                                            #,                                       
                                            ###                                      
                                            ####                                     
                                            #####                                    
                                            ######                                   
                                           ########,                                 
                                     ,,################,,,,,                         
                               ,,#################################,,                 
                          ,,##########################################,,             
                       ,#########################################, ''#####,          
                    ,#############################################,,   '####,        
                  ,##################################################,,,,####,       
                ,###########''''           ''''###############################       
              ,#####''   ,,,,##########,,,,          '''####'''          '####       
            ,##' ,,,,###########################,,,                        '##       
           ' ,,###''''                  '''############,,,                           
         ,,##''                                '''############,,,,        ,,,,,,###''
      ,#''                                            '''#######################'''  
     '                                                          ''''####''''         
             ,#######,   #######,   ,#######,      ##                                
            ,#'     '#,  ##    ##  ,#'     '#,    #''#        ######   ,####,        
            ##       ##  ##   ,#'  ##            #'  '#       #        #'  '#        
            ##       ##  #######   ##           ,######,      #####,   #    #        
            '#,     ,#'  ##    ##  '#,     ,#' ,#      #,         ##   #,  ,#        
             '#######'   ##     ##  '#######'  #'      '#     #####' # '####'        



                  #######################################################
                  #                        -***-                        #
                  #          Department of theory and spectroscopy      #
                  #    Directorship and core code : Frank Neese         #
                  #        Max Planck Institute fuer Kohlenforschung    #
                  #                Kaiser Wilhelm Platz 1               #
                  #                 D-45470 Muelheim/Ruhr               #
                  #                      Germany                        #
                  #                                                     #
                  #                  All rights reserved                #
                  #                        -***-                        #
                  #######################################################


                         Program Version 5.0.4 -  RELEASE  -


 With contributions from (in alphabetic order):
   Daniel Aravena         : Magnetic Suceptibility
   Michael Atanasov       : Ab Initio Ligand Field Theory (pilot matlab implementation)
   Alexander A. Auer      : GIAO ZORA, VPT2 properties, NMR spectrum
   Ute Becker             : Parallelization
   Giovanni Bistoni       : ED, misc. LED, open-shell LED, HFLD
   Martin Brehm           : Molecular dynamics
   Dmytro Bykov           : SCF Hessian
   Vijay G. Chilkuri      : MRCI spin determinant printing, contributions to CSF-ICE
   Dipayan Datta          : RHF DLPNO-CCSD density
   Achintya Kumar Dutta   : EOM-CC, STEOM-CC
   Dmitry Ganyushin       : Spin-Orbit,Spin-Spin,Magnetic field MRCI
   Miquel Garcia          : C-PCM and meta-GGA Hessian, CC/C-PCM, Gaussian charge scheme
   Yang Guo               : DLPNO-NEVPT2, F12-NEVPT2, CIM, IAO-localization
   Andreas Hansen         : Spin unrestricted coupled pair/coupled cluster methods
   Benjamin Helmich-Paris : MC-RPA, TRAH-SCF, COSX integrals
   Lee Huntington         : MR-EOM, pCC
   Robert Izsak           : Overlap fitted RIJCOSX, COSX-SCS-MP3, EOM
   Marcus Kettner         : VPT2
   Christian Kollmar      : KDIIS, OOCD, Brueckner-CCSD(T), CCSD density, CASPT2, CASPT2-K
   Simone Kossmann        : Meta GGA functionals, TD-DFT gradient, OOMP2, MP2 Hessian
   Martin Krupicka        : Initial AUTO-CI
   Lucas Lang             : DCDCAS
   Marvin Lechner         : AUTO-CI (C++ implementation), FIC-MRCC
   Dagmar Lenk            : GEPOL surface, SMD
   Dimitrios Liakos       : Extrapolation schemes; Compound Job, initial MDCI parallelization
   Dimitrios Manganas     : Further ROCIS development; embedding schemes
   Dimitrios Pantazis     : SARC Basis sets
   Anastasios Papadopoulos: AUTO-CI, single reference methods and gradients
   Taras Petrenko         : DFT Hessian,TD-DFT gradient, ASA, ECA, R-Raman, ABS, FL, XAS/XES, NRVS
   Peter Pinski           : DLPNO-MP2, DLPNO-MP2 Gradient
   Christoph Reimann      : Effective Core Potentials
   Marius Retegan         : Local ZFS, SOC
   Christoph Riplinger    : Optimizer, TS searches, QM/MM, DLPNO-CCSD(T), (RO)-DLPNO pert. Triples
   Tobias Risthaus        : Range-separated hybrids, TD-DFT gradient, RPA, STAB
   Michael Roemelt        : Original ROCIS implementation
   Masaaki Saitow         : Open-shell DLPNO-CCSD energy and density
   Barbara Sandhoefer     : DKH picture change effects
   Avijit Sen             : IP-ROCIS
   Kantharuban Sivalingam : CASSCF convergence, NEVPT2, FIC-MRCI
   Bernardo de Souza      : ESD, SOC TD-DFT
   Georgi Stoychev        : AutoAux, RI-MP2 NMR, DLPNO-MP2 response
   Willem Van den Heuvel  : Paramagnetic NMR
   Boris Wezisla          : Elementary symmetry handling
   Frank Wennmohs         : Technical directorship


 We gratefully acknowledge several colleagues who have allowed us to
 interface, adapt or use parts of their codes:
   Stefan Grimme, W. Hujo, H. Kruse, P. Pracht,  : VdW corrections, initial TS optimization,
                  C. Bannwarth, S. Ehlert          DFT functionals, gCP, sTDA/sTD-DF
   Ed Valeev, F. Pavosevic, A. Kumar             : LibInt (2-el integral package), F12 methods
   Garnet Chan, S. Sharma, J. Yang, R. Olivares  : DMRG
   Ulf Ekstrom                                   : XCFun DFT Library
   Mihaly Kallay                                 : mrcc  (arbitrary order and MRCC methods)
   Jiri Pittner, Ondrej Demel                    : Mk-CCSD
   Frank Weinhold                                : gennbo (NPA and NBO analysis)
   Christopher J. Cramer and Donald G. Truhlar   : smd solvation model
   Lars Goerigk                                  : TD-DFT with DH, B97 family of functionals
   V. Asgeirsson, H. Jonsson                     : NEB implementation
   FAccTs GmbH                                   : IRC, NEB, NEB-TS, DLPNO-Multilevel, CI-OPT
                                                   MM, QMMM, 2- and 3-layer-ONIOM, Crystal-QMMM,
                                                   LR-CPCM, SF, NACMEs, symmetry and pop. for TD-DFT,
                                                   nearIR, NL-DFT gradient (VV10), updates on ESD,
                                                   ML-optimized integration grids
   S Lehtola, MJT Oliveira, MAL Marques          : LibXC Library
   Liviu Ungur et al                             : ANISO software


 Your calculation uses the libint2 library for the computation of 2-el integrals
 For citations please refer to: http://libint.valeyev.net

 Your ORCA version has been built with support for libXC version: 5.1.0
 For citations please refer to: https://tddft.org/programs/libxc/

 This ORCA versions uses:
   CBLAS   interface :  Fast vector & matrix operations
   LAPACKE interface :  Fast linear algebra routines
   SCALAPACK package :  Parallel linear algebra routines
   Shared memory     :  Shared parallel matrices
   BLAS/LAPACK       :  OpenBLAS 0.3.15  USE64BITINT DYNAMIC_ARCH NO_AFFINITY SkylakeX SINGLE_THREADED
        Core in use  :  SkylakeX
   Copyright (c) 2011-2014, The OpenBLAS Project




***************************************
The coordinates will be read from file: model.xyz
***************************************


================================================================================

----- Orbital basis set information -----
Your calculation utilizes the basis: cc-pVDZ 
       H, B-Ne : Obtained from the ccRepo (grant-hill.group.shef.ac.uk/ccrepo) Feb. 2017
                 T. H. Dunning, Jr., J. Chem. Phys. 90, 1007 (1989)
            He : Obtained from the ccRepo (grant-hill.group.shef.ac.uk/ccrepo) Feb. 2017
                 D. E. Woon, T. H. Dunning, Jr., J. Chem. Phys. 100, 2975 (1994)
  Li-Be, Na-Mg : Obtained from the ccRepo (grant-hill.group.shef.ac.uk/ccrepo) Feb. 2017
                 B. P. Prascher, D. E. Woon, K. A. Peterson, T. H. Dunning, Jr., A. K. Wilson, Theor. Chem. Acc. 128, 69 (2011)
         Al-Ar : Obtained from the ccRepo (grant-hill.group.shef.ac.uk/ccrepo) Feb. 2017
                 D. E. Woon, T. H. Dunning, Jr., J. Chem. Phys. 98, 1358 (1993)
            Ca : Obtained from the Peterson Research Group Website (tyr0.chem.wsu.edu/~kipeters) Feb. 2017
                 J. Koput, K. A. Peterson, J. Phys. Chem. 106, 9595 (2002)
         Sc-Zn : Obtained from the ccRepo (grant-hill.group.shef.ac.uk/ccrepo) Feb. 2017
                 N. B. Balabanov, K. A. Peterson, J. Chem. Phys. 123, 064107 (2005)
                 N. B. Balabanov, K. A. Peterson, J. Chem. Phys. 125, 074110 (2006)
         Ga-Kr : Obtained from the ccRepo (grant-hill.group.shef.ac.uk/ccrepo) Feb. 2017
                 A. K. Wilson, D. E. Woon, K. A. Peterson, T. H. Dunning, Jr., J. Chem. Phys. 110, 7667 (1999)

----- AuxJ basis set information -----
Your calculation utilizes the auxiliary basis: def2/J
   F. Weigend, Phys. Chem. Chem. Phys. 8, 1057 (2006).

================================================================================
                                        WARNINGS
                       Please study these warnings very carefully!
================================================================================

WARNING: Old DensityContainer found on disk!
         Will remove this file - 
         If you want to keep old densities, please start your calculation with a different basename. 


WARNING: your system is open-shell and RHF/RKS was chosen
  ===> : WILL SWITCH to UHF/UKS


WARNING: Geometry Optimization
  ===> : Switching off AutoStart
         For restart on a previous wavefunction, please use MOREAD

INFO   : the flag for use of the SHARK integral package has been found!

================================================================================
                                       INPUT FILE
================================================================================
NAME = opt_cc-pVDZ.inp
|  1> ! B3LYP cc-pVDZ OPT
|  2> %pal nprocs 16 end
|  3> *XYZFile 0 2 model.xyz
|  4> 
|  5>                          ****END OF INPUT****
================================================================================

                       *****************************
                       * Geometry Optimization Run *
                       *****************************

Geometry optimization settings:
Update method            Update   .... BFGS
Choice of coordinates    CoordSys .... Z-matrix Internals
Initial Hessian          InHess   .... Almoef's Model

Convergence Tolerances:
Energy Change            TolE     ....  5.0000e-06 Eh
Max. Gradient            TolMAXG  ....  3.0000e-04 Eh/bohr
RMS Gradient             TolRMSG  ....  1.0000e-04 Eh/bohr
Max. Displacement        TolMAXD  ....  4.0000e-03 bohr
RMS Displacement         TolRMSD  ....  2.0000e-03 bohr
Strict Convergence                ....  False
------------------------------------------------------------------------------
                        ORCA OPTIMIZATION COORDINATE SETUP
------------------------------------------------------------------------------

The optimization will be done in new redundant internal coordinates
Making redundant internal coordinates   ...  (new redundants) done
Evaluating the initial hessian          ...  (Almloef) done
Evaluating the coordinates              ...  done
Calculating the B-matrix                .... done
Calculating the G-matrix                .... done
Diagonalizing the G-matrix              .... done
Small eigenvalue found = 8.878e-04
Small eigenvalue found = 4.143e-03
Small eigenvalue found = 4.228e-03
Small eigenvalue found = 1.045e-02
Small eigenvalue found = 1.234e-02
Small eigenvalue found = 2.191e-02
Small eigenvalue found = 2.590e-02
Small eigenvalue found = 2.845e-02
The first mode is                       ....  110
The number of degrees of freedom        ....  132

    -----------------------------------------------------------------
                    Redundant Internal Coordinates


    -----------------------------------------------------------------
         Definition                    Initial Value    Approx d2E/dq
    -----------------------------------------------------------------
      1. B(C   2,C   1)                  1.4043         0.592743   
      2. B(C   3,C   2)                  1.3976         0.607635   
      3. B(C   4,C   0)                  1.4342         0.531209   
      4. B(C   4,C   3)                  1.4105         0.579562   
      5. B(C   5,C   4)                  1.4175         0.564859   
      6. B(C   6,C   5)                  1.4014         0.599082   
      7. B(C   6,C   1)                  1.3958         0.611545   
      8. B(H   7,C   3)                  1.0903         0.359752   
      9. B(H   8,C   6)                  1.0910         0.358804   
     10. B(C   9,C   2)                  1.5202         0.387336   
     11. B(H  10,C   9)                  1.1062         0.339354   
     12. B(H  11,C   9)                  1.1066         0.338836   
     13. B(C  12,C   9)                  1.5310         0.372266   
     14. B(H  13,C  12)                  1.1057         0.339891   
     15. B(H  14,C  12)                  1.1056         0.340066   
     16. B(C  15,C  12)                  1.5333         0.369063   
     17. B(H  16,C  15)                  1.1060         0.339486   
     18. B(H  17,C  15)                  1.1060         0.339520   
     19. B(C  18,C  15)                  1.5308         0.372517   
     20. B(H  19,C  18)                  1.1038         0.342362   
     21. B(H  20,C  18)                  1.1037         0.342398   
     22. B(C  21,C   5)                  1.5168         0.392151   
     23. B(H  22,C  21)                  1.1059         0.339630   
     24. B(H  23,C  21)                  1.1057         0.339956   
     25. B(C  24,C  21)                  1.5305         0.372907   
     26. B(H  25,C  24)                  1.1053         0.340433   
     27. B(H  26,C  24)                  1.1045         0.341452   
     28. B(C  27,C  24)                  1.5363         0.365048   
     29. B(H  28,C  27)                  1.1082         0.336781   
     30. B(H  29,C  27)                  1.1152         0.328313   
     31. B(C  30,C  27)                  1.4946         0.425409   
     32. B(H  31,C  30)                  1.0978         0.349985   
     33. B(C  32,C  30)                  1.4946         0.425488   
     34. B(H  33,C  32)                  1.1156         0.327794   
     35. B(H  34,C  32)                  1.1085         0.336405   
     36. B(C  35,C  32)                  1.5363         0.365061   
     37. B(H  36,C  35)                  1.1059         0.339731   
     38. B(H  37,C  35)                  1.1049         0.340876   
     39. B(C  38,C  35)                  1.5303         0.373190   
     40. B(H  39,C  38)                  1.1039         0.342232   
     41. B(H  40,C  38)                  1.1039         0.342144   
     42. B(C  41,C   0)                  1.2161         1.183649   
     43. B(H  42,C  41)                  1.0723         0.384260   
     44. B(H  43,C  18)                  1.1021         0.344386   
     45. B(H  44,C  38)                  1.1022         0.344335   
     46. B(H  45,C   1)                  1.0943         0.354404   
     47. L(C   4,C   0,C  41,C   3, 1) 179.5537         0.474720   
     48. L(C   4,C   0,C  41,C   3, 2) 179.8898         0.474720   
     49. A(C   2,C   1,C   6)          121.4897         0.429513   
     50. A(C   2,C   1,H  45)          119.3101         0.349296   
     51. A(C   6,C   1,H  45)          119.2003         0.351142   
     52. A(C   1,C   2,C   3)          117.3186         0.429019   
     53. A(C   1,C   2,C   9)          119.5112         0.396073   
     54. A(C   3,C   2,C   9)          123.1700         0.397802   
     55. A(C   2,C   3,C   4)          121.6982         0.427292   
     56. A(C   4,C   3,H   7)          117.7065         0.348854   
     57. A(C   2,C   3,H   7)          120.5954         0.351651   
     58. A(C   0,C   4,C   5)          120.5682         0.415252   
     59. A(C   0,C   4,C   3)          118.8311         0.417155   
     60. A(C   3,C   4,C   5)          120.6007         0.421749   
     61. A(C   6,C   5,C  21)          123.0138         0.397675   
     62. A(C   4,C   5,C   6)          117.1579         0.424253   
     63. A(C   4,C   5,C  21)          119.8282         0.393593   
     64. A(C   5,C   6,H   8)          119.6414         0.350653   
     65. A(C   1,C   6,H   8)          118.6237         0.351875   
     66. A(C   1,C   6,C   5)          121.7350         0.430333   
     67. A(C   2,C   9,H  10)          108.2066         0.323088   
     68. A(H  10,C   9,H  11)          105.0615         0.285422   
     69. A(C   2,C   9,H  11)          108.2550         0.323007   
     70. A(H  11,C   9,C  12)          108.8569         0.320915   
     71. A(H  10,C   9,C  12)          108.9099         0.320995   
     72. A(C   2,C   9,C  12)          116.9100         0.365387   
     73. A(H  14,C  12,C  15)          109.0045         0.320652   
     74. A(H  13,C  12,C  15)          109.1651         0.320625   
     75. A(C   9,C  12,C  15)          112.8580         0.362381   
     76. A(H  13,C  12,H  14)          106.1477         0.285654   
     77. A(C   9,C  12,H  14)          109.7742         0.321105   
     78. A(C   9,C  12,H  13)          109.6665         0.321078   
     79. A(H  16,C  15,C  18)          109.5272         0.321051   
     80. A(C  12,C  15,C  18)          113.1829         0.362423   
     81. A(H  16,C  15,H  17)          105.8574         0.285529   
     82. A(C  12,C  15,H  17)          109.2326         0.320568   
     83. A(C  12,C  15,H  16)          109.2275         0.320562   
     84. A(H  17,C  15,C  18)          109.5508         0.321056   
     85. A(H  20,C  18,H  43)          107.6053         0.286545   
     86. A(C  15,C  18,H  43)          111.5116         0.321805   
     87. A(H  19,C  18,H  20)          107.3685         0.286281   
     88. A(C  15,C  18,H  20)          111.2841         0.321500   
     89. A(C  15,C  18,H  19)          111.2739         0.321495   
     90. A(H  19,C  18,H  43)          107.5909         0.286540   
     91. A(H  23,C  21,C  24)          109.2193         0.321179   
     92. A(H  22,C  21,C  24)          109.1280         0.321128   
     93. A(C   5,C  21,C  24)          116.8297         0.366269   
     94. A(H  22,C  21,H  23)          104.3977         0.285605   
     95. A(C   5,C  21,H  23)          108.3161         0.323838   
     96. A(C   5,C  21,H  22)          108.2313         0.323787   
     97. A(H  26,C  24,C  27)          108.8328         0.320292   
     98. A(H  25,C  24,C  27)          108.9129         0.320135   
     99. A(C  21,C  24,C  27)          112.4446         0.361811   
    100. A(H  25,C  24,H  26)          106.3246         0.285906   
    101. A(C  21,C  24,H  26)          110.1761         0.321409   
    102. A(C  21,C  24,H  25)          109.9517         0.321252   
    103. A(H  29,C  27,C  30)          110.0701         0.326326   
    104. A(H  28,C  27,C  30)          109.5888         0.327698   
    105. A(C  24,C  27,C  30)          114.0061         0.370067   
    106. A(H  28,C  27,H  29)          104.5199         0.283689   
    107. A(C  24,C  27,H  29)          108.5475         0.318247   
    108. A(C  24,C  27,H  28)          109.6759         0.319572   
    109. A(H  31,C  30,C  32)          118.0284         0.329794   
    110. A(C  27,C  30,C  32)          122.1148         0.379984   
    111. A(C  27,C  30,H  31)          118.0615         0.329784   
    112. A(H  33,C  32,C  35)          108.4267         0.318166   
    113. A(C  30,C  32,C  35)          114.1492         0.370081   
    114. A(H  33,C  32,H  34)          104.5773         0.283570   
    115. A(C  30,C  32,H  34)          109.5917         0.327647   
    116. A(C  30,C  32,H  33)          110.0280         0.326251   
    117. A(H  34,C  32,C  35)          109.6267         0.319515   
    118. A(H  37,C  35,C  38)          109.8496         0.321361   
    119. A(H  36,C  35,C  38)          109.6285         0.321184   
    120. A(C  32,C  35,C  38)          113.2230         0.361860   
    121. A(H  36,C  35,H  37)          105.9911         0.285739   
    122. A(C  32,C  35,H  37)          108.9412         0.320205   
    123. A(C  32,C  35,H  36)          108.9473         0.320029   
    124. A(H  40,C  38,H  44)          107.6142         0.286505   
    125. A(H  39,C  38,H  44)          107.5787         0.286516   
    126. A(C  35,C  38,H  44)          111.5352         0.321892   
    127. A(H  39,C  38,H  40)          107.3302         0.286231   
    128. A(C  35,C  38,H  40)          111.3093         0.321556   
    129. A(C  35,C  38,H  39)          111.2641         0.321569   
    130. L(C   0,C  41,H  42, 2)       180.0841         0.399027   
    131. L(C   0,C  41,H  42, 1)       180.0255         0.399027   
    132. D(C   9,C   2,C   1,C   6)    179.7270         0.024190   
    133. D(C   3,C   2,C   1,C   6)     -0.0914         0.024190   
    134. D(C   9,C   2,C   1,H  45)     -0.2749         0.024190   
    135. D(C   3,C   2,C   1,H  45)    179.9067         0.024190   
    136. D(H   7,C   3,C   2,C   9)      0.2930         0.025489   
    137. D(C   4,C   3,C   2,C   9)   -179.6984         0.025489   
    138. D(H   7,C   3,C   2,C   1)   -179.8958         0.025489   
    139. D(C   4,C   3,C   2,C   1)      0.1128         0.025489   
    140. D(C   0,C   4,C   3,C   2)    179.8981         0.023075   
    141. D(C   0,C   4,C   3,H   7)     -0.0935         0.023075   
    142. D(C   5,C   4,C   3,C   2)     -0.0569         0.023075   
    143. D(C   5,C   4,C   3,H   7)    179.9514         0.023075   
    144. D(C   6,C   5,C   4,C   3)     -0.0238         0.021871   
    145. D(C   6,C   5,C   4,C   0)   -179.9781         0.021871   
    146. D(C  21,C   5,C   4,C   0)     -0.0852         0.021871   
    147. D(C  21,C   5,C   4,C   3)    179.8690         0.021871   
    148. D(H   8,C   6,C   5,C   4)   -179.9462         0.024738   
    149. D(H   8,C   6,C   5,C  21)      0.1647         0.024738   
    150. D(C   1,C   6,C   5,C  21)   -179.8439         0.024738   
    151. D(C   1,C   6,C   5,C   4)      0.0452         0.024738   
    152. D(C   5,C   6,C   1,H  45)   -179.9849         0.025837   
    153. D(C   5,C   6,C   1,C   2)      0.0131         0.025837   
    154. D(H   8,C   6,C   1,H  45)      0.0066         0.025837   
    155. D(H   8,C   6,C   1,C   2)   -179.9954         0.025837   
    156. D(C  12,C   9,C   2,C   3)     -3.2036         0.011170   
    157. D(C  12,C   9,C   2,C   1)    176.9891         0.011170   
    158. D(H  11,C   9,C   2,C   3)    120.0999         0.011170   
    159. D(H  11,C   9,C   2,C   1)    -59.7073         0.011170   
    160. D(H  10,C   9,C   2,C   3)   -126.5381         0.011170   
    161. D(H  10,C   9,C   2,C   1)     53.6546         0.011170   
    162. D(H  13,C  12,C   9,C   2)    -57.5038         0.011070   
    163. D(C  15,C  12,C   9,H  10)    -56.4685         0.011070   
    164. D(C  15,C  12,C   9,C   2)   -179.4415         0.011070   
    165. D(H  14,C  12,C   9,H  11)    -64.2449         0.011070   
    166. D(H  14,C  12,C   9,H  10)   -178.2777         0.011070   
    167. D(H  14,C  12,C   9,C   2)     58.7493         0.011070   
    168. D(H  13,C  12,C   9,H  11)    179.5021         0.011070   
    169. D(C  15,C  12,C   9,H  11)     57.5643         0.011070   
    170. D(H  13,C  12,C   9,H  10)     65.4693         0.011070   
    171. D(C  18,C  15,C  12,H  14)    -57.7583         0.010892   
    172. D(C  18,C  15,C  12,C   9)    179.9994         0.010892   
    173. D(H  17,C  15,C  12,H  14)    179.9005         0.010892   
    174. D(H  17,C  15,C  12,H  13)    -64.5615         0.010892   
    175. D(H  17,C  15,C  12,C   9)     57.6582         0.010892   
    176. D(H  16,C  15,C  12,H  14)     64.5490         0.010892   
    177. D(C  18,C  15,C  12,H  13)     57.7797         0.010892   
    178. D(H  16,C  15,C  12,H  13)   -179.9131         0.010892   
    179. D(H  16,C  15,C  12,C   9)    -57.6933         0.010892   
    180. D(H  43,C  18,C  15,H  17)    -58.0087         0.011084   
    181. D(H  43,C  18,C  15,H  16)     57.6876         0.011084   
    182. D(H  20,C  18,C  15,H  17)     62.1533         0.011084   
    183. D(H  20,C  18,C  15,H  16)    177.8496         0.011084   
    184. D(H  20,C  18,C  15,C  12)    -60.0104         0.011084   
    185. D(H  43,C  18,C  15,C  12)    179.8276         0.011084   
    186. D(H  19,C  18,C  15,H  16)    -62.4492         0.011084   
    187. D(H  19,C  18,C  15,C  12)     59.6908         0.011084   
    188. D(H  19,C  18,C  15,H  17)   -178.1455         0.011084   
    189. D(C  24,C  21,C   5,C   4)    179.1210         0.011435   
    190. D(H  23,C  21,C   5,C   6)   -124.7733         0.011435   
    191. D(H  23,C  21,C   5,C   4)     55.3404         0.011435   
    192. D(H  22,C  21,C   5,C   6)    122.5952         0.011435   
    193. D(C  24,C  21,C   5,C   6)     -0.9927         0.011435   
    194. D(H  22,C  21,C   5,C   4)    -57.2910         0.011435   
    195. D(C  27,C  24,C  21,H  23)    -56.4066         0.011106   
    196. D(C  27,C  24,C  21,C   5)   -179.7244         0.011106   
    197. D(H  26,C  24,C  21,H  23)   -177.9999         0.011106   
    198. D(H  26,C  24,C  21,H  22)    -64.4452         0.011106   
    199. D(H  26,C  24,C  21,C   5)     58.6823         0.011106   
    200. D(H  25,C  24,C  21,H  23)     65.1301         0.011106   
    201. D(C  27,C  24,C  21,H  22)     57.1482         0.011106   
    202. D(H  25,C  24,C  21,H  22)    178.6848         0.011106   
    203. D(H  25,C  24,C  21,C   5)    -58.1877         0.011106   
    204. D(C  30,C  27,C  24,H  26)    -57.6861         0.010671   
    205. D(C  30,C  27,C  24,H  25)     57.8313         0.010671   
    206. D(C  30,C  27,C  24,C  21)    179.9583         0.010671   
    207. D(H  29,C  27,C  24,H  26)    179.2435         0.010671   
    208. D(H  29,C  27,C  24,H  25)    -65.2391         0.010671   
    209. D(H  29,C  27,C  24,C  21)     56.8879         0.010671   
    210. D(H  28,C  27,C  24,H  26)     65.6138         0.010671   
    211. D(H  28,C  27,C  24,H  25)   -178.8688         0.010671   
    212. D(H  28,C  27,C  24,C  21)    -56.7418         0.010671   
    213. D(C  32,C  30,C  27,H  29)    -73.1448         0.013373   
    214. D(C  32,C  30,C  27,H  28)     41.2701         0.013373   
    215. D(C  32,C  30,C  27,C  24)    164.6172         0.013373   
    216. D(H  31,C  30,C  27,H  29)     91.2866         0.013373   
    217. D(H  31,C  30,C  27,H  28)   -154.2985         0.013373   
    218. D(H  31,C  30,C  27,C  24)    -30.9514         0.013373   
    219. D(C  35,C  32,C  30,H  31)     32.5018         0.013377   
    220. D(C  35,C  32,C  30,C  27)   -163.0619         0.013377   
    221. D(H  34,C  32,C  30,H  31)    155.8896         0.013377   
    222. D(H  34,C  32,C  30,C  27)    -39.6740         0.013377   
    223. D(H  33,C  32,C  30,H  31)    -89.6484         0.013377   
    224. D(H  33,C  32,C  30,C  27)     74.7880         0.013377   
    225. D(C  38,C  35,C  32,H  34)     57.0472         0.010672   
    226. D(C  38,C  35,C  32,H  33)    -56.5599         0.010672   
    227. D(C  38,C  35,C  32,C  30)   -179.5838         0.010672   
    228. D(H  37,C  35,C  32,H  34)    -65.4930         0.010672   
    229. D(H  37,C  35,C  32,H  33)   -179.1002         0.010672   
    230. D(H  37,C  35,C  32,C  30)     57.8760         0.010672   
    231. D(H  36,C  35,C  32,H  34)    179.3083         0.010672   
    232. D(H  36,C  35,C  32,H  33)     65.7012         0.010672   
    233. D(H  36,C  35,C  32,C  30)    -57.3227         0.010672   
    234. D(H  44,C  38,C  35,H  36)     58.2992         0.011122   
    235. D(H  44,C  38,C  35,C  32)   -179.8202         0.011122   
    236. D(H  40,C  38,C  35,H  37)   -177.9925         0.011122   
    237. D(H  40,C  38,C  35,H  36)    -61.9073         0.011122   
    238. D(H  40,C  38,C  35,C  32)     59.9733         0.011122   
    239. D(H  39,C  38,C  35,H  37)     62.3445         0.011122   
    240. D(H  39,C  38,C  35,H  36)    178.4297         0.011122   
    241. D(H  44,C  38,C  35,H  37)    -57.7860         0.011122   
    242. D(H  39,C  38,C  35,C  32)    -59.6897         0.011122   
    -----------------------------------------------------------------

Number of atoms                         .... 46
Number of degrees of freedom            .... 242

         *************************************************************
         *                GEOMETRY OPTIMIZATION CYCLE   1            *
         *************************************************************
---------------------------------
CARTESIAN COORDINATES (ANGSTROEM)
---------------------------------
  C      4.303993   -0.099044   -0.019986
  C      0.095379    0.041847   -0.250332
  C      0.727206   -1.205028   -0.115214
  C      2.122929   -1.212411   -0.043556
  C      2.874308   -0.020154   -0.101380
  C      2.228091    1.234157   -0.236580
  C      0.828539    1.228178   -0.309060
  H      2.668303   -2.150773    0.059972
  H      0.289670    2.170928   -0.414345
  C     -0.115666   -2.468406   -0.049589
  H     -0.784199   -2.484013   -0.930720
  H     -0.791676   -2.389160    0.822893
  C      0.636247   -3.799827    0.026362
  H      1.309912   -3.896981   -0.845049
  H      1.286422   -3.811728    0.920477
  C     -0.301843   -5.011708    0.074983
  H     -0.977280   -4.914794    0.945461
  H     -0.955453   -5.002515   -0.817199
  C      0.442407   -6.347212    0.151027
  H      1.079450   -6.399990    1.050835
  H      1.097598   -6.491215   -0.725436
  C      3.053158    2.505621   -0.293993
  H      3.669351    2.559915    0.622764
  H      3.788282    2.406081   -1.113865
  C      2.286495    3.819607   -0.461501
  H      1.683582    3.789097   -1.387366
  H      1.571864    3.952366    0.370090
  C      3.218416    5.039823   -0.514112
  H      3.844016    5.071239    0.400108
  H      3.946453    4.894522   -1.346232
  C      2.505214    6.343014   -0.678289
  H      1.561879    6.348293   -1.239679
  C      3.174852    7.653563   -0.417869
  H      3.874748    7.897348   -1.251684
  H      3.824892    7.567710    0.475950
  C      2.204128    8.830751   -0.238803
  H      1.570192    8.913846   -1.141092
  H      1.516816    8.605008    0.596374
  C      2.912091   10.163176    0.016523
  H      3.531850   10.118821    0.928896
  H      3.579244   10.430027   -0.821537
  C      5.515728   -0.175457    0.048577
  H      6.584104   -0.243307    0.110603
  H     -0.257066   -7.198161    0.187741
  H      2.190725   10.986727    0.143833
  H     -0.996407    0.085398   -0.311066

----------------------------
CARTESIAN COORDINATES (A.U.)
----------------------------
  NO LB      ZA    FRAG     MASS         X           Y           Z
   0 C     6.0000    0    12.011    8.133368   -0.187165   -0.037768
   1 C     6.0000    0    12.011    0.180239    0.079078   -0.473059
   2 C     6.0000    0    12.011    1.374220   -2.277173   -0.217723
   3 C     6.0000    0    12.011    4.011755   -2.291125   -0.082310
   4 C     6.0000    0    12.011    5.431655   -0.038085   -0.191581
   5 C     6.0000    0    12.011    4.210482    2.332219   -0.447072
   6 C     6.0000    0    12.011    1.565712    2.320921   -0.584040
   7 H     1.0000    0     1.008    5.042361   -4.064372    0.113331
   8 H     1.0000    0     1.008    0.547398    4.102459   -0.782998
   9 C     6.0000    0    12.011   -0.218578   -4.664611   -0.093709
  10 H     1.0000    0     1.008   -1.481922   -4.694104   -1.758806
  11 H     1.0000    0     1.008   -1.496052   -4.514858    1.555042
  12 C     6.0000    0    12.011    1.202332   -7.180633    0.049817
  13 H     1.0000    0     1.008    2.475375   -7.364228   -1.596911
  14 H     1.0000    0     1.008    2.430986   -7.203122    1.739450
  15 C     6.0000    0    12.011   -0.570401   -9.470755    0.141698
  16 H     1.0000    0     1.008   -1.846792   -9.287615    1.786663
  17 H     1.0000    0     1.008   -1.805544   -9.453382   -1.544282
  18 C     6.0000    0    12.011    0.836027  -11.994492    0.285399
  19 H     1.0000    0     1.008    2.039866  -12.094228    1.985790
  20 H     1.0000    0     1.008    2.074160  -12.266619   -1.370876
  21 C     6.0000    0    12.011    5.769632    4.734937   -0.555566
  22 H     1.0000    0     1.008    6.934068    4.837539    1.176852
  23 H     1.0000    0     1.008    7.158815    4.546834   -2.104900
  24 C     6.0000    0    12.011    4.320850    7.218011   -0.872110
  25 H     1.0000    0     1.008    3.181510    7.160355   -2.621742
  26 H     1.0000    0     1.008    2.970393    7.468889    0.699368
  27 C     6.0000    0    12.011    6.081926    9.523885   -0.971530
  28 H     1.0000    0     1.008    7.264138    9.583253    0.756095
  29 H     1.0000    0     1.008    7.457715    9.249306   -2.544009
  30 C     6.0000    0    12.011    4.734168   11.986560   -1.281780
  31 H     1.0000    0     1.008    2.951523   11.996535   -2.342654
  32 C     6.0000    0    12.011    5.999601   14.463137   -0.789657
  33 H     1.0000    0     1.008    7.322213   14.923825   -2.365340
  34 H     1.0000    0     1.008    7.227999   14.300899    0.899416
  35 C     6.0000    0    12.011    4.165199   16.687701   -0.451272
  36 H     1.0000    0     1.008    2.967233   16.844727   -2.156351
  37 H     1.0000    0     1.008    2.866366   16.261108    1.126983
  38 C     6.0000    0    12.011    5.503055   19.205619    0.031224
  39 H     1.0000    0     1.008    6.674230   19.121801    1.755359
  40 H     1.0000    0     1.008    6.763791   19.709896   -1.552480
  41 C     6.0000    0    12.011   10.423215   -0.331566    0.091797
  42 H     1.0000    0     1.008   12.442153   -0.459784    0.209009
  43 H     1.0000    0     1.008   -0.485785  -13.602553    0.354779
  44 H     1.0000    0     1.008    4.139869   20.761905    0.271806
  45 H     1.0000    0     1.008   -1.882936    0.161379   -0.587830

--------------------------------
INTERNAL COORDINATES (ANGSTROEM)
--------------------------------
 C      0   0   0     0.000000000000     0.00000000     0.00000000
 C      1   0   0     4.217267605314     0.00000000     0.00000000
 C      2   1   0     1.404335839355    61.05917944     0.00000000
 C      3   2   1     1.397581289152   117.31855105   359.93081548
 C      4   3   2     1.410457667856   121.69815711     0.11280711
 C      5   4   3     1.417452211844   120.60070249   359.94306814
 C      2   1   3     1.395835449026    60.43048081   179.97823380
 H      4   3   2     1.090263092744   120.59538612   180.10419748
 H      7   2   1     1.090981785792   118.62367839   179.98227717
 C      3   2   1     1.520152664705   119.51119788   179.74922628
 H     10   3   2     1.106152145971   108.20656321    53.65462085
 H     10   3   2     1.106568332075   108.25502794   300.29265110
 C     10   3   2     1.530955288703   116.90996100   176.98913102
 H     13  10   3     1.105722139290   109.66648721   302.49624649
 H     13  10   3     1.105582149477   109.77419113    58.74925706
 C     13  10   3     1.533307519737   112.85800538   180.55849391
 H     16  13  10     1.106046784222   109.22748351   302.30666372
 H     16  13  10     1.106019083694   109.23256118    57.65818003
 C     16  13  10     1.530771518507   113.18292093   179.99942115
 H     19  16  13     1.103750193219   111.27394370    59.69080120
 H     19  16  13     1.103721263703   111.28414851   299.98960799
 C      6   5   4     1.516789682418   119.82821011   179.86898971
 H     22   6   5     1.105931011271   108.23126521   302.70895442
 H     22   6   5     1.105670120289   108.31613910    55.34037549
 C     22   6   5     1.530486753679   116.82974887   179.12097525
 H     25  22   6     1.105288044218   109.95170627   301.81226574
 H     25  22   6     1.104475093840   110.17614524    58.68228741
 C     25  22   6     1.536285203199   112.44463511   180.27562253
 H     28  25  22     1.108224109920   109.67589191   303.25821190
 H     28  25  22     1.115156146016   108.54752561    56.88788539
 C     28  25  22     1.494630551553   114.00612795   179.95834673
 H     31  28  25     1.097755836451   118.06150904   329.04861691
 C     31  28  25     1.494580520597   122.11484849   164.61718009
 H     33  31  28     1.115586911276   110.02797811    74.78797326
 H     33  31  28     1.108528193491   109.59174295   320.32599168
 C     33  31  28     1.536275400507   114.14916441   196.93810627
 H     36  33  31     1.105850040393   108.94728716   302.67732659
 H     36  33  31     1.104934005282   108.94123051    57.87595306
 C     36  33  31     1.530280503978   113.22300645   180.41624551
 H     39  36  33     1.103853937675   111.26410751   300.31032679
 H     39  36  33     1.103923792860   111.30930330    59.97330787
 C      1   2   3     1.216076144828   178.30857588     1.10884777
 H     42   1   5     1.072323332254   179.91234577   284.13399622
 H     19  16  13     1.102145667214   111.51164448   179.82761984
 H     39  36  33     1.102186211315   111.53521094   180.17984320
 H      2   1   3     1.094340127783   179.63013783   183.26556386

---------------------------
INTERNAL COORDINATES (A.U.)
---------------------------
 C      0   0   0     0.000000000000     0.00000000     0.00000000
 C      1   0   0     7.969480807502     0.00000000     0.00000000
 C      2   1   0     2.653810136432    61.05917944     0.00000000
 C      3   2   1     2.641045886390   117.31855105   359.93081548
 C      4   3   2     2.665378715737   121.69815711     0.11280711
 C      5   4   3     2.678596488306   120.60070249   359.94306814
 C      2   1   3     2.637746726678    60.43048081   179.97823380
 H      4   3   2     2.060298659208   120.59538612   180.10419748
 H      7   2   1     2.061656792244   118.62367839   179.98227717
 C      3   2   1     2.872672218043   119.51119788   179.74922628
 H     10   3   2     2.090324618335   108.20656321    53.65462085
 H     10   3   2     2.091111096091   108.25502794   300.29265110
 C     10   3   2     2.893086218928   116.90996100   176.98913102
 H     13  10   3     2.089512023472   109.66648721   302.49624649
 H     13  10   3     2.089247481064   109.77419113    58.74925706
 C     13  10   3     2.897531291385   112.85800538   180.55849391
 H     16  13  10     2.090125513485   109.22748351   302.30666372
 H     16  13  10     2.090073167072   109.23256118    57.65818003
 C     16  13  10     2.892738943585   113.18292093   179.99942115
 H     19  16  13     2.085785585446   111.27394370    59.69080120
 H     19  16  13     2.085730916585   111.28414851   299.98960799
 C      6   5   4     2.866317102528   119.82821011   179.86898971
 H     22   6   5     2.089906734314   108.23126521   302.70895442
 H     22   6   5     2.089413721806   108.31613910    55.34037549
 C     22   6   5     2.892200816048   116.82974887   179.12097525
 H     25  22   6     2.088691702669   109.95170627   301.81226574
 H     25  22   6     2.087155449095   110.17614524    58.68228741
 C     25  22   6     2.903158297642   112.44463511   180.27562253
 H     28  25  22     2.094240062757   109.67589191   303.25821190
 H     28  25  22     2.107339712530   108.54752561    56.88788539
 C     28  25  22     2.824442413826   114.00612795   179.95834673
 H     31  28  25     2.074457892805   118.06150904   329.04861691
 C     31  28  25     2.824347869022   122.11484849   164.61718009
 H     33  31  28     2.108153740899   110.02797811    74.78797326
 H     33  31  28     2.094814697429   109.59174295   320.32599168
 C     33  31  28     2.903139773239   114.14916441   196.93810627
 H     36  33  31     2.089753721529   108.94728716   302.67732659
 H     36  33  31     2.088022666040   108.94123051    57.87595306
 C     36  33  31     2.891811060598   113.22300645   180.41624551
 H     39  36  33     2.085981634057   111.26410751   300.31032679
 H     39  36  33     2.086113641225   111.30930330    59.97330787
 C      1   2   3     2.298050871720   178.30857588     1.10884777
 H     42   1   5     2.026397424974   179.91234577   284.13399622
 H     19  16  13     2.082753470722   111.51164448   179.82761984
 H     39  36  33     2.082830087969   111.53521094   180.17984320
 H      2   1   3     2.068003138871   179.63013783   183.26556386

---------------------
BASIS SET INFORMATION
---------------------
There are 2 groups of distinct atoms

 Group   1 Type C   : 17s4p1d contracted to 3s2p1d pattern {881/31/1}
 Group   2 Type H   : 4s1p contracted to 2s1p pattern {31/1}

Atom   0C    basis set group =>   1
Atom   1C    basis set group =>   1
Atom   2C    basis set group =>   1
Atom   3C    basis set group =>   1
Atom   4C    basis set group =>   1
Atom   5C    basis set group =>   1
Atom   6C    basis set group =>   1
Atom   7H    basis set group =>   2
Atom   8H    basis set group =>   2
Atom   9C    basis set group =>   1
Atom  10H    basis set group =>   2
Atom  11H    basis set group =>   2
Atom  12C    basis set group =>   1
Atom  13H    basis set group =>   2
Atom  14H    basis set group =>   2
Atom  15C    basis set group =>   1
Atom  16H    basis set group =>   2
Atom  17H    basis set group =>   2
Atom  18C    basis set group =>   1
Atom  19H    basis set group =>   2
Atom  20H    basis set group =>   2
Atom  21C    basis set group =>   1
Atom  22H    basis set group =>   2
Atom  23H    basis set group =>   2
Atom  24C    basis set group =>   1
Atom  25H    basis set group =>   2
Atom  26H    basis set group =>   2
Atom  27C    basis set group =>   1
Atom  28H    basis set group =>   2
Atom  29H    basis set group =>   2
Atom  30C    basis set group =>   1
Atom  31H    basis set group =>   2
Atom  32C    basis set group =>   1
Atom  33H    basis set group =>   2
Atom  34H    basis set group =>   2
Atom  35C    basis set group =>   1
Atom  36H    basis set group =>   2
Atom  37H    basis set group =>   2
Atom  38C    basis set group =>   1
Atom  39H    basis set group =>   2
Atom  40H    basis set group =>   2
Atom  41C    basis set group =>   1
Atom  42H    basis set group =>   2
Atom  43H    basis set group =>   2
Atom  44H    basis set group =>   2
Atom  45H    basis set group =>   2
---------------------------------
AUXILIARY/J BASIS SET INFORMATION
---------------------------------
There are 2 groups of distinct atoms

 Group   1 Type C   : 12s5p4d2f1g contracted to 6s4p3d1f1g pattern {711111/2111/211/2/1}
 Group   2 Type H   : 5s2p1d contracted to 3s1p1d pattern {311/2/1}

Atom   0C    basis set group =>   1
Atom   1C    basis set group =>   1
Atom   2C    basis set group =>   1
Atom   3C    basis set group =>   1
Atom   4C    basis set group =>   1
Atom   5C    basis set group =>   1
Atom   6C    basis set group =>   1
Atom   7H    basis set group =>   2
Atom   8H    basis set group =>   2
Atom   9C    basis set group =>   1
Atom  10H    basis set group =>   2
Atom  11H    basis set group =>   2
Atom  12C    basis set group =>   1
Atom  13H    basis set group =>   2
Atom  14H    basis set group =>   2
Atom  15C    basis set group =>   1
Atom  16H    basis set group =>   2
Atom  17H    basis set group =>   2
Atom  18C    basis set group =>   1
Atom  19H    basis set group =>   2
Atom  20H    basis set group =>   2
Atom  21C    basis set group =>   1
Atom  22H    basis set group =>   2
Atom  23H    basis set group =>   2
Atom  24C    basis set group =>   1
Atom  25H    basis set group =>   2
Atom  26H    basis set group =>   2
Atom  27C    basis set group =>   1
Atom  28H    basis set group =>   2
Atom  29H    basis set group =>   2
Atom  30C    basis set group =>   1
Atom  31H    basis set group =>   2
Atom  32C    basis set group =>   1
Atom  33H    basis set group =>   2
Atom  34H    basis set group =>   2
Atom  35C    basis set group =>   1
Atom  36H    basis set group =>   2
Atom  37H    basis set group =>   2
Atom  38C    basis set group =>   1
Atom  39H    basis set group =>   2
Atom  40H    basis set group =>   2
Atom  41C    basis set group =>   1
Atom  42H    basis set group =>   2
Atom  43H    basis set group =>   2
Atom  44H    basis set group =>   2
Atom  45H    basis set group =>   2


           ************************************************************
           *        Program running with 16 parallel MPI-processes    *
           *              working on a common directory               *
           ************************************************************
------------------------------------------------------------------------------
                           ORCA GTO INTEGRAL CALCULATION
                           -- RI-GTO INTEGRALS CHOSEN --
------------------------------------------------------------------------------
------------------------------------------------------------------------------
                   ___                                                        
                  /   \      - P O W E R E D   B Y -                         
                 /     \                                                     
                 |  |  |   _    _      __       _____    __    __             
                 |  |  |  | |  | |    /  \     |  _  \  |  |  /  |          
                  \  \/   | |  | |   /    \    | | | |  |  | /  /          
                 / \  \   | |__| |  /  /\  \   | |_| |  |  |/  /          
                |  |  |   |  __  | /  /__\  \  |    /   |      \           
                |  |  |   | |  | | |   __   |  |    \   |  |\   \          
                \     /   | |  | | |  |  |  |  | |\  \  |  | \   \       
                 \___/    |_|  |_| |__|  |__|  |_| \__\ |__|  \__/        
                                                                              
                      - O R C A' S   B I G   F R I E N D -                    
                                      &                                       
                       - I N T E G R A L  F E E D E R -                       
                                                                              
 v1 FN, 2020, v2 2021                                                         
------------------------------------------------------------------------------


Reading SHARK input file opt_cc-pVDZ.SHARKINP.tmp ... ok
----------------------
SHARK INTEGRAL PACKAGE
----------------------

Number of atoms                             ...     46
Number of basis functions                   ...    515
Number of shells                            ...    309
Maximum angular momentum                    ...      2
Integral batch strategy                     ... SHARK/LIBINT Hybrid
RI-J (if used) integral strategy            ... SPLIT-RIJ (Revised 2003 algorithm where possible)
Printlevel                                  ...      1
Contraction scheme used                     ... PARTIAL GENERAL contraction
Coulomb Range Separation                    ... NOT USED
Exchange Range Separation                   ... NOT USED
Finite Nucleus Model                        ... NOT USED
Auxiliary Coulomb fitting basis             ... AVAILABLE
   # of basis functions in Aux-J            ...   1228
   # of shells in Aux-J                     ...    420
   Maximum angular momentum in Aux-J        ...      4
Auxiliary J/K fitting basis                 ... NOT available
Auxiliary Correlation fitting basis         ... NOT available
Auxiliary 'external' fitting basis          ... NOT available
Integral threshold                          ...     2.500000e-11
Primitive cut-off                           ...     2.500000e-12
Primitive pair pre-selection threshold      ...     2.500000e-12

Calculating pre-screening integrals         ... done (  0.0 sec) Dimension = 309
Calculating pre-screening integrals (ORCA)  ... done (  0.1 sec) Dimension = 195
Organizing shell pair data                  ... done (  0.1 sec)
Shell pair information
Total number of shell pairs                 ...     47895
Shell pairs after pre-screening             ...     20699
Total number of primitive shell pairs       ...     80739
Primitive shell pairs kept                  ...     29260
          la=0 lb=0:   9313 shell pairs
          la=1 lb=0:   7225 shell pairs
          la=1 lb=1:   1287 shell pairs
          la=2 lb=0:   2038 shell pairs
          la=2 lb=1:    723 shell pairs
          la=2 lb=2:    113 shell pairs

Calculating one electron integrals          ... done (  0.0 sec)
Calculating RI/J V-Matrix + Cholesky decomp.... done (  0.2 sec)
Calculating Nuclear repulsion               ... done (  0.0 sec) ENN=   1246.903824399165 Eh

SHARK setup successfully completed in   1.0 seconds

Maximum memory used throughout the entire GTOINT-calculation: 30.5 MB


           ************************************************************
           *        Program running with 16 parallel MPI-processes    *
           *              working on a common directory               *
           ************************************************************
-------------------------------------------------------------------------------
                                 ORCA SCF
-------------------------------------------------------------------------------

------------
SCF SETTINGS
------------
Hamiltonian:
 Density Functional     Method          .... DFT(GTOs)
 Exchange Functional    Exchange        .... B88
   X-Alpha parameter    XAlpha          ....  0.666667
   Becke's b parameter  XBeta           ....  0.004200
 Correlation Functional Correlation     .... LYP
 LDA part of GGA corr.  LDAOpt          .... VWN-5
 Gradients option       PostSCFGGA      .... off
 Hybrid DFT is turned on
   Fraction HF Exchange ScalHFX         ....  0.200000
   Scaling of DF-GGA-X  ScalDFX         ....  0.720000
   Scaling of DF-GGA-C  ScalDFC         ....  0.810000
   Scaling of DF-LDA-C  ScalLDAC        ....  1.000000
   Perturbative correction              ....  0.000000
   Density functional embedding theory  .... OFF
   NL short-range parameter             ....  4.800000
 RI-approximation to the Coulomb term is turned on
   Number of AuxJ basis functions       .... 1228
   RIJ-COSX (HFX calculated with COS-X)).... on


General Settings:
 Integral files         IntName         .... opt_cc-pVDZ
 Hartree-Fock type      HFTyp           .... UHF
 Total Charge           Charge          ....    0
 Multiplicity           Mult            ....    2
 Number of Electrons    NEL             ....  141
 Basis Dimension        Dim             ....  401
 Nuclear Repulsion      ENuc            ....   1246.9038243992 Eh

Convergence Acceleration:
 DIIS                   CNVDIIS         .... on
   Start iteration      DIISMaxIt       ....    12
   Startup error        DIISStart       ....  0.200000
   # of expansion vecs  DIISMaxEq       ....     5
   Bias factor          DIISBfac        ....   1.050
   Max. coefficient     DIISMaxC        ....  10.000
 Trust-Rad. Augm. Hess. CNVTRAH         .... auto
   Auto Start mean grad. ratio tolernc. ....  1.125000
   Auto Start start iteration           ....    20
   Auto Start num. interpolation iter.  ....    10
   Max. Number of Micro iterations      ....    16
   Max. Number of Macro iterations      .... Maxiter - #DIIS iter
   Number of Davidson start vectors     ....     2
   Converg. threshold I  (grad. norm)   ....   1.000e-05
   Converg. threshold II (energy diff.) ....   1.000e-08
   Grad. Scal. Fac. for Micro threshold ....   0.100
   Minimum threshold for Micro iter.    ....   0.010
   NR start threshold (gradient norm)   ....   0.001
   Initial trust radius                 ....   0.400
   Minimum AH scaling param. (alpha)    ....   1.000
   Maximum AH scaling param. (alpha)    .... 1000.000
   Orbital update algorithm             .... Taylor
   White noise on init. David. guess    .... on
   Maximum white noise                  ....   0.010
   Quad. conv. algorithm                .... NR
 SOSCF                  CNVSOSCF        .... off
 Level Shifting         CNVShift        .... on
   Level shift para.    LevelShift      ....    0.2500
   Turn off err/grad.   ShiftErr        ....    0.0010
 Zerner damping         CNVZerner       .... off
 Static damping         CNVDamp         .... on
   Fraction old density DampFac         ....    0.7000
   Max. Damping (<1)    DampMax         ....    0.9800
   Min. Damping (>=0)   DampMin         ....    0.0000
   Turn off err/grad.   DampErr         ....    0.1000
 Fernandez-Rico         CNVRico         .... off

SCF Procedure:
 Maximum # iterations   MaxIter         ....   125
 SCF integral mode      SCFMode         .... Direct
   Integral package                     .... SHARK and LIBINT hybrid scheme
 Reset frequency        DirectResetFreq ....    20
 Integral Threshold     Thresh          ....  2.500e-11 Eh
 Primitive CutOff       TCut            ....  2.500e-12 Eh

Convergence Tolerance:
 Convergence Check Mode ConvCheckMode   .... Total+1el-Energy
 Convergence forced     ConvForced      .... 0
 Energy Change          TolE            ....  1.000e-08 Eh
 1-El. energy change                    ....  1.000e-05 Eh
 DIIS Error             TolErr          ....  5.000e-07


Diagonalization of the overlap matrix:
Smallest eigenvalue                        ... 1.539e-04
Time for diagonalization                   ...    0.034 sec
Threshold for overlap eigenvalues          ... 1.000e-08
Number of eigenvalues below threshold      ... 0
Time for construction of square roots      ...    0.035 sec
Total time needed                          ...    0.070 sec

Time for model grid setup =    0.249 sec

------------------------------
INITIAL GUESS: MODEL POTENTIAL
------------------------------
Loading Hartree-Fock densities                     ... done
Calculating cut-offs                               ... done
Initializing the effective Hamiltonian             ... done
Setting up the integral package (SHARK)            ... done
Starting the Coulomb interaction                   ... done (   0.2 sec)
Reading the grid                                   ... done
Mapping shells                                     ... done
Starting the XC term evaluation                    ... done (   0.1 sec)
  promolecular density results
     # of electrons  =    140.991299659
     EX              =   -105.605164816
     EC              =     -4.582281843
     EX+EC           =   -110.187446659
Transforming the Hamiltonian                       ... done (   0.0 sec)
Diagonalizing the Hamiltonian                      ... done (   0.0 sec)
Back transforming the eigenvectors                 ... done (   0.0 sec)
Now organizing SCF variables                       ... done
                      ------------------
                      INITIAL GUESS DONE (   0.8 sec)
                      ------------------
-------------------
DFT GRID GENERATION
-------------------

General Integration Accuracy     IntAcc      ... 4.388
Radial Grid Type                 RadialGrid  ... OptM3 with GC (2021)
Angular Grid (max. ang.)         AngularGrid ... 4 (Lebedev-302)
Angular grid pruning method      GridPruning ... 4 (adaptive)
Weight generation scheme         WeightScheme... Becke
Basis function cutoff            BFCut       ... 1.0000e-11
Integration weight cutoff        WCut        ... 1.0000e-14
Angular grids for H and He will be reduced by one unit
Partially contracted basis set               ... off
Rotationally invariant grid construction     ... off

Total number of grid points                  ...   199722
Total number of batches                      ...     3144
Average number of points per batch           ...       63
Average number of grid points per atom       ...     4342
Time for grid setup =    1.106 sec

--------------------
COSX GRID GENERATION
--------------------

GRIDX 1
-------
General Integration Accuracy     IntAcc      ... 3.816
Radial Grid Type                 RadialGrid  ... OptM3 with GC (2021)
Angular Grid (max. ang.)         AngularGrid ... 1 (Lebedev-50)
Angular grid pruning method      GridPruning ... 4 (adaptive)
Weight generation scheme         WeightScheme... Becke
Basis function cutoff            BFCut       ... 1.0000e-11
Integration weight cutoff        WCut        ... 1.0000e-14
Angular grids for H and He will be reduced by one unit
Partially contracted basis set               ... on
Rotationally invariant grid construction     ... off

Total number of grid points                  ...    25504
Total number of batches                      ...      424
Average number of points per batch           ...       60
Average number of grid points per atom       ...      554
UseSFitting                                  ... on

GRIDX 2
-------
General Integration Accuracy     IntAcc      ... 4.020
Radial Grid Type                 RadialGrid  ... OptM3 with GC (2021)
Angular Grid (max. ang.)         AngularGrid ... 2 (Lebedev-110)
Angular grid pruning method      GridPruning ... 4 (adaptive)
Weight generation scheme         WeightScheme... Becke
Basis function cutoff            BFCut       ... 1.0000e-11
Integration weight cutoff        WCut        ... 1.0000e-14
Angular grids for H and He will be reduced by one unit
Partially contracted basis set               ... on
Rotationally invariant grid construction     ... off

Total number of grid points                  ...    53567
Total number of batches                      ...      862
Average number of points per batch           ...       62
Average number of grid points per atom       ...     1164
UseSFitting                                  ... on

GRIDX 3
-------
General Integration Accuracy     IntAcc      ... 4.338
Radial Grid Type                 RadialGrid  ... OptM3 with GC (2021)
Angular Grid (max. ang.)         AngularGrid ... 3 (Lebedev-194)
Angular grid pruning method      GridPruning ... 4 (adaptive)
Weight generation scheme         WeightScheme... Becke
Basis function cutoff            BFCut       ... 1.0000e-11
Integration weight cutoff        WCut        ... 1.0000e-14
Angular grids for H and He will be reduced by one unit
Partially contracted basis set               ... on
Rotationally invariant grid construction     ... off

Total number of grid points                  ...   116746
Total number of batches                      ...     1847
Average number of points per batch           ...       63
Average number of grid points per atom       ...     2538
UseSFitting                                  ... on

Time for X-Grid setup             =    1.975 sec

 re-compute Schwartz prescreening matrix in partically contracted basis (1) ...done (   0.111 sec)
--------------
SCF ITERATIONS
--------------
ITER       Energy         Delta-E        Max-DP      RMS-DP      [F,P]     Damp
               ***  Starting incremental Fock matrix formation  ***
  0   -739.1793415790   0.000000000000 0.06480699  0.00079864  0.0868769 0.7000
  1   -739.4112206334  -0.231879054440 0.04777877  0.00059366  0.0457773 0.7000
                               ***Turning on DIIS***
  2   -739.5131226000  -0.101901966543 0.09341658  0.00111052  0.0175359 0.0000
  3   -739.6534049445  -0.140282344568 0.01869388  0.00033199  0.0249153 0.0000
  4   -739.6932823305  -0.039877385945 0.00905990  0.00011401  0.0066077 0.0000
  5   -739.6955625244  -0.002280193913 0.00140058  0.00003580  0.0015315 0.0000
  6   -739.6957511079  -0.000188583537 0.00156744  0.00002250  0.0007719 0.0000
               *** Restarting incremental Fock matrix formation ***
                                   *** Resetting DIIS ***
  7   -739.6959985390  -0.000247431033 0.00110235  0.00001017  0.0011421 0.0000
  8   -739.6959964282   0.000002110796 0.00038284  0.00000362  0.0013825 0.0000
  9   -739.6960048601  -0.000008431956 0.00022589  0.00000226  0.0004612 0.0000
 10   -739.6960060012  -0.000001141058 0.00005600  0.00000066  0.0000568 0.0000
 11   -739.6960060311  -0.000000029896 0.00002621  0.00000038  0.0000365 0.0000
 12   -739.6960060495  -0.000000018440 0.00001243  0.00000016  0.0000084 0.0000
 13   -739.6960060387   0.000000010827 0.00000674  0.00000008  0.0000077 0.0000
 14   -739.6960060466  -0.000000007877 0.00000596  0.00000004  0.0000012 0.0000
 15   -739.6960060486  -0.000000002058 0.00000255  0.00000002  0.0000035 0.0000
 16   -739.6960060470   0.000000001612 0.00000090  0.00000001  0.0000016 0.0000
                 **** Energy Check signals convergence ****

               *****************************************************
               *                     SUCCESS                       *
               *           SCF CONVERGED AFTER  17 CYCLES          *
               *****************************************************

Old exchange energy                            =    -21.608792621 Eh
New exchange energy                            =    -21.608785618 Eh
Exchange energy change after final integration =      0.000007003 Eh
Total energy after final integration           =   -739.695999039 Eh
Final COS-X integration done in                =     5.820 sec

----------------
TOTAL SCF ENERGY
----------------

Total Energy       :         -739.69599904 Eh          -20128.15143 eV

Components:
Nuclear Repulsion  :         1246.90382440 Eh           33929.97803 eV
Electronic Energy  :        -1986.59982344 Eh          -54058.12946 eV
One Electron Energy:        -3471.60056158 Eh          -94467.05389 eV
Two Electron Energy:         1485.00073814 Eh           40408.92443 eV
Max COSX asymmetry :            0.00000048 Eh               0.00001 eV

Virial components:
Potential Energy   :        -1473.98103436 Eh          -40109.06305 eV
Kinetic Energy     :          734.28503532 Eh           19980.91162 eV
Virial Ratio       :            2.00736902


DFT components:
N(Alpha)           :       71.000045495268 electrons
N(Beta)            :       70.000046721148 electrons
N(Total)           :      141.000092216416 electrons
E(X)               :      -85.625324495772 Eh       
E(C)               :       -5.415287707852 Eh       
E(XC)              :      -91.040612203624 Eh       
DFET-embed. en.    :        0.000000000000 Eh       

---------------
SCF CONVERGENCE
---------------

  Last Energy change         ...    4.9320e-09  Tolerance :   1.0000e-08
  Last MAX-Density change    ...    0.0000e+00  Tolerance :   1.0000e-07
  Last RMS-Density change    ...    0.0000e+00  Tolerance :   5.0000e-09
  Last DIIS Error            ...    3.1586e-07  Tolerance :   5.0000e-07

             **** THE GBW FILE WAS UPDATED (opt_cc-pVDZ.gbw) ****
             **** DENSITY opt_cc-pVDZ.scfp WAS UPDATED ****
             **** ENERGY FILE WAS UPDATED (opt_cc-pVDZ.en.tmp) ****
----------------------
UHF SPIN CONTAMINATION
----------------------

Warning: in a DFT calculation there is little theoretical justification to 
         calculate <S**2> as in Hartree-Fock theory. We will do it anyways
         but you should keep in mind that the values have only limited relevance

Expectation value of <S**2>     :     0.754011
Ideal value S*(S+1) for S=0.5   :     0.750000
Deviation                       :     0.004011

             **** THE GBW FILE WAS UPDATED (opt_cc-pVDZ.gbw) ****
             **** DENSITY opt_cc-pVDZ.scfp WAS UPDATED ****
----------------
ORBITAL ENERGIES
----------------
                 SPIN UP ORBITALS
  NO   OCC          E(Eh)            E(eV) 
   0   1.0000     -10.205277      -277.6997 
   1   1.0000     -10.195723      -277.4397 
   2   1.0000     -10.192110      -277.3414 
   3   1.0000     -10.187634      -277.2196 
   4   1.0000     -10.186840      -277.1980 
   5   1.0000     -10.186365      -277.1851 
   6   1.0000     -10.185074      -277.1499 
   7   1.0000     -10.184060      -277.1224 
   8   1.0000     -10.183471      -277.1063 
   9   1.0000     -10.182720      -277.0859 
  10   1.0000     -10.182061      -277.0680 
  11   1.0000     -10.181379      -277.0494 
  12   1.0000     -10.181370      -277.0492 
  13   1.0000     -10.181157      -277.0434 
  14   1.0000     -10.181113      -277.0422 
  15   1.0000     -10.180733      -277.0318 
  16   1.0000     -10.179294      -276.9927 
  17   1.0000     -10.175679      -276.8943 
  18   1.0000     -10.173830      -276.8440 
  19   1.0000      -0.863632       -23.5006 
  20   1.0000      -0.813180       -22.1277 
  21   1.0000      -0.803397       -21.8615 
  22   1.0000      -0.784572       -21.3493 
  23   1.0000      -0.776585       -21.1319 
  24   1.0000      -0.758556       -20.6413 
  25   1.0000      -0.731680       -19.9100 
  26   1.0000      -0.721270       -19.6267 
  27   1.0000      -0.705026       -19.1847 
  28   1.0000      -0.672369       -18.2961 
  29   1.0000      -0.639179       -17.3929 
  30   1.0000      -0.618004       -16.8167 
  31   1.0000      -0.609294       -16.5797 
  32   1.0000      -0.584554       -15.9065 
  33   1.0000      -0.577381       -15.7113 
  34   1.0000      -0.561605       -15.2821 
  35   1.0000      -0.559913       -15.2360 
  36   1.0000      -0.525163       -14.2904 
  37   1.0000      -0.493270       -13.4226 
  38   1.0000      -0.470389       -12.7999 
  39   1.0000      -0.470124       -12.7927 
  40   1.0000      -0.467125       -12.7111 
  41   1.0000      -0.459839       -12.5129 
  42   1.0000      -0.453961       -12.3529 
  43   1.0000      -0.430247       -11.7076 
  44   1.0000      -0.426978       -11.6187 
  45   1.0000      -0.422258       -11.4902 
  46   1.0000      -0.419057       -11.4031 
  47   1.0000      -0.412984       -11.2379 
  48   1.0000      -0.406603       -11.0642 
  49   1.0000      -0.405034       -11.0215 
  50   1.0000      -0.383817       -10.4442 
  51   1.0000      -0.379711       -10.3324 
  52   1.0000      -0.374674       -10.1954 
  53   1.0000      -0.363550        -9.8927 
  54   1.0000      -0.361754        -9.8438 
  55   1.0000      -0.353814        -9.6278 
  56   1.0000      -0.349262        -9.5039 
  57   1.0000      -0.347259        -9.4494 
  58   1.0000      -0.333610        -9.0780 
  59   1.0000      -0.330675        -8.9981 
  60   1.0000      -0.327832        -8.9208 
  61   1.0000      -0.325700        -8.8628 
  62   1.0000      -0.323605        -8.8058 
  63   1.0000      -0.322588        -8.7781 
  64   1.0000      -0.321163        -8.7393 
  65   1.0000      -0.313034        -8.5181 
  66   1.0000      -0.298430        -8.1207 
  67   1.0000      -0.270288        -7.3549 
  68   1.0000      -0.240808        -6.5527 
  69   1.0000      -0.222515        -6.0549 
  70   1.0000      -0.180765        -4.9189 
  71   0.0000      -0.029972        -0.8156 
  72   0.0000       0.002626         0.0715 
  73   0.0000       0.049774         1.3544 
  74   0.0000       0.062018         1.6876 
  75   0.0000       0.064693         1.7604 
  76   0.0000       0.072389         1.9698 
  77   0.0000       0.076517         2.0821 
  78   0.0000       0.077162         2.0997 
  79   0.0000       0.082814         2.2535 
  80   0.0000       0.086486         2.3534 
  81   0.0000       0.093205         2.5362 
  82   0.0000       0.095907         2.6098 
  83   0.0000       0.097066         2.6413 
  84   0.0000       0.100683         2.7397 
  85   0.0000       0.104227         2.8362 
  86   0.0000       0.113083         3.0772 
  87   0.0000       0.115212         3.1351 
  88   0.0000       0.128054         3.4845 
  89   0.0000       0.136547         3.7156 
  90   0.0000       0.141470         3.8496 
  91   0.0000       0.148310         4.0357 
  92   0.0000       0.152247         4.1428 
  93   0.0000       0.156937         4.2705 
  94   0.0000       0.159107         4.3295 
  95   0.0000       0.160642         4.3713 
  96   0.0000       0.161904         4.4056 
  97   0.0000       0.166903         4.5417 
  98   0.0000       0.172195         4.6857 
  99   0.0000       0.178046         4.8449 
 100   0.0000       0.179075         4.8729 
 101   0.0000       0.183859         5.0031 
 102   0.0000       0.199302         5.4233 
 103   0.0000       0.203264         5.5311 
 104   0.0000       0.212125         5.7722 
 105   0.0000       0.216888         5.9018 
 106   0.0000       0.226132         6.1534 
 107   0.0000       0.233058         6.3418 
 108   0.0000       0.236631         6.4391 
 109   0.0000       0.240393         6.5414 
 110   0.0000       0.256255         6.9731 
 111   0.0000       0.271601         7.3907 
 112   0.0000       0.279855         7.6152 
 113   0.0000       0.287067         7.8115 
 114   0.0000       0.296342         8.0639 
 115   0.0000       0.329980         8.9792 
 116   0.0000       0.337656         9.1881 
 117   0.0000       0.353206         9.6112 
 118   0.0000       0.361372         9.8334 
 119   0.0000       0.374747        10.1974 
 120   0.0000       0.408812        11.1243 
 121   0.0000       0.412033        11.2120 
 122   0.0000       0.413550        11.2533 
 123   0.0000       0.416787        11.3414 
 124   0.0000       0.420528        11.4431 
 125   0.0000       0.420731        11.4487 
 126   0.0000       0.426070        11.5939 
 127   0.0000       0.437223        11.8974 
 128   0.0000       0.448577        12.2064 
 129   0.0000       0.455222        12.3872 
 130   0.0000       0.459242        12.4966 
 131   0.0000       0.463606        12.6154 
 132   0.0000       0.473520        12.8851 
 133   0.0000       0.480584        13.0774 
 134   0.0000       0.487272        13.2593 
 135   0.0000       0.489772        13.3274 
 136   0.0000       0.497496        13.5376 
 137   0.0000       0.503734        13.7073 
 138   0.0000       0.505268        13.7490 
 139   0.0000       0.518350        14.1050 
 140   0.0000       0.523710        14.2509 
 141   0.0000       0.526305        14.3215 
 142   0.0000       0.535518        14.5722 
 143   0.0000       0.536986        14.6121 
 144   0.0000       0.545849        14.8533 
 145   0.0000       0.555813        15.1244 
 146   0.0000       0.569072        15.4852 
 147   0.0000       0.574699        15.6383 
 148   0.0000       0.580863        15.8061 
 149   0.0000       0.598649        16.2901 
 150   0.0000       0.601928        16.3793 
 151   0.0000       0.609094        16.5743 
 152   0.0000       0.610990        16.6259 
 153   0.0000       0.615187        16.7401 
 154   0.0000       0.618954        16.8426 
 155   0.0000       0.627069        17.0634 
 156   0.0000       0.629400        17.1268 
 157   0.0000       0.634686        17.2707 
 158   0.0000       0.637902        17.3582 
 159   0.0000       0.642996        17.4968 
 160   0.0000       0.644900        17.5486 
 161   0.0000       0.646800        17.6003 
 162   0.0000       0.651318        17.7233 
 163   0.0000       0.656729        17.8705 
 164   0.0000       0.658235        17.9115 
 165   0.0000       0.658606        17.9216 
 166   0.0000       0.659719        17.9519 
 167   0.0000       0.661331        17.9957 
 168   0.0000       0.662936        18.0394 
 169   0.0000       0.665608        18.1121 
 170   0.0000       0.670556        18.2468 
 171   0.0000       0.672886        18.3101 
 172   0.0000       0.679210        18.4822 
 173   0.0000       0.683973        18.6119 
 174   0.0000       0.685495        18.6533 
 175   0.0000       0.690425        18.7874 
 176   0.0000       0.695295        18.9199 
 177   0.0000       0.696996        18.9662 
 178   0.0000       0.702969        19.1288 
 179   0.0000       0.706170        19.2159 
 180   0.0000       0.712821        19.3969 
 181   0.0000       0.714633        19.4461 
 182   0.0000       0.719727        19.5848 
 183   0.0000       0.721107        19.6223 
 184   0.0000       0.726219        19.7614 
 185   0.0000       0.731326        19.9004 
 186   0.0000       0.737375        20.0650 
 187   0.0000       0.743187        20.2231 
 188   0.0000       0.760927        20.7059 
 189   0.0000       0.766112        20.8470 
 190   0.0000       0.777236        21.1497 
 191   0.0000       0.779117        21.2009 
 192   0.0000       0.803408        21.8618 
 193   0.0000       0.813978        22.1495 
 194   0.0000       0.817086        22.2340 
 195   0.0000       0.834322        22.7031 
 196   0.0000       0.844581        22.9822 
 197   0.0000       0.851328        23.1658 
 198   0.0000       0.858415        23.3587 
 199   0.0000       0.878667        23.9097 
 200   0.0000       0.892894        24.2969 
 201   0.0000       0.901649        24.5351 
 202   0.0000       0.909224        24.7412 
 203   0.0000       0.926901        25.2223 
 204   0.0000       0.935360        25.4524 
 205   0.0000       0.974874        26.5277 
 206   0.0000       0.988992        26.9118 
 207   0.0000       0.995786        27.0967 
 208   0.0000       1.005398        27.3583 
 209   0.0000       1.008797        27.4508 
 210   0.0000       1.020151        27.7597 
 211   0.0000       1.031731        28.0748 
 212   0.0000       1.036559        28.2062 
 213   0.0000       1.048242        28.5241 
 214   0.0000       1.056255        28.7422 
 215   0.0000       1.058034        28.7906 
 216   0.0000       1.070602        29.1326 
 217   0.0000       1.082321        29.4515 
 218   0.0000       1.086772        29.5726 
 219   0.0000       1.103743        30.0344 
 220   0.0000       1.141564        31.0635 
 221   0.0000       1.152263        31.3547 
 222   0.0000       1.159676        31.5564 
 223   0.0000       1.190630        32.3987 
 224   0.0000       1.205550        32.8047 
 225   0.0000       1.206653        32.8347 
 226   0.0000       1.212743        33.0004 
 227   0.0000       1.215725        33.0816 
 228   0.0000       1.216327        33.0979 
 229   0.0000       1.218281        33.1511 
 230   0.0000       1.223956        33.3055 
 231   0.0000       1.225043        33.3351 
 232   0.0000       1.233114        33.5547 
 233   0.0000       1.248334        33.9689 
 234   0.0000       1.269651        34.5490 
 235   0.0000       1.286869        35.0175 
 236   0.0000       1.293155        35.1885 
 237   0.0000       1.312220        35.7073 
 238   0.0000       1.317860        35.8608 
 239   0.0000       1.320852        35.9422 
 240   0.0000       1.333474        36.2857 
 241   0.0000       1.339549        36.4510 
 242   0.0000       1.340599        36.4796 
 243   0.0000       1.351733        36.7825 
 244   0.0000       1.365471        37.1564 
 245   0.0000       1.386493        37.7284 
 246   0.0000       1.412160        38.4268 
 247   0.0000       1.415205        38.5097 
 248   0.0000       1.426515        38.8174 
 249   0.0000       1.427744        38.8509 
 250   0.0000       1.428467        38.8706 
 251   0.0000       1.432638        38.9841 
 252   0.0000       1.447842        39.3978 
 253   0.0000       1.462117        39.7862 
 254   0.0000       1.469930        39.9988 
 255   0.0000       1.472422        40.0666 
 256   0.0000       1.486564        40.4515 
 257   0.0000       1.495057        40.6826 
 258   0.0000       1.505052        40.9546 
 259   0.0000       1.508184        41.0398 
 260   0.0000       1.518986        41.3337 
 261   0.0000       1.526720        41.5442 
 262   0.0000       1.550949        42.2035 
 263   0.0000       1.554323        42.2953 
 264   0.0000       1.586535        43.1718 
 265   0.0000       1.594314        43.3835 
 266   0.0000       1.598168        43.4884 
 267   0.0000       1.605654        43.6921 
 268   0.0000       1.611238        43.8440 
 269   0.0000       1.619826        44.0777 
 270   0.0000       1.626822        44.2681 
 271   0.0000       1.628131        44.3037 
 272   0.0000       1.628782        44.3214 
 273   0.0000       1.631313        44.3903 
 274   0.0000       1.632758        44.4296 
 275   0.0000       1.639642        44.6169 
 276   0.0000       1.646103        44.7927 
 277   0.0000       1.647750        44.8376 
 278   0.0000       1.650969        44.9252 
 279   0.0000       1.659377        45.1539 
 280   0.0000       1.664670        45.2980 
 281   0.0000       1.666794        45.3558 
 282   0.0000       1.673388        45.5352 
 283   0.0000       1.678288        45.6686 
 284   0.0000       1.686849        45.9015 
 285   0.0000       1.689293        45.9680 
 286   0.0000       1.694775        46.1172 
 287   0.0000       1.696836        46.1732 
 288   0.0000       1.699187        46.2372 
 289   0.0000       1.703035        46.3419 
 290   0.0000       1.706297        46.4307 
 291   0.0000       1.714476        46.6533 
 292   0.0000       1.716532        46.7092 
 293   0.0000       1.718427        46.7608 
 294   0.0000       1.720150        46.8077 
 295   0.0000       1.726127        46.9703 
 296   0.0000       1.736116        47.2421 
 297   0.0000       1.744772        47.4777 
 298   0.0000       1.755149        47.7600 
 299   0.0000       1.759935        47.8903 
 300   0.0000       1.764115        48.0040 
 301   0.0000       1.767819        48.1048 
 302   0.0000       1.771683        48.2099 
 303   0.0000       1.777723        48.3743 
 304   0.0000       1.782147        48.4947 
 305   0.0000       1.795462        48.8570 
 306   0.0000       1.797142        48.9027 
 307   0.0000       1.799191        48.9585 
 308   0.0000       1.806720        49.1634 
 309   0.0000       1.822185        49.5842 
 310   0.0000       1.830580        49.8126 
 311   0.0000       1.842984        50.1501 
 312   0.0000       1.853929        50.4480 
 313   0.0000       1.859156        50.5902 
 314   0.0000       1.869042        50.8592 
 315   0.0000       1.873893        50.9912 
 316   0.0000       1.881664        51.2027 
 317   0.0000       1.894150        51.5424 
 318   0.0000       1.906187        51.8700 
 319   0.0000       1.918559        52.2067 
 320   0.0000       1.926084        52.4114 
 321   0.0000       1.945384        52.9366 
 322   0.0000       1.945582        52.9420 
 323   0.0000       1.962112        53.3918 
 324   0.0000       1.966492        53.5110 
 325   0.0000       1.972766        53.6817 
 326   0.0000       1.982796        53.9546 
 327   0.0000       1.996796        54.3356 
 328   0.0000       2.006654        54.6038 
 329   0.0000       2.015869        54.8546 
 330   0.0000       2.026597        55.1465 
 331   0.0000       2.043078        55.5950 
 332   0.0000       2.046183        55.6795 
 333   0.0000       2.053745        55.8852 
[...]
      pz      :     0.982690  p :     3.049624
      px      :     1.084875
      py      :     0.982059
      dz2     :     0.012573  d :     0.099636
      dxz     :     0.024845
      dyz     :     0.000191
      dx2y2   :     0.037371
      dxy     :     0.024657
 42 H s       :     0.884254  s :     0.884254
      pz      :     0.020275  p :     0.094427
      px      :     0.054396
      py      :     0.019757
 43 H s       :     0.896309  s :     0.896309
      pz      :     0.015553  p :     0.076390
      px      :     0.027382
      py      :     0.033455
 44 H s       :     0.896559  s :     0.896559
      pz      :     0.015916  p :     0.076372
      px      :     0.028094
      py      :     0.032362
 45 H s       :     0.896519  s :     0.896519
      pz      :     0.017844  p :     0.079596
      px      :     0.047102
      py      :     0.014651

SPIN
  0 C s       :    -0.000004  s :    -0.000004
      pz      :    -0.000032  p :    -0.000045
      px      :    -0.000004
      py      :    -0.000008
      dz2     :     0.000001  d :     0.000024
      dxz     :     0.000021
      dyz     :     0.000000
      dx2y2   :     0.000001
      dxy     :     0.000001
  1 C s       :    -0.000006  s :    -0.000006
      pz      :    -0.000142  p :    -0.000155
      px      :    -0.000005
      py      :    -0.000009
      dz2     :     0.000002  d :     0.000028
      dxz     :     0.000002
      dyz     :     0.000022
      dx2y2   :     0.000002
      dxy     :     0.000001
  2 C s       :     0.000010  s :     0.000010
      pz      :     0.000255  p :     0.000271
      px      :     0.000008
      py      :     0.000008
      dz2     :    -0.000001  d :    -0.000012
      dxz     :    -0.000005
      dyz     :    -0.000004
      dx2y2   :    -0.000001
      dxy     :    -0.000001
  3 C s       :    -0.000005  s :    -0.000005
      pz      :    -0.000126  p :    -0.000137
      px      :    -0.000007
      py      :    -0.000003
      dz2     :     0.000001  d :     0.000029
      dxz     :     0.000017
      dyz     :     0.000008
      dx2y2   :     0.000001
      dxy     :     0.000001
  4 C s       :     0.000019  s :     0.000019
      pz      :     0.000266  p :     0.000292
      px      :     0.000008
      py      :     0.000018
      dz2     :    -0.000001  d :    -0.000020
      dxz     :    -0.000003
      dyz     :    -0.000010
      dx2y2   :    -0.000004
      dxy     :    -0.000002
  5 C s       :    -0.000035  s :    -0.000035
      pz      :    -0.000192  p :    -0.000280
      px      :    -0.000030
      py      :    -0.000057
      dz2     :     0.000001  d :     0.000121
      dxz     :     0.000027
      dyz     :     0.000034
      dx2y2   :     0.000048
      dxy     :     0.000011
  6 C s       :     0.000031  s :     0.000031
      pz      :     0.000262  p :     0.000307
      px      :     0.000011
      py      :     0.000035
      dz2     :    -0.000000  d :    -0.000024
      dxz     :    -0.000011
      dyz     :    -0.000004
      dx2y2   :     0.000001
      dxy     :    -0.000010
  7 H s       :     0.000005  s :     0.000005
      pz      :    -0.000004  p :    -0.000004
      px      :    -0.000000
      py      :    -0.000000
  8 H s       :    -0.000002  s :    -0.000002
      pz      :     0.000005  p :     0.000015
      px      :     0.000001
      py      :     0.000009
  9 C s       :    -0.000002  s :    -0.000002
      pz      :    -0.000001  p :    -0.000009
      px      :    -0.000004
      py      :    -0.000004
      dz2     :     0.000000  d :     0.000013
      dxz     :     0.000008
      dyz     :     0.000004
      dx2y2   :     0.000000
      dxy     :     0.000001
 10 H s       :     0.000012  s :     0.000012
      pz      :    -0.000000  p :    -0.000000
      px      :    -0.000000
      py      :     0.000000
 11 H s       :     0.000012  s :     0.000012
      pz      :    -0.000000  p :    -0.000000
      px      :    -0.000000
      py      :     0.000000
 12 C s       :     0.000000  s :     0.000000
      pz      :     0.000000  p :     0.000000
      px      :     0.000000
      py      :     0.000000
      dz2     :    -0.000000  d :    -0.000000
      dxz     :     0.000000
      dyz     :    -0.000000
      dx2y2   :    -0.000000
      dxy     :    -0.000000
 13 H s       :    -0.000000  s :    -0.000000
      pz      :    -0.000000  p :    -0.000000
      px      :    -0.000000
      py      :    -0.000000
 14 H s       :     0.000000  s :     0.000000
      pz      :     0.000000  p :     0.000000
      px      :     0.000000
      py      :     0.000000
 15 C s       :    -0.000000  s :    -0.000000
      pz      :     0.000000  p :     0.000000
      px      :     0.000000
      py      :    -0.000000
      dz2     :    -0.000000  d :    -0.000000
      dxz     :    -0.000000
      dyz     :     0.000000
      dx2y2   :    -0.000000
      dxy     :    -0.000000
 16 H s       :     0.000000  s :     0.000000
      pz      :     0.000000  p :     0.000000
      px      :     0.000000
      py      :     0.000000
 17 H s       :     0.000000  s :     0.000000
      pz      :     0.000000  p :     0.000000
      px      :     0.000000
      py      :     0.000000
 18 C s       :    -0.000000  s :    -0.000000
      pz      :    -0.000000  p :    -0.000000
      px      :    -0.000000
      py      :    -0.000000
      dz2     :     0.000000  d :     0.000000
      dxz     :     0.000000
      dyz     :     0.000000
      dx2y2   :     0.000000
      dxy     :     0.000000
 19 H s       :     0.000000  s :     0.000000
      pz      :    -0.000000  p :    -0.000000
      px      :    -0.000000
      py      :    -0.000000
 20 H s       :     0.000000  s :     0.000000
      pz      :    -0.000000  p :    -0.000000
      px      :    -0.000000
      py      :    -0.000000
 21 C s       :    -0.000155  s :    -0.000155
      pz      :     0.000486  p :     0.000836
      px      :     0.000261
      py      :     0.000089
      dz2     :     0.000020  d :     0.000189
      dxz     :     0.000025
      dyz     :     0.000085
      dx2y2   :     0.000095
      dxy     :    -0.000036
 22 H s       :     0.000162  s :     0.000162
      pz      :    -0.000001  p :     0.000029
      px      :     0.000031
      py      :    -0.000001
 23 H s       :     0.000424  s :     0.000424
      pz      :     0.000035  p :     0.000193
      px      :     0.000018
      py      :     0.000141
 24 C s       :     0.002011  s :     0.002011
      pz      :     0.001354  p :     0.006139
      px      :     0.001237
      py      :     0.003549
      dz2     :    -0.000037  d :    -0.000691
      dxz     :     0.000048
      dyz     :    -0.000147
      dx2y2   :    -0.000543
      dxy     :    -0.000011
 25 H s       :    -0.000543  s :    -0.000543
      pz      :     0.000025  p :     0.000247
      px      :     0.000015
      py      :     0.000207
 26 H s       :     0.001212  s :     0.001212
      pz      :     0.000103  p :     0.000522
      px      :     0.000449
      py      :    -0.000030
 27 C s       :    -0.004401  s :    -0.004401
      pz      :    -0.006531  p :    -0.024221
      px      :    -0.006680
      py      :    -0.011010
      dz2     :     0.000790  d :     0.038107
      dxz     :     0.014466
      dyz     :     0.013896
      dx2y2   :     0.003090
      dxy     :     0.005866
 28 H s       :     0.015328  s :     0.015328
      pz      :    -0.000071  p :    -0.000900
      px      :    -0.000525
      py      :    -0.000305
 29 H s       :     0.047498  s :     0.047498
      pz      :    -0.000355  p :    -0.000354
      px      :    -0.000196
      py      :     0.000197
 30 C s       :     0.031450  s :     0.031450
      pz      :     0.621951  p :     0.802193
      px      :     0.162988
      py      :     0.017253
      dz2     :    -0.001405  d :    -0.003609
      dxz     :    -0.000302
      dyz     :    -0.000040
      dx2y2   :    -0.000526
      dxy     :    -0.001337
 31 H s       :    -0.020172  s :    -0.020172
      pz      :     0.018734  p :     0.026205
      px      :     0.007144
      py      :     0.000327
 32 C s       :    -0.004389  s :    -0.004389
      pz      :    -0.006826  p :    -0.024288
      px      :    -0.006264
      py      :    -0.011198
      dz2     :     0.001237  d :     0.037958
      dxz     :     0.012039
      dyz     :     0.015187
      dx2y2   :     0.001888
      dxy     :     0.007607
 33 H s       :     0.047864  s :     0.047864
      pz      :    -0.000378  p :    -0.000344
      px      :    -0.000155
      py      :     0.000189
 34 H s       :     0.014245  s :     0.014245
      pz      :    -0.000041  p :    -0.000881
      px      :    -0.000497
      py      :    -0.000343
 35 C s       :     0.002324  s :     0.002324
      pz      :     0.001046  p :     0.006773
      px      :     0.001633
      py      :     0.004095
      dz2     :    -0.000062  d :    -0.000655
      dxz     :     0.000009
      dyz     :    -0.000115
      dx2y2   :    -0.000566
      dxy     :     0.000078
 36 H s       :    -0.000583  s :    -0.000583
      pz      :     0.000027  p :     0.000249
      px      :     0.000021
      py      :     0.000201
 37 H s       :     0.001382  s :     0.001382
      pz      :     0.000115  p :     0.000553
      px      :     0.000471
      py      :    -0.000033
 38 C s       :    -0.000162  s :    -0.000162
      pz      :     0.000278  p :     0.000881
      px      :     0.000132
      py      :     0.000470
      dz2     :     0.000034  d :     0.000227
      dxz     :     0.000016
      dyz     :     0.000072
      dx2y2   :     0.000147
      dxy     :    -0.000042
 39 H s       :     0.000167  s :     0.000167
      pz      :    -0.000002  p :     0.000017
      px      :     0.000023
      py      :    -0.000004
 40 H s       :     0.000309  s :     0.000309
      pz      :     0.000042  p :     0.000164
      px      :     0.000015
      py      :     0.000106
 41 C s       :     0.000003  s :     0.000003
      pz      :     0.000086  p :     0.000103
      px      :     0.000002
      py      :     0.000016
      dz2     :    -0.000000  d :    -0.000003
      dxz     :    -0.000002
      dyz     :    -0.000000
      dx2y2   :    -0.000000
      dxy     :    -0.000001
 42 H s       :    -0.000003  s :    -0.000003
      pz      :     0.000002  p :     0.000003
      px      :     0.000001
      py      :     0.000000
 43 H s       :    -0.000000  s :    -0.000000
      pz      :    -0.000000  p :    -0.000000
      px      :    -0.000000
      py      :    -0.000000
 44 H s       :    -0.000143  s :    -0.000143
      pz      :     0.000024  p :     0.000079
      px      :     0.000029
      py      :     0.000026
 45 H s       :     0.000004  s :     0.000004
      pz      :    -0.000004  p :    -0.000005
      px      :    -0.000001
      py      :    -0.000000


                      *****************************
                      * MAYER POPULATION ANALYSIS *
                      *****************************

  NA   - Mulliken gross atomic population
  ZA   - Total nuclear charge
  QA   - Mulliken gross atomic charge
  VA   - Mayer's total valence
  BVA  - Mayer's bonded valence
  FA   - Mayer's free valence

  ATOM       NA         ZA         QA         VA         BVA        FA
  0 C      5.3790     6.0000     0.6210     2.9120     2.9120     0.0000
  1 C      5.9705     6.0000     0.0295     3.9581     3.9581     0.0000
  2 C      6.0265     6.0000    -0.0265     4.0867     4.0867     0.0000
  3 C      5.9698     6.0000     0.0302     3.8978     3.8978     0.0000
  4 C      6.0594     6.0000    -0.0594     3.8492     3.8492     0.0000
  5 C      6.0726     6.0000    -0.0726     4.1615     4.1615     0.0000
  6 C      5.9769     6.0000     0.0231     3.9743     3.9743     0.0000
  7 H      1.0555     1.0000    -0.0555     1.0010     1.0010     0.0000
  8 H      1.0442     1.0000    -0.0442     0.9846     0.9846     0.0000
  9 C      5.9658     6.0000     0.0342     4.0145     4.0145     0.0000
 10 H      0.9766     1.0000     0.0234     0.9656     0.9656     0.0000
 11 H      0.9743     1.0000     0.0257     0.9648     0.9648     0.0000
 12 C      6.0391     6.0000    -0.0391     4.1179     4.1179     0.0000
 13 H      0.9844     1.0000     0.0156     0.9645     0.9645     0.0000
 14 H      0.9822     1.0000     0.0178     0.9630     0.9630     0.0000
 15 C      6.0247     6.0000    -0.0247     4.1160     4.1160     0.0000
 16 H      0.9952     1.0000     0.0048     0.9670     0.9670     0.0000
 17 H      0.9952     1.0000     0.0048     0.9672     0.9672     0.0000
 18 C      5.9983     6.0000     0.0017     4.0186     4.0186     0.0000
 19 H      0.9829     1.0000     0.0171     0.9775     0.9775     0.0000
 20 H      0.9826     1.0000     0.0174     0.9773     0.9773     0.0000
 21 C      5.9543     6.0000     0.0457     4.0166     4.0166     0.0000
 22 H      0.9692     1.0000     0.0308     0.9691     0.9691     0.0000
 23 H      0.9697     1.0000     0.0303     0.9703     0.9703     0.0000
 24 C      6.0415     6.0000    -0.0415     4.1237     4.1236     0.0001
 25 H      0.9834     1.0000     0.0166     0.9621     0.9621     0.0000
 26 H      0.9818     1.0000     0.0182     0.9632     0.9632     0.0000
 27 C      5.9327     6.0000     0.0673     4.0024     4.0000     0.0025
 28 H      0.9936     1.0000     0.0064     0.9724     0.9720     0.0004
 29 H      0.9860     1.0000     0.0140     0.9652     0.9614     0.0038
 30 C      6.1132     6.0000    -0.1132     4.0043     3.2570     0.7474
 31 H      1.0179     1.0000    -0.0179     0.9897     0.9874     0.0023
 32 C      5.9592     6.0000     0.0408     4.0161     4.0136     0.0025
 33 H      0.9870     1.0000     0.0130     0.9642     0.9603     0.0039
 34 H      0.9960     1.0000     0.0040     0.9717     0.9714     0.0003
 35 C      6.0445     6.0000    -0.0445     4.1294     4.1293     0.0001
 36 H      0.9926     1.0000     0.0074     0.9653     0.9653     0.0000
 37 H      0.9917     1.0000     0.0083     0.9669     0.9669     0.0000
 38 C      6.0023     6.0000    -0.0023     4.0213     4.0213     0.0000
 39 H      0.9839     1.0000     0.0161     0.9771     0.9771     0.0000
 40 H      0.9841     1.0000     0.0159     0.9774     0.9774     0.0000
 41 C      6.5958     6.0000    -0.5958     3.4050     3.4050     0.0000
 42 H      1.0320     1.0000    -0.0320     1.0298     1.0298     0.0000
 43 H      0.9877     1.0000     0.0123     0.9734     0.9734    -0.0000
 44 H      0.9882     1.0000     0.0118     0.9735     0.9735     0.0000
 45 H      1.0561     1.0000    -0.0561     0.9793     0.9793     0.0000

  Mayer bond orders larger than 0.100000
B(  0-C ,  4-C ) :   0.9075 B(  0-C , 41-C ) :   2.1395 B(  1-C ,  2-C ) :   1.4220 
B(  1-C ,  6-C ) :   1.4307 B(  1-C , 45-H ) :   0.9332 B(  2-C ,  3-C ) :   1.4263 
B(  2-C ,  9-C ) :   1.0451 B(  3-C ,  4-C ) :   1.3926 B(  3-C ,  7-H ) :   0.9277 
B(  4-C ,  5-C ) :   1.4096 B(  5-C ,  6-C ) :   1.4417 B(  5-C , 21-C ) :   1.0881 
B(  6-C ,  8-H ) :   0.9185 B(  9-C , 10-H ) :   0.9148 B(  9-C , 11-H ) :   0.9135 
B(  9-C , 12-C ) :   1.1037 B( 12-C , 13-H ) :   0.9320 B( 12-C , 14-H ) :   0.9295 
B( 12-C , 15-C ) :   1.0751 B( 15-C , 16-H ) :   0.9414 B( 15-C , 17-H ) :   0.9413 
B( 15-C , 18-C ) :   1.1057 B( 18-C , 19-H ) :   0.9665 B( 18-C , 20-H ) :   0.9666 
B( 18-C , 43-H ) :   0.9621 B( 21-C , 22-H ) :   0.8984 B( 21-C , 23-H ) :   0.8982 
B( 21-C , 24-C ) :   1.0997 B( 24-C , 25-H ) :   0.9286 B( 24-C , 26-H ) :   0.9311 
B( 24-C , 27-C ) :   1.0731 B( 27-C , 28-H ) :   0.9243 B( 27-C , 29-H ) :   0.9113 
B( 27-C , 30-C ) :   1.0719 B( 30-C , 31-H ) :   0.9586 B( 30-C , 32-C ) :   1.0801 
B( 32-C , 33-H ) :   0.9156 B( 32-C , 34-H ) :   0.9283 B( 32-C , 35-C ) :   1.0709 
B( 35-C , 36-H ) :   0.9445 B( 35-C , 37-H ) :   0.9474 B( 35-C , 38-C ) :   1.1047 
B( 38-C , 39-H ) :   0.9667 B( 38-C , 40-H ) :   0.9664 B( 38-C , 44-H ) :   0.9628 
B( 41-C , 42-H ) :   1.1172 

-------
TIMINGS
-------

Total SCF time: 0 days 0 hours 0 min 53 sec 

Total time                  ....      53.483 sec
Sum of individual times     ....      50.544 sec  ( 94.5%)

Fock matrix formation       ....      45.283 sec  ( 84.7%)
  Split-RI-J                ....       3.581 sec  (  7.9% of F)
  Chain of spheres X        ....      27.485 sec  ( 60.7% of F)
  XC integration            ....      10.902 sec  ( 24.1% of F)
    Basis function eval.    ....       0.991 sec  (  9.1% of XC)
    Density eval.           ....       1.048 sec  (  9.6% of XC)
    XC-Functional eval.     ....       0.252 sec  (  2.3% of XC)
    XC-Potential eval.      ....       0.543 sec  (  5.0% of XC)
Diagonalization             ....       0.891 sec  (  1.7%)
Density matrix formation    ....       0.267 sec  (  0.5%)
Population analysis         ....       0.283 sec  (  0.5%)
Initial guess               ....       0.109 sec  (  0.2%)
Orbital Transformation      ....       0.000 sec  (  0.0%)
Orbital Orthonormalization  ....       0.079 sec  (  0.1%)
DIIS solution               ....       0.687 sec  (  1.3%)
Grid generation             ....       3.023 sec  (  5.7%)

Maximum memory used throughout the entire SCF-calculation: 102.2 MB

-------------------------   --------------------
FINAL SINGLE POINT ENERGY      -739.696000295040
-------------------------   --------------------

                                *** OPTIMIZATION RUN DONE ***

                            ***************************************
                            *     ORCA property calculations      *
                            ***************************************

                                    ---------------------
                                    Active property flags
                                    ---------------------
   (+) Dipole Moment


------------------------------------------------------------------------------
                       ORCA ELECTRIC PROPERTIES CALCULATION
------------------------------------------------------------------------------

Dipole Moment Calculation                       ... on
Quadrupole Moment Calculation                   ... off
Polarizability Calculation                      ... off
GBWName                                         ... opt_cc-pVDZ.gbw
Electron density                                ... opt_cc-pVDZ.scfp
The origin for moment calculation is the CENTER OF MASS  = ( 3.809940,  2.735626 -0.337630)

-------------
DIPOLE MOMENT
-------------
                                X             Y             Z
Electronic contribution:      4.21582     -11.00165      -0.14578
Nuclear contribution   :     -4.42748      11.00334       0.09892
                        -----------------------------------------
Total Dipole Moment    :     -0.21166       0.00169      -0.04687
                        -----------------------------------------
Magnitude (a.u.)       :      0.21679
Magnitude (Debye)      :      0.55104



--------------------
Rotational spectrum 
--------------------
 
Rotational constants in cm-1:     0.034344     0.002975     0.002760 
Rotational constants in MHz :  1029.618259    89.197423    82.731260 

 Dipole components along the rotational axes: 
x,y,z [a.u.] :    -0.034972    -0.209815    -0.041881 
x,y,z [Debye]:    -0.088893    -0.533307    -0.106452 

 

Timings for individual modules:

Sum of individual times         ...      165.162 sec (=   2.753 min)
GTO integral calculation        ...        6.381 sec (=   0.106 min)   3.9 %
SCF iterations                  ...      141.384 sec (=   2.356 min)  85.6 %
SCF Gradient evaluation         ...       16.381 sec (=   0.273 min)   9.9 %
Geometry relaxation             ...        1.016 sec (=   0.017 min)   0.6 %
                             ****ORCA TERMINATED NORMALLY****
TOTAL RUN TIME: 0 days 0 hours 2 minutes 49 seconds 468 msec
