
                                 *****************
                                 * O   R   C   A *
                                 *****************

                                            #,                                       
                                            ###                                      
                                            ####                                     
                                            #####                                    
                                            ######                                   
                                           ########,                                 
                                     ,,################,,,,,                         
                               ,,#################################,,                 
                          ,,##########################################,,             
                       ,#########################################, ''#####,          
                    ,#############################################,,   '####,        
                  ,##################################################,,,,####,       
                ,###########''''           ''''###############################       
              ,#####''   ,,,,##########,,,,          '''####'''          '####       
            ,##' ,,,,###########################,,,                        '##       
           ' ,,###''''                  '''############,,,                           
         ,,##''                                '''############,,,,        ,,,,,,###''
      ,#''                                            '''#######################'''  
     '                                                          ''''####''''         
             ,#######,   #######,   ,#######,      ##                                
            ,#'     '#,  ##    ##  ,#'     '#,    #''#        ######   ,####,        
            ##       ##  ##   ,#'  ##            #'  '#       #        #'  '#        
            ##       ##  #######   ##           ,######,      #####,   #    #        
            '#,     ,#'  ##    ##  '#,     ,#' ,#      #,         ##   #,  ,#        
             '#######'   ##     ##  '#######'  #'      '#     #####' # '####'        



                  #######################################################
                  #                        -***-                        #
                  #          Department of theory and spectroscopy      #
                  #    Directorship and core code : Frank Neese         #
                  #        Max Planck Institute fuer Kohlenforschung    #
                  #                Kaiser Wilhelm Platz 1               #
                  #                 D-45470 Muelheim/Ruhr               #
                  #                      Germany                        #
                  #                                                     #
                  #                  All rights reserved                #
                  #                        -***-                        #
                  #######################################################


                         Program Version 5.0.4 -  RELEASE  -


 With contributions from (in alphabetic order):
   Daniel Aravena         : Magnetic Suceptibility
   Michael Atanasov       : Ab Initio Ligand Field Theory (pilot matlab implementation)
   Alexander A. Auer      : GIAO ZORA, VPT2 properties, NMR spectrum
   Ute Becker             : Parallelization
   Giovanni Bistoni       : ED, misc. LED, open-shell LED, HFLD
   Martin Brehm           : Molecular dynamics
   Dmytro Bykov           : SCF Hessian
   Vijay G. Chilkuri      : MRCI spin determinant printing, contributions to CSF-ICE
   Dipayan Datta          : RHF DLPNO-CCSD density
   Achintya Kumar Dutta   : EOM-CC, STEOM-CC
   Dmitry Ganyushin       : Spin-Orbit,Spin-Spin,Magnetic field MRCI
   Miquel Garcia          : C-PCM and meta-GGA Hessian, CC/C-PCM, Gaussian charge scheme
   Yang Guo               : DLPNO-NEVPT2, F12-NEVPT2, CIM, IAO-localization
   Andreas Hansen         : Spin unrestricted coupled pair/coupled cluster methods
   Benjamin Helmich-Paris : MC-RPA, TRAH-SCF, COSX integrals
   Lee Huntington         : MR-EOM, pCC
   Robert Izsak           : Overlap fitted RIJCOSX, COSX-SCS-MP3, EOM
   Marcus Kettner         : VPT2
   Christian Kollmar      : KDIIS, OOCD, Brueckner-CCSD(T), CCSD density, CASPT2, CASPT2-K
   Simone Kossmann        : Meta GGA functionals, TD-DFT gradient, OOMP2, MP2 Hessian
   Martin Krupicka        : Initial AUTO-CI
   Lucas Lang             : DCDCAS
   Marvin Lechner         : AUTO-CI (C++ implementation), FIC-MRCC
   Dagmar Lenk            : GEPOL surface, SMD
   Dimitrios Liakos       : Extrapolation schemes; Compound Job, initial MDCI parallelization
   Dimitrios Manganas     : Further ROCIS development; embedding schemes
   Dimitrios Pantazis     : SARC Basis sets
   Anastasios Papadopoulos: AUTO-CI, single reference methods and gradients
   Taras Petrenko         : DFT Hessian,TD-DFT gradient, ASA, ECA, R-Raman, ABS, FL, XAS/XES, NRVS
   Peter Pinski           : DLPNO-MP2, DLPNO-MP2 Gradient
   Christoph Reimann      : Effective Core Potentials
   Marius Retegan         : Local ZFS, SOC
   Christoph Riplinger    : Optimizer, TS searches, QM/MM, DLPNO-CCSD(T), (RO)-DLPNO pert. Triples
   Tobias Risthaus        : Range-separated hybrids, TD-DFT gradient, RPA, STAB
   Michael Roemelt        : Original ROCIS implementation
   Masaaki Saitow         : Open-shell DLPNO-CCSD energy and density
   Barbara Sandhoefer     : DKH picture change effects
   Avijit Sen             : IP-ROCIS
   Kantharuban Sivalingam : CASSCF convergence, NEVPT2, FIC-MRCI
   Bernardo de Souza      : ESD, SOC TD-DFT
   Georgi Stoychev        : AutoAux, RI-MP2 NMR, DLPNO-MP2 response
   Willem Van den Heuvel  : Paramagnetic NMR
   Boris Wezisla          : Elementary symmetry handling
   Frank Wennmohs         : Technical directorship


 We gratefully acknowledge several colleagues who have allowed us to
 interface, adapt or use parts of their codes:
   Stefan Grimme, W. Hujo, H. Kruse, P. Pracht,  : VdW corrections, initial TS optimization,
                  C. Bannwarth, S. Ehlert          DFT functionals, gCP, sTDA/sTD-DF
   Ed Valeev, F. Pavosevic, A. Kumar             : LibInt (2-el integral package), F12 methods
   Garnet Chan, S. Sharma, J. Yang, R. Olivares  : DMRG
   Ulf Ekstrom                                   : XCFun DFT Library
   Mihaly Kallay                                 : mrcc  (arbitrary order and MRCC methods)
   Jiri Pittner, Ondrej Demel                    : Mk-CCSD
   Frank Weinhold                                : gennbo (NPA and NBO analysis)
   Christopher J. Cramer and Donald G. Truhlar   : smd solvation model
   Lars Goerigk                                  : TD-DFT with DH, B97 family of functionals
   V. Asgeirsson, H. Jonsson                     : NEB implementation
   FAccTs GmbH                                   : IRC, NEB, NEB-TS, DLPNO-Multilevel, CI-OPT
                                                   MM, QMMM, 2- and 3-layer-ONIOM, Crystal-QMMM,
                                                   LR-CPCM, SF, NACMEs, symmetry and pop. for TD-DFT,
                                                   nearIR, NL-DFT gradient (VV10), updates on ESD,
                                                   ML-optimized integration grids
   S Lehtola, MJT Oliveira, MAL Marques          : LibXC Library
   Liviu Ungur et al                             : ANISO software


 Your calculation uses the libint2 library for the computation of 2-el integrals
 For citations please refer to: http://libint.valeyev.net

 Your ORCA version has been built with support for libXC version: 5.1.0
 For citations please refer to: https://tddft.org/programs/libxc/

 This ORCA versions uses:
   CBLAS   interface :  Fast vector & matrix operations
   LAPACKE interface :  Fast linear algebra routines
   SCALAPACK package :  Parallel linear algebra routines
   Shared memory     :  Shared parallel matrices
   BLAS/LAPACK       :  OpenBLAS 0.3.15  USE64BITINT DYNAMIC_ARCH NO_AFFINITY SkylakeX SINGLE_THREADED
        Core in use  :  SkylakeX
   Copyright (c) 2011-2014, The OpenBLAS Project




***************************************
The coordinates will be read from file: model.xyz
***************************************


================================================================================

----- Orbital basis set information -----
Your calculation utilizes the basis: EPR-II
   V. Barone, in Recent Advances in Density Functional Methods, Part 1 (ed. D. P. Chong), World Scientific, Singapore, 1995, p. 287.

----- AuxJ basis set information -----
Your calculation utilizes the auxiliary basis: def2/J
   F. Weigend, Phys. Chem. Chem. Phys. 8, 1057 (2006).

================================================================================
                                        WARNINGS
                       Please study these warnings very carefully!
================================================================================


WARNING: your system is open-shell and RHF/RKS was chosen
  ===> : WILL SWITCH to UHF/UKS


WARNING: Geometry Optimization
  ===> : Switching off AutoStart
         For restart on a previous wavefunction, please use MOREAD

INFO   : the flag for use of the SHARK integral package has been found!

================================================================================
                                       INPUT FILE
================================================================================
NAME = opt_EPRII.inp
|  1> ! B3LYP EPR-II OPT
|  2> %pal nprocs 16 end
|  3> *XYZFile 0 2 model.xyz
|  4> 
|  5>                          ****END OF INPUT****
================================================================================

                       *****************************
                       * Geometry Optimization Run *
                       *****************************

Geometry optimization settings:
Update method            Update   .... BFGS
Choice of coordinates    CoordSys .... Z-matrix Internals
Initial Hessian          InHess   .... Almoef's Model

Convergence Tolerances:
Energy Change            TolE     ....  5.0000e-06 Eh
Max. Gradient            TolMAXG  ....  3.0000e-04 Eh/bohr
RMS Gradient             TolRMSG  ....  1.0000e-04 Eh/bohr
Max. Displacement        TolMAXD  ....  4.0000e-03 bohr
RMS Displacement         TolRMSD  ....  2.0000e-03 bohr
Strict Convergence                ....  False
------------------------------------------------------------------------------
                        ORCA OPTIMIZATION COORDINATE SETUP
------------------------------------------------------------------------------

The optimization will be done in new redundant internal coordinates
Making redundant internal coordinates   ...  (new redundants) done
Evaluating the initial hessian          ...  (Almloef) done
Evaluating the coordinates              ...  done
Calculating the B-matrix                .... done
Calculating the G-matrix                .... done
Diagonalizing the G-matrix              .... done
Small eigenvalue found = 8.878e-04
Small eigenvalue found = 4.143e-03
Small eigenvalue found = 4.228e-03
Small eigenvalue found = 1.045e-02
Small eigenvalue found = 1.234e-02
Small eigenvalue found = 2.191e-02
Small eigenvalue found = 2.590e-02
Small eigenvalue found = 2.845e-02
The first mode is                       ....  110
The number of degrees of freedom        ....  132

    -----------------------------------------------------------------
                    Redundant Internal Coordinates


    -----------------------------------------------------------------
         Definition                    Initial Value    Approx d2E/dq
    -----------------------------------------------------------------
      1. B(C   2,C   1)                  1.4043         0.592743   
      2. B(C   3,C   2)                  1.3976         0.607635   
      3. B(C   4,C   0)                  1.4342         0.531209   
      4. B(C   4,C   3)                  1.4105         0.579562   
      5. B(C   5,C   4)                  1.4175         0.564859   
      6. B(C   6,C   5)                  1.4014         0.599082   
      7. B(C   6,C   1)                  1.3958         0.611545   
      8. B(H   7,C   3)                  1.0903         0.359752   
      9. B(H   8,C   6)                  1.0910         0.358804   
     10. B(C   9,C   2)                  1.5202         0.387336   
     11. B(H  10,C   9)                  1.1062         0.339354   
     12. B(H  11,C   9)                  1.1066         0.338836   
     13. B(C  12,C   9)                  1.5310         0.372266   
     14. B(H  13,C  12)                  1.1057         0.339891   
     15. B(H  14,C  12)                  1.1056         0.340066   
     16. B(C  15,C  12)                  1.5333         0.369063   
     17. B(H  16,C  15)                  1.1060         0.339486   
     18. B(H  17,C  15)                  1.1060         0.339520   
     19. B(C  18,C  15)                  1.5308         0.372517   
     20. B(H  19,C  18)                  1.1038         0.342362   
     21. B(H  20,C  18)                  1.1037         0.342398   
     22. B(C  21,C   5)                  1.5168         0.392151   
     23. B(H  22,C  21)                  1.1059         0.339630   
     24. B(H  23,C  21)                  1.1057         0.339956   
     25. B(C  24,C  21)                  1.5305         0.372907   
     26. B(H  25,C  24)                  1.1053         0.340433   
     27. B(H  26,C  24)                  1.1045         0.341452   
     28. B(C  27,C  24)                  1.5363         0.365048   
     29. B(H  28,C  27)                  1.1082         0.336781   
     30. B(H  29,C  27)                  1.1152         0.328313   
     31. B(C  30,C  27)                  1.4946         0.425409   
     32. B(H  31,C  30)                  1.0978         0.349985   
     33. B(C  32,C  30)                  1.4946         0.425488   
     34. B(H  33,C  32)                  1.1156         0.327794   
     35. B(H  34,C  32)                  1.1085         0.336405   
     36. B(C  35,C  32)                  1.5363         0.365061   
     37. B(H  36,C  35)                  1.1059         0.339731   
     38. B(H  37,C  35)                  1.1049         0.340876   
     39. B(C  38,C  35)                  1.5303         0.373190   
     40. B(H  39,C  38)                  1.1039         0.342232   
     41. B(H  40,C  38)                  1.1039         0.342144   
     42. B(C  41,C   0)                  1.2161         1.183649   
     43. B(H  42,C  41)                  1.0723         0.384260   
     44. B(H  43,C  18)                  1.1021         0.344386   
     45. B(H  44,C  38)                  1.1022         0.344335   
     46. B(H  45,C   1)                  1.0943         0.354404   
     47. L(C   4,C   0,C  41,C   3, 1) 179.5537         0.474720   
     48. L(C   4,C   0,C  41,C   3, 2) 179.8898         0.474720   
     49. A(C   2,C   1,C   6)          121.4897         0.429513   
     50. A(C   2,C   1,H  45)          119.3101         0.349296   
     51. A(C   6,C   1,H  45)          119.2003         0.351142   
     52. A(C   1,C   2,C   3)          117.3186         0.429019   
     53. A(C   1,C   2,C   9)          119.5112         0.396073   
     54. A(C   3,C   2,C   9)          123.1700         0.397802   
     55. A(C   2,C   3,C   4)          121.6982         0.427292   
     56. A(C   4,C   3,H   7)          117.7065         0.348854   
     57. A(C   2,C   3,H   7)          120.5954         0.351651   
     58. A(C   0,C   4,C   5)          120.5682         0.415252   
     59. A(C   0,C   4,C   3)          118.8311         0.417155   
     60. A(C   3,C   4,C   5)          120.6007         0.421749   
     61. A(C   6,C   5,C  21)          123.0138         0.397675   
     62. A(C   4,C   5,C   6)          117.1579         0.424253   
     63. A(C   4,C   5,C  21)          119.8282         0.393593   
     64. A(C   5,C   6,H   8)          119.6414         0.350653   
     65. A(C   1,C   6,H   8)          118.6237         0.351875   
     66. A(C   1,C   6,C   5)          121.7350         0.430333   
     67. A(C   2,C   9,H  10)          108.2066         0.323088   
     68. A(H  10,C   9,H  11)          105.0615         0.285422   
     69. A(C   2,C   9,H  11)          108.2550         0.323007   
     70. A(H  11,C   9,C  12)          108.8569         0.320915   
     71. A(H  10,C   9,C  12)          108.9099         0.320995   
     72. A(C   2,C   9,C  12)          116.9100         0.365387   
     73. A(H  14,C  12,C  15)          109.0045         0.320652   
     74. A(H  13,C  12,C  15)          109.1651         0.320625   
     75. A(C   9,C  12,C  15)          112.8580         0.362381   
     76. A(H  13,C  12,H  14)          106.1477         0.285654   
     77. A(C   9,C  12,H  14)          109.7742         0.321105   
     78. A(C   9,C  12,H  13)          109.6665         0.321078   
     79. A(H  16,C  15,C  18)          109.5272         0.321051   
     80. A(C  12,C  15,C  18)          113.1829         0.362423   
     81. A(H  16,C  15,H  17)          105.8574         0.285529   
     82. A(C  12,C  15,H  17)          109.2326         0.320568   
     83. A(C  12,C  15,H  16)          109.2275         0.320562   
     84. A(H  17,C  15,C  18)          109.5508         0.321056   
     85. A(H  20,C  18,H  43)          107.6053         0.286545   
     86. A(C  15,C  18,H  43)          111.5116         0.321805   
     87. A(H  19,C  18,H  20)          107.3685         0.286281   
     88. A(C  15,C  18,H  20)          111.2841         0.321500   
     89. A(C  15,C  18,H  19)          111.2739         0.321495   
     90. A(H  19,C  18,H  43)          107.5909         0.286540   
     91. A(H  23,C  21,C  24)          109.2193         0.321179   
     92. A(H  22,C  21,C  24)          109.1280         0.321128   
     93. A(C   5,C  21,C  24)          116.8297         0.366269   
     94. A(H  22,C  21,H  23)          104.3977         0.285605   
     95. A(C   5,C  21,H  23)          108.3161         0.323838   
     96. A(C   5,C  21,H  22)          108.2313         0.323787   
     97. A(H  26,C  24,C  27)          108.8328         0.320292   
     98. A(H  25,C  24,C  27)          108.9129         0.320135   
     99. A(C  21,C  24,C  27)          112.4446         0.361811   
    100. A(H  25,C  24,H  26)          106.3246         0.285906   
    101. A(C  21,C  24,H  26)          110.1761         0.321409   
    102. A(C  21,C  24,H  25)          109.9517         0.321252   
    103. A(H  29,C  27,C  30)          110.0701         0.326326   
    104. A(H  28,C  27,C  30)          109.5888         0.327698   
    105. A(C  24,C  27,C  30)          114.0061         0.370067   
    106. A(H  28,C  27,H  29)          104.5199         0.283689   
    107. A(C  24,C  27,H  29)          108.5475         0.318247   
    108. A(C  24,C  27,H  28)          109.6759         0.319572   
    109. A(H  31,C  30,C  32)          118.0284         0.329794   
    110. A(C  27,C  30,C  32)          122.1148         0.379984   
    111. A(C  27,C  30,H  31)          118.0615         0.329784   
    112. A(H  33,C  32,C  35)          108.4267         0.318166   
    113. A(C  30,C  32,C  35)          114.1492         0.370081   
    114. A(H  33,C  32,H  34)          104.5773         0.283570   
    115. A(C  30,C  32,H  34)          109.5917         0.327647   
    116. A(C  30,C  32,H  33)          110.0280         0.326251   
    117. A(H  34,C  32,C  35)          109.6267         0.319515   
    118. A(H  37,C  35,C  38)          109.8496         0.321361   
    119. A(H  36,C  35,C  38)          109.6285         0.321184   
    120. A(C  32,C  35,C  38)          113.2230         0.361860   
    121. A(H  36,C  35,H  37)          105.9911         0.285739   
    122. A(C  32,C  35,H  37)          108.9412         0.320205   
    123. A(C  32,C  35,H  36)          108.9473         0.320029   
    124. A(H  40,C  38,H  44)          107.6142         0.286505   
    125. A(H  39,C  38,H  44)          107.5787         0.286516   
    126. A(C  35,C  38,H  44)          111.5352         0.321892   
    127. A(H  39,C  38,H  40)          107.3302         0.286231   
    128. A(C  35,C  38,H  40)          111.3093         0.321556   
    129. A(C  35,C  38,H  39)          111.2641         0.321569   
    130. L(C   0,C  41,H  42, 2)       180.0841         0.399027   
    131. L(C   0,C  41,H  42, 1)       180.0255         0.399027   
    132. D(C   9,C   2,C   1,C   6)    179.7270         0.024190   
    133. D(C   3,C   2,C   1,C   6)     -0.0914         0.024190   
    134. D(C   9,C   2,C   1,H  45)     -0.2749         0.024190   
    135. D(C   3,C   2,C   1,H  45)    179.9067         0.024190   
    136. D(H   7,C   3,C   2,C   9)      0.2930         0.025489   
    137. D(C   4,C   3,C   2,C   9)   -179.6984         0.025489   
    138. D(H   7,C   3,C   2,C   1)   -179.8958         0.025489   
    139. D(C   4,C   3,C   2,C   1)      0.1128         0.025489   
    140. D(C   0,C   4,C   3,C   2)    179.8981         0.023075   
    141. D(C   0,C   4,C   3,H   7)     -0.0935         0.023075   
    142. D(C   5,C   4,C   3,C   2)     -0.0569         0.023075   
    143. D(C   5,C   4,C   3,H   7)    179.9514         0.023075   
    144. D(C   6,C   5,C   4,C   3)     -0.0238         0.021871   
    145. D(C   6,C   5,C   4,C   0)   -179.9781         0.021871   
    146. D(C  21,C   5,C   4,C   0)     -0.0852         0.021871   
    147. D(C  21,C   5,C   4,C   3)    179.8690         0.021871   
    148. D(H   8,C   6,C   5,C   4)   -179.9462         0.024738   
    149. D(H   8,C   6,C   5,C  21)      0.1647         0.024738   
    150. D(C   1,C   6,C   5,C  21)   -179.8439         0.024738   
    151. D(C   1,C   6,C   5,C   4)      0.0452         0.024738   
    152. D(C   5,C   6,C   1,H  45)   -179.9849         0.025837   
    153. D(C   5,C   6,C   1,C   2)      0.0131         0.025837   
    154. D(H   8,C   6,C   1,H  45)      0.0066         0.025837   
    155. D(H   8,C   6,C   1,C   2)   -179.9954         0.025837   
    156. D(C  12,C   9,C   2,C   3)     -3.2036         0.011170   
    157. D(C  12,C   9,C   2,C   1)    176.9891         0.011170   
    158. D(H  11,C   9,C   2,C   3)    120.0999         0.011170   
    159. D(H  11,C   9,C   2,C   1)    -59.7073         0.011170   
    160. D(H  10,C   9,C   2,C   3)   -126.5381         0.011170   
    161. D(H  10,C   9,C   2,C   1)     53.6546         0.011170   
    162. D(H  13,C  12,C   9,C   2)    -57.5038         0.011070   
    163. D(C  15,C  12,C   9,H  10)    -56.4685         0.011070   
    164. D(C  15,C  12,C   9,C   2)   -179.4415         0.011070   
    165. D(H  14,C  12,C   9,H  11)    -64.2449         0.011070   
    166. D(H  14,C  12,C   9,H  10)   -178.2777         0.011070   
    167. D(H  14,C  12,C   9,C   2)     58.7493         0.011070   
    168. D(H  13,C  12,C   9,H  11)    179.5021         0.011070   
    169. D(C  15,C  12,C   9,H  11)     57.5643         0.011070   
    170. D(H  13,C  12,C   9,H  10)     65.4693         0.011070   
    171. D(C  18,C  15,C  12,H  14)    -57.7583         0.010892   
    172. D(C  18,C  15,C  12,C   9)    179.9994         0.010892   
    173. D(H  17,C  15,C  12,H  14)    179.9005         0.010892   
    174. D(H  17,C  15,C  12,H  13)    -64.5615         0.010892   
    175. D(H  17,C  15,C  12,C   9)     57.6582         0.010892   
    176. D(H  16,C  15,C  12,H  14)     64.5490         0.010892   
    177. D(C  18,C  15,C  12,H  13)     57.7797         0.010892   
    178. D(H  16,C  15,C  12,H  13)   -179.9131         0.010892   
    179. D(H  16,C  15,C  12,C   9)    -57.6933         0.010892   
    180. D(H  43,C  18,C  15,H  17)    -58.0087         0.011084   
    181. D(H  43,C  18,C  15,H  16)     57.6876         0.011084   
    182. D(H  20,C  18,C  15,H  17)     62.1533         0.011084   
    183. D(H  20,C  18,C  15,H  16)    177.8496         0.011084   
    184. D(H  20,C  18,C  15,C  12)    -60.0104         0.011084   
    185. D(H  43,C  18,C  15,C  12)    179.8276         0.011084   
    186. D(H  19,C  18,C  15,H  16)    -62.4492         0.011084   
    187. D(H  19,C  18,C  15,C  12)     59.6908         0.011084   
    188. D(H  19,C  18,C  15,H  17)   -178.1455         0.011084   
    189. D(C  24,C  21,C   5,C   4)    179.1210         0.011435   
    190. D(H  23,C  21,C   5,C   6)   -124.7733         0.011435   
    191. D(H  23,C  21,C   5,C   4)     55.3404         0.011435   
    192. D(H  22,C  21,C   5,C   6)    122.5952         0.011435   
    193. D(C  24,C  21,C   5,C   6)     -0.9927         0.011435   
    194. D(H  22,C  21,C   5,C   4)    -57.2910         0.011435   
    195. D(C  27,C  24,C  21,H  23)    -56.4066         0.011106   
    196. D(C  27,C  24,C  21,C   5)   -179.7244         0.011106   
    197. D(H  26,C  24,C  21,H  23)   -177.9999         0.011106   
    198. D(H  26,C  24,C  21,H  22)    -64.4452         0.011106   
    199. D(H  26,C  24,C  21,C   5)     58.6823         0.011106   
    200. D(H  25,C  24,C  21,H  23)     65.1301         0.011106   
    201. D(C  27,C  24,C  21,H  22)     57.1482         0.011106   
    202. D(H  25,C  24,C  21,H  22)    178.6848         0.011106   
    203. D(H  25,C  24,C  21,C   5)    -58.1877         0.011106   
    204. D(C  30,C  27,C  24,H  26)    -57.6861         0.010671   
    205. D(C  30,C  27,C  24,H  25)     57.8313         0.010671   
    206. D(C  30,C  27,C  24,C  21)    179.9583         0.010671   
    207. D(H  29,C  27,C  24,H  26)    179.2435         0.010671   
    208. D(H  29,C  27,C  24,H  25)    -65.2391         0.010671   
    209. D(H  29,C  27,C  24,C  21)     56.8879         0.010671   
    210. D(H  28,C  27,C  24,H  26)     65.6138         0.010671   
    211. D(H  28,C  27,C  24,H  25)   -178.8688         0.010671   
    212. D(H  28,C  27,C  24,C  21)    -56.7418         0.010671   
    213. D(C  32,C  30,C  27,H  29)    -73.1448         0.013373   
    214. D(C  32,C  30,C  27,H  28)     41.2701         0.013373   
    215. D(C  32,C  30,C  27,C  24)    164.6172         0.013373   
    216. D(H  31,C  30,C  27,H  29)     91.2866         0.013373   
    217. D(H  31,C  30,C  27,H  28)   -154.2985         0.013373   
    218. D(H  31,C  30,C  27,C  24)    -30.9514         0.013373   
    219. D(C  35,C  32,C  30,H  31)     32.5018         0.013377   
    220. D(C  35,C  32,C  30,C  27)   -163.0619         0.013377   
    221. D(H  34,C  32,C  30,H  31)    155.8896         0.013377   
    222. D(H  34,C  32,C  30,C  27)    -39.6740         0.013377   
    223. D(H  33,C  32,C  30,H  31)    -89.6484         0.013377   
    224. D(H  33,C  32,C  30,C  27)     74.7880         0.013377   
    225. D(C  38,C  35,C  32,H  34)     57.0472         0.010672   
    226. D(C  38,C  35,C  32,H  33)    -56.5599         0.010672   
    227. D(C  38,C  35,C  32,C  30)   -179.5838         0.010672   
    228. D(H  37,C  35,C  32,H  34)    -65.4930         0.010672   
    229. D(H  37,C  35,C  32,H  33)   -179.1002         0.010672   
    230. D(H  37,C  35,C  32,C  30)     57.8760         0.010672   
    231. D(H  36,C  35,C  32,H  34)    179.3083         0.010672   
    232. D(H  36,C  35,C  32,H  33)     65.7012         0.010672   
    233. D(H  36,C  35,C  32,C  30)    -57.3227         0.010672   
    234. D(H  44,C  38,C  35,H  36)     58.2992         0.011122   
    235. D(H  44,C  38,C  35,C  32)   -179.8202         0.011122   
    236. D(H  40,C  38,C  35,H  37)   -177.9925         0.011122   
    237. D(H  40,C  38,C  35,H  36)    -61.9073         0.011122   
    238. D(H  40,C  38,C  35,C  32)     59.9733         0.011122   
    239. D(H  39,C  38,C  35,H  37)     62.3445         0.011122   
    240. D(H  39,C  38,C  35,H  36)    178.4297         0.011122   
    241. D(H  44,C  38,C  35,H  37)    -57.7860         0.011122   
    242. D(H  39,C  38,C  35,C  32)    -59.6897         0.011122   
    -----------------------------------------------------------------

Number of atoms                         .... 46
Number of degrees of freedom            .... 242

         *************************************************************
         *                GEOMETRY OPTIMIZATION CYCLE   1            *
         *************************************************************
---------------------------------
CARTESIAN COORDINATES (ANGSTROEM)
---------------------------------
  C      4.303993   -0.099044   -0.019986
  C      0.095379    0.041847   -0.250332
  C      0.727206   -1.205028   -0.115214
  C      2.122929   -1.212411   -0.043556
  C      2.874308   -0.020154   -0.101380
  C      2.228091    1.234157   -0.236580
  C      0.828539    1.228178   -0.309060
  H      2.668303   -2.150773    0.059972
  H      0.289670    2.170928   -0.414345
  C     -0.115666   -2.468406   -0.049589
  H     -0.784199   -2.484013   -0.930720
  H     -0.791676   -2.389160    0.822893
  C      0.636247   -3.799827    0.026362
  H      1.309912   -3.896981   -0.845049
  H      1.286422   -3.811728    0.920477
  C     -0.301843   -5.011708    0.074983
  H     -0.977280   -4.914794    0.945461
  H     -0.955453   -5.002515   -0.817199
  C      0.442407   -6.347212    0.151027
  H      1.079450   -6.399990    1.050835
  H      1.097598   -6.491215   -0.725436
  C      3.053158    2.505621   -0.293993
  H      3.669351    2.559915    0.622764
  H      3.788282    2.406081   -1.113865
  C      2.286495    3.819607   -0.461501
  H      1.683582    3.789097   -1.387366
  H      1.571864    3.952366    0.370090
  C      3.218416    5.039823   -0.514112
  H      3.844016    5.071239    0.400108
  H      3.946453    4.894522   -1.346232
  C      2.505214    6.343014   -0.678289
  H      1.561879    6.348293   -1.239679
  C      3.174852    7.653563   -0.417869
  H      3.874748    7.897348   -1.251684
  H      3.824892    7.567710    0.475950
  C      2.204128    8.830751   -0.238803
  H      1.570192    8.913846   -1.141092
  H      1.516816    8.605008    0.596374
  C      2.912091   10.163176    0.016523
  H      3.531850   10.118821    0.928896
  H      3.579244   10.430027   -0.821537
  C      5.515728   -0.175457    0.048577
  H      6.584104   -0.243307    0.110603
  H     -0.257066   -7.198161    0.187741
  H      2.190725   10.986727    0.143833
  H     -0.996407    0.085398   -0.311066

----------------------------
CARTESIAN COORDINATES (A.U.)
----------------------------
  NO LB      ZA    FRAG     MASS         X           Y           Z
   0 C     6.0000    0    12.011    8.133368   -0.187165   -0.037768
   1 C     6.0000    0    12.011    0.180239    0.079078   -0.473059
   2 C     6.0000    0    12.011    1.374220   -2.277173   -0.217723
   3 C     6.0000    0    12.011    4.011755   -2.291125   -0.082310
   4 C     6.0000    0    12.011    5.431655   -0.038085   -0.191581
   5 C     6.0000    0    12.011    4.210482    2.332219   -0.447072
   6 C     6.0000    0    12.011    1.565712    2.320921   -0.584040
   7 H     1.0000    0     1.008    5.042361   -4.064372    0.113331
   8 H     1.0000    0     1.008    0.547398    4.102459   -0.782998
   9 C     6.0000    0    12.011   -0.218578   -4.664611   -0.093709
  10 H     1.0000    0     1.008   -1.481922   -4.694104   -1.758806
  11 H     1.0000    0     1.008   -1.496052   -4.514858    1.555042
  12 C     6.0000    0    12.011    1.202332   -7.180633    0.049817
  13 H     1.0000    0     1.008    2.475375   -7.364228   -1.596911
  14 H     1.0000    0     1.008    2.430986   -7.203122    1.739450
  15 C     6.0000    0    12.011   -0.570401   -9.470755    0.141698
  16 H     1.0000    0     1.008   -1.846792   -9.287615    1.786663
  17 H     1.0000    0     1.008   -1.805544   -9.453382   -1.544282
  18 C     6.0000    0    12.011    0.836027  -11.994492    0.285399
  19 H     1.0000    0     1.008    2.039866  -12.094228    1.985790
  20 H     1.0000    0     1.008    2.074160  -12.266619   -1.370876
  21 C     6.0000    0    12.011    5.769632    4.734937   -0.555566
  22 H     1.0000    0     1.008    6.934068    4.837539    1.176852
  23 H     1.0000    0     1.008    7.158815    4.546834   -2.104900
  24 C     6.0000    0    12.011    4.320850    7.218011   -0.872110
  25 H     1.0000    0     1.008    3.181510    7.160355   -2.621742
  26 H     1.0000    0     1.008    2.970393    7.468889    0.699368
  27 C     6.0000    0    12.011    6.081926    9.523885   -0.971530
  28 H     1.0000    0     1.008    7.264138    9.583253    0.756095
  29 H     1.0000    0     1.008    7.457715    9.249306   -2.544009
  30 C     6.0000    0    12.011    4.734168   11.986560   -1.281780
  31 H     1.0000    0     1.008    2.951523   11.996535   -2.342654
  32 C     6.0000    0    12.011    5.999601   14.463137   -0.789657
  33 H     1.0000    0     1.008    7.322213   14.923825   -2.365340
  34 H     1.0000    0     1.008    7.227999   14.300899    0.899416
  35 C     6.0000    0    12.011    4.165199   16.687701   -0.451272
  36 H     1.0000    0     1.008    2.967233   16.844727   -2.156351
  37 H     1.0000    0     1.008    2.866366   16.261108    1.126983
  38 C     6.0000    0    12.011    5.503055   19.205619    0.031224
  39 H     1.0000    0     1.008    6.674230   19.121801    1.755359
  40 H     1.0000    0     1.008    6.763791   19.709896   -1.552480
  41 C     6.0000    0    12.011   10.423215   -0.331566    0.091797
  42 H     1.0000    0     1.008   12.442153   -0.459784    0.209009
  43 H     1.0000    0     1.008   -0.485785  -13.602553    0.354779
  44 H     1.0000    0     1.008    4.139869   20.761905    0.271806
  45 H     1.0000    0     1.008   -1.882936    0.161379   -0.587830

--------------------------------
INTERNAL COORDINATES (ANGSTROEM)
--------------------------------
 C      0   0   0     0.000000000000     0.00000000     0.00000000
 C      1   0   0     4.217267605314     0.00000000     0.00000000
 C      2   1   0     1.404335839355    61.05917944     0.00000000
 C      3   2   1     1.397581289152   117.31855105   359.93081548
 C      4   3   2     1.410457667856   121.69815711     0.11280711
 C      5   4   3     1.417452211844   120.60070249   359.94306814
 C      2   1   3     1.395835449026    60.43048081   179.97823380
 H      4   3   2     1.090263092744   120.59538612   180.10419748
 H      7   2   1     1.090981785792   118.62367839   179.98227717
 C      3   2   1     1.520152664705   119.51119788   179.74922628
 H     10   3   2     1.106152145971   108.20656321    53.65462085
 H     10   3   2     1.106568332075   108.25502794   300.29265110
 C     10   3   2     1.530955288703   116.90996100   176.98913102
 H     13  10   3     1.105722139290   109.66648721   302.49624649
 H     13  10   3     1.105582149477   109.77419113    58.74925706
 C     13  10   3     1.533307519737   112.85800538   180.55849391
 H     16  13  10     1.106046784222   109.22748351   302.30666372
 H     16  13  10     1.106019083694   109.23256118    57.65818003
 C     16  13  10     1.530771518507   113.18292093   179.99942115
 H     19  16  13     1.103750193219   111.27394370    59.69080120
 H     19  16  13     1.103721263703   111.28414851   299.98960799
 C      6   5   4     1.516789682418   119.82821011   179.86898971
 H     22   6   5     1.105931011271   108.23126521   302.70895442
 H     22   6   5     1.105670120289   108.31613910    55.34037549
 C     22   6   5     1.530486753679   116.82974887   179.12097525
 H     25  22   6     1.105288044218   109.95170627   301.81226574
 H     25  22   6     1.104475093840   110.17614524    58.68228741
 C     25  22   6     1.536285203199   112.44463511   180.27562253
 H     28  25  22     1.108224109920   109.67589191   303.25821190
 H     28  25  22     1.115156146016   108.54752561    56.88788539
 C     28  25  22     1.494630551553   114.00612795   179.95834673
 H     31  28  25     1.097755836451   118.06150904   329.04861691
 C     31  28  25     1.494580520597   122.11484849   164.61718009
 H     33  31  28     1.115586911276   110.02797811    74.78797326
 H     33  31  28     1.108528193491   109.59174295   320.32599168
 C     33  31  28     1.536275400507   114.14916441   196.93810627
 H     36  33  31     1.105850040393   108.94728716   302.67732659
 H     36  33  31     1.104934005282   108.94123051    57.87595306
 C     36  33  31     1.530280503978   113.22300645   180.41624551
 H     39  36  33     1.103853937675   111.26410751   300.31032679
 H     39  36  33     1.103923792860   111.30930330    59.97330787
 C      1   2   3     1.216076144828   178.30857588     1.10884777
 H     42   1   5     1.072323332254   179.91234577   284.13399622
 H     19  16  13     1.102145667214   111.51164448   179.82761984
 H     39  36  33     1.102186211315   111.53521094   180.17984320
 H      2   1   3     1.094340127783   179.63013783   183.26556386

---------------------------
INTERNAL COORDINATES (A.U.)
---------------------------
 C      0   0   0     0.000000000000     0.00000000     0.00000000
 C      1   0   0     7.969480807502     0.00000000     0.00000000
 C      2   1   0     2.653810136432    61.05917944     0.00000000
 C      3   2   1     2.641045886390   117.31855105   359.93081548
 C      4   3   2     2.665378715737   121.69815711     0.11280711
 C      5   4   3     2.678596488306   120.60070249   359.94306814
 C      2   1   3     2.637746726678    60.43048081   179.97823380
 H      4   3   2     2.060298659208   120.59538612   180.10419748
 H      7   2   1     2.061656792244   118.62367839   179.98227717
 C      3   2   1     2.872672218043   119.51119788   179.74922628
 H     10   3   2     2.090324618335   108.20656321    53.65462085
 H     10   3   2     2.091111096091   108.25502794   300.29265110
 C     10   3   2     2.893086218928   116.90996100   176.98913102
 H     13  10   3     2.089512023472   109.66648721   302.49624649
 H     13  10   3     2.089247481064   109.77419113    58.74925706
 C     13  10   3     2.897531291385   112.85800538   180.55849391
 H     16  13  10     2.090125513485   109.22748351   302.30666372
 H     16  13  10     2.090073167072   109.23256118    57.65818003
 C     16  13  10     2.892738943585   113.18292093   179.99942115
 H     19  16  13     2.085785585446   111.27394370    59.69080120
 H     19  16  13     2.085730916585   111.28414851   299.98960799
 C      6   5   4     2.866317102528   119.82821011   179.86898971
 H     22   6   5     2.089906734314   108.23126521   302.70895442
 H     22   6   5     2.089413721806   108.31613910    55.34037549
 C     22   6   5     2.892200816048   116.82974887   179.12097525
 H     25  22   6     2.088691702669   109.95170627   301.81226574
 H     25  22   6     2.087155449095   110.17614524    58.68228741
 C     25  22   6     2.903158297642   112.44463511   180.27562253
 H     28  25  22     2.094240062757   109.67589191   303.25821190
 H     28  25  22     2.107339712530   108.54752561    56.88788539
 C     28  25  22     2.824442413826   114.00612795   179.95834673
 H     31  28  25     2.074457892805   118.06150904   329.04861691
 C     31  28  25     2.824347869022   122.11484849   164.61718009
 H     33  31  28     2.108153740899   110.02797811    74.78797326
 H     33  31  28     2.094814697429   109.59174295   320.32599168
 C     33  31  28     2.903139773239   114.14916441   196.93810627
 H     36  33  31     2.089753721529   108.94728716   302.67732659
 H     36  33  31     2.088022666040   108.94123051    57.87595306
 C     36  33  31     2.891811060598   113.22300645   180.41624551
 H     39  36  33     2.085981634057   111.26410751   300.31032679
 H     39  36  33     2.086113641225   111.30930330    59.97330787
 C      1   2   3     2.298050871720   178.30857588     1.10884777
 H     42   1   5     2.026397424974   179.91234577   284.13399622
 H     19  16  13     2.082753470722   111.51164448   179.82761984
 H     39  36  33     2.082830087969   111.53521094   180.17984320
 H      2   1   3     2.068003138871   179.63013783   183.26556386

---------------------
BASIS SET INFORMATION
---------------------
There are 2 groups of distinct atoms

 Group   1 Type C   : 10s5p1d contracted to 6s2p1d pattern {511111/41/1}
 Group   2 Type H   : 6s1p contracted to 4s1p pattern {3111/1}

Atom   0C    basis set group =>   1
Atom   1C    basis set group =>   1
Atom   2C    basis set group =>   1
Atom   3C    basis set group =>   1
Atom   4C    basis set group =>   1
Atom   5C    basis set group =>   1
Atom   6C    basis set group =>   1
Atom   7H    basis set group =>   2
Atom   8H    basis set group =>   2
Atom   9C    basis set group =>   1
Atom  10H    basis set group =>   2
Atom  11H    basis set group =>   2
Atom  12C    basis set group =>   1
Atom  13H    basis set group =>   2
Atom  14H    basis set group =>   2
Atom  15C    basis set group =>   1
Atom  16H    basis set group =>   2
Atom  17H    basis set group =>   2
Atom  18C    basis set group =>   1
Atom  19H    basis set group =>   2
Atom  20H    basis set group =>   2
Atom  21C    basis set group =>   1
Atom  22H    basis set group =>   2
Atom  23H    basis set group =>   2
Atom  24C    basis set group =>   1
Atom  25H    basis set group =>   2
Atom  26H    basis set group =>   2
Atom  27C    basis set group =>   1
Atom  28H    basis set group =>   2
Atom  29H    basis set group =>   2
Atom  30C    basis set group =>   1
Atom  31H    basis set group =>   2
Atom  32C    basis set group =>   1
Atom  33H    basis set group =>   2
Atom  34H    basis set group =>   2
Atom  35C    basis set group =>   1
Atom  36H    basis set group =>   2
Atom  37H    basis set group =>   2
Atom  38C    basis set group =>   1
Atom  39H    basis set group =>   2
Atom  40H    basis set group =>   2
Atom  41C    basis set group =>   1
Atom  42H    basis set group =>   2
Atom  43H    basis set group =>   2
Atom  44H    basis set group =>   2
Atom  45H    basis set group =>   2
---------------------------------
AUXILIARY/J BASIS SET INFORMATION
---------------------------------
There are 2 groups of distinct atoms

 Group   1 Type C   : 12s5p4d2f1g contracted to 6s4p3d1f1g pattern {711111/2111/211/2/1}
 Group   2 Type H   : 5s2p1d contracted to 3s1p1d pattern {311/2/1}

Atom   0C    basis set group =>   1
Atom   1C    basis set group =>   1
Atom   2C    basis set group =>   1
Atom   3C    basis set group =>   1
Atom   4C    basis set group =>   1
Atom   5C    basis set group =>   1
Atom   6C    basis set group =>   1
Atom   7H    basis set group =>   2
Atom   8H    basis set group =>   2
Atom   9C    basis set group =>   1
Atom  10H    basis set group =>   2
Atom  11H    basis set group =>   2
Atom  12C    basis set group =>   1
Atom  13H    basis set group =>   2
Atom  14H    basis set group =>   2
Atom  15C    basis set group =>   1
Atom  16H    basis set group =>   2
Atom  17H    basis set group =>   2
Atom  18C    basis set group =>   1
Atom  19H    basis set group =>   2
Atom  20H    basis set group =>   2
Atom  21C    basis set group =>   1
Atom  22H    basis set group =>   2
Atom  23H    basis set group =>   2
Atom  24C    basis set group =>   1
Atom  25H    basis set group =>   2
Atom  26H    basis set group =>   2
Atom  27C    basis set group =>   1
Atom  28H    basis set group =>   2
Atom  29H    basis set group =>   2
Atom  30C    basis set group =>   1
Atom  31H    basis set group =>   2
Atom  32C    basis set group =>   1
Atom  33H    basis set group =>   2
Atom  34H    basis set group =>   2
Atom  35C    basis set group =>   1
Atom  36H    basis set group =>   2
Atom  37H    basis set group =>   2
Atom  38C    basis set group =>   1
Atom  39H    basis set group =>   2
Atom  40H    basis set group =>   2
Atom  41C    basis set group =>   1
Atom  42H    basis set group =>   2
Atom  43H    basis set group =>   2
Atom  44H    basis set group =>   2
Atom  45H    basis set group =>   2


           ************************************************************
           *        Program running with 16 parallel MPI-processes    *
           *              working on a common directory               *
           ************************************************************
------------------------------------------------------------------------------
                           ORCA GTO INTEGRAL CALCULATION
                           -- RI-GTO INTEGRALS CHOSEN --
------------------------------------------------------------------------------
------------------------------------------------------------------------------
                   ___                                                        
                  /   \      - P O W E R E D   B Y -                         
                 /     \                                                     
                 |  |  |   _    _      __       _____    __    __             
                 |  |  |  | |  | |    /  \     |  _  \  |  |  /  |          
                  \  \/   | |  | |   /    \    | | | |  |  | /  /          
                 / \  \   | |__| |  /  /\  \   | |_| |  |  |/  /          
                |  |  |   |  __  | /  /__\  \  |    /   |      \           
                |  |  |   | |  | | |   __   |  |    \   |  |\   \          
                \     /   | |  | | |  |  |  |  | |\  \  |  | \   \       
                 \___/    |_|  |_| |__|  |__|  |_| \__\ |__|  \__/        
                                                                              
                      - O R C A' S   B I G   F R I E N D -                    
                                      &                                       
                       - I N T E G R A L  F E E D E R -                       
                                                                              
 v1 FN, 2020, v2 2021                                                         
------------------------------------------------------------------------------


Reading SHARK input file opt_EPRII.SHARKINP.tmp ... ok
----------------------
SHARK INTEGRAL PACKAGE
----------------------

Number of atoms                             ...     46
Number of basis functions                   ...    512
Number of shells                            ...    306
Maximum angular momentum                    ...      2
Integral batch strategy                     ... SHARK/LIBINT Hybrid
RI-J (if used) integral strategy            ... SPLIT-RIJ (Revised 2003 algorithm where possible)
Printlevel                                  ...      1
Contraction scheme used                     ... SEGMENTED contraction
Coulomb Range Separation                    ... NOT USED
Exchange Range Separation                   ... NOT USED
Finite Nucleus Model                        ... NOT USED
Auxiliary Coulomb fitting basis             ... AVAILABLE
   # of basis functions in Aux-J            ...   1228
   # of shells in Aux-J                     ...    420
   Maximum angular momentum in Aux-J        ...      4
Auxiliary J/K fitting basis                 ... NOT available
Auxiliary Correlation fitting basis         ... NOT available
Auxiliary 'external' fitting basis          ... NOT available
Integral threshold                          ...     2.500000e-11
Primitive cut-off                           ...     2.500000e-12
Primitive pair pre-selection threshold      ...     2.500000e-12

Calculating pre-screening integrals         ... done (  0.0 sec) Dimension = 306
Organizing shell pair data                  ... done (  0.2 sec)
Shell pair information
Total number of shell pairs                 ...     46971
Shell pairs after pre-screening             ...     23828
Total number of primitive shell pairs       ...    122156
Primitive shell pairs kept                  ...     44674
          la=0 lb=0:  11238 shell pairs
          la=1 lb=0:   8159 shell pairs
          la=1 lb=1:   1397 shell pairs
          la=2 lb=0:   2162 shell pairs
          la=2 lb=1:    759 shell pairs
          la=2 lb=2:    113 shell pairs

Calculating one electron integrals          ... done (  0.0 sec)
Calculating RI/J V-Matrix + Cholesky decomp.... done (  0.2 sec)
Calculating Nuclear repulsion               ... done (  0.0 sec) ENN=   1246.903824399165 Eh

SHARK setup successfully completed in   1.0 seconds

Maximum memory used throughout the entire GTOINT-calculation: 33.4 MB


           ************************************************************
           *        Program running with 16 parallel MPI-processes    *
           *              working on a common directory               *
           ************************************************************
-------------------------------------------------------------------------------
                                 ORCA SCF
-------------------------------------------------------------------------------

------------
SCF SETTINGS
------------
Hamiltonian:
 Density Functional     Method          .... DFT(GTOs)
 Exchange Functional    Exchange        .... B88
   X-Alpha parameter    XAlpha          ....  0.666667
   Becke's b parameter  XBeta           ....  0.004200
 Correlation Functional Correlation     .... LYP
 LDA part of GGA corr.  LDAOpt          .... VWN-5
 Gradients option       PostSCFGGA      .... off
 Hybrid DFT is turned on
   Fraction HF Exchange ScalHFX         ....  0.200000
   Scaling of DF-GGA-X  ScalDFX         ....  0.720000
   Scaling of DF-GGA-C  ScalDFC         ....  0.810000
   Scaling of DF-LDA-C  ScalLDAC        ....  1.000000
   Perturbative correction              ....  0.000000
   Density functional embedding theory  .... OFF
   NL short-range parameter             ....  4.800000
 RI-approximation to the Coulomb term is turned on
   Number of AuxJ basis functions       .... 1228
   RIJ-COSX (HFX calculated with COS-X)).... on


General Settings:
 Integral files         IntName         .... opt_EPRII
 Hartree-Fock type      HFTyp           .... UHF
 Total Charge           Charge          ....    0
 Multiplicity           Mult            ....    2
 Number of Electrons    NEL             ....  141
 Basis Dimension        Dim             ....  512
 Nuclear Repulsion      ENuc            ....   1246.9038243992 Eh

Convergence Acceleration:
 DIIS                   CNVDIIS         .... on
   Start iteration      DIISMaxIt       ....    12
   Startup error        DIISStart       ....  0.200000
   # of expansion vecs  DIISMaxEq       ....     5
   Bias factor          DIISBfac        ....   1.050
   Max. coefficient     DIISMaxC        ....  10.000
 Trust-Rad. Augm. Hess. CNVTRAH         .... auto
   Auto Start mean grad. ratio tolernc. ....  1.125000
   Auto Start start iteration           ....    20
   Auto Start num. interpolation iter.  ....    10
   Max. Number of Micro iterations      ....    16
   Max. Number of Macro iterations      .... Maxiter - #DIIS iter
   Number of Davidson start vectors     ....     2
   Converg. threshold I  (grad. norm)   ....   1.000e-05
   Converg. threshold II (energy diff.) ....   1.000e-08
   Grad. Scal. Fac. for Micro threshold ....   0.100
   Minimum threshold for Micro iter.    ....   0.010
   NR start threshold (gradient norm)   ....   0.001
   Initial trust radius                 ....   0.400
   Minimum AH scaling param. (alpha)    ....   1.000
   Maximum AH scaling param. (alpha)    .... 1000.000
   Orbital update algorithm             .... Taylor
   White noise on init. David. guess    .... on
   Maximum white noise                  ....   0.010
   Quad. conv. algorithm                .... NR
 SOSCF                  CNVSOSCF        .... off
 Level Shifting         CNVShift        .... on
   Level shift para.    LevelShift      ....    0.2500
   Turn off err/grad.   ShiftErr        ....    0.0010
 Zerner damping         CNVZerner       .... off
 Static damping         CNVDamp         .... on
   Fraction old density DampFac         ....    0.7000
   Max. Damping (<1)    DampMax         ....    0.9800
   Min. Damping (>=0)   DampMin         ....    0.0000
   Turn off err/grad.   DampErr         ....    0.1000
 Fernandez-Rico         CNVRico         .... off

SCF Procedure:
 Maximum # iterations   MaxIter         ....   125
 SCF integral mode      SCFMode         .... Direct
   Integral package                     .... SHARK and LIBINT hybrid scheme
 Reset frequency        DirectResetFreq ....    20
 Integral Threshold     Thresh          ....  2.500e-11 Eh
 Primitive CutOff       TCut            ....  2.500e-12 Eh

Convergence Tolerance:
 Convergence Check Mode ConvCheckMode   .... Total+1el-Energy
 Convergence forced     ConvForced      .... 0
 Energy Change          TolE            ....  1.000e-08 Eh
 1-El. energy change                    ....  1.000e-05 Eh
 DIIS Error             TolErr          ....  5.000e-07


Diagonalization of the overlap matrix:
Smallest eigenvalue                        ... 1.520e-04
Time for diagonalization                   ...    0.057 sec
Threshold for overlap eigenvalues          ... 1.000e-08
Number of eigenvalues below threshold      ... 0
Time for construction of square roots      ...    0.054 sec
Total time needed                          ...    0.112 sec

Time for model grid setup =    0.245 sec

------------------------------
INITIAL GUESS: MODEL POTENTIAL
------------------------------
Loading Hartree-Fock densities                     ... done
Calculating cut-offs                               ... done
Initializing the effective Hamiltonian             ... done
Setting up the integral package (SHARK)            ... done
Starting the Coulomb interaction                   ... done (   0.3 sec)
Reading the grid                                   ... done
Mapping shells                                     ... done
Starting the XC term evaluation                    ... done (   0.1 sec)
  promolecular density results
     # of electrons  =    140.991299659
     EX              =   -105.605164816
     EC              =     -4.582281843
     EX+EC           =   -110.187446659
Transforming the Hamiltonian                       ... done (   0.0 sec)
Diagonalizing the Hamiltonian                      ... done (   0.0 sec)
Back transforming the eigenvectors                 ... done (   0.0 sec)
Now organizing SCF variables                       ... done
                      ------------------
                      INITIAL GUESS DONE (   1.0 sec)
                      ------------------
-------------------
DFT GRID GENERATION
-------------------

General Integration Accuracy     IntAcc      ... 4.388
Radial Grid Type                 RadialGrid  ... OptM3 with GC (2021)
Angular Grid (max. ang.)         AngularGrid ... 4 (Lebedev-302)
Angular grid pruning method      GridPruning ... 4 (adaptive)
Weight generation scheme         WeightScheme... Becke
Basis function cutoff            BFCut       ... 1.0000e-11
Integration weight cutoff        WCut        ... 1.0000e-14
Angular grids for H and He will be reduced by one unit
Partially contracted basis set               ... off
Rotationally invariant grid construction     ... off

Total number of grid points                  ...   199722
Total number of batches                      ...     3144
Average number of points per batch           ...       63
Average number of grid points per atom       ...     4342
Time for grid setup =    1.080 sec

--------------------
COSX GRID GENERATION
--------------------

GRIDX 1
-------
General Integration Accuracy     IntAcc      ... 3.816
Radial Grid Type                 RadialGrid  ... OptM3 with GC (2021)
Angular Grid (max. ang.)         AngularGrid ... 1 (Lebedev-50)
Angular grid pruning method      GridPruning ... 4 (adaptive)
Weight generation scheme         WeightScheme... Becke
Basis function cutoff            BFCut       ... 1.0000e-11
Integration weight cutoff        WCut        ... 1.0000e-14
Angular grids for H and He will be reduced by one unit
Partially contracted basis set               ... on
Rotationally invariant grid construction     ... off

Total number of grid points                  ...    25504
Total number of batches                      ...      424
Average number of points per batch           ...       60
Average number of grid points per atom       ...      554
UseSFitting                                  ... on

GRIDX 2
-------
General Integration Accuracy     IntAcc      ... 4.020
Radial Grid Type                 RadialGrid  ... OptM3 with GC (2021)
Angular Grid (max. ang.)         AngularGrid ... 2 (Lebedev-110)
Angular grid pruning method      GridPruning ... 4 (adaptive)
Weight generation scheme         WeightScheme... Becke
Basis function cutoff            BFCut       ... 1.0000e-11
Integration weight cutoff        WCut        ... 1.0000e-14
Angular grids for H and He will be reduced by one unit
Partially contracted basis set               ... on
Rotationally invariant grid construction     ... off

Total number of grid points                  ...    53567
Total number of batches                      ...      862
Average number of points per batch           ...       62
Average number of grid points per atom       ...     1164
UseSFitting                                  ... on

GRIDX 3
-------
General Integration Accuracy     IntAcc      ... 4.338
Radial Grid Type                 RadialGrid  ... OptM3 with GC (2021)
Angular Grid (max. ang.)         AngularGrid ... 3 (Lebedev-194)
Angular grid pruning method      GridPruning ... 4 (adaptive)
Weight generation scheme         WeightScheme... Becke
Basis function cutoff            BFCut       ... 1.0000e-11
Integration weight cutoff        WCut        ... 1.0000e-14
Angular grids for H and He will be reduced by one unit
Partially contracted basis set               ... on
Rotationally invariant grid construction     ... off

Total number of grid points                  ...   116746
Total number of batches                      ...     1847
Average number of points per batch           ...       63
Average number of grid points per atom       ...     2538
UseSFitting                                  ... on

Time for X-Grid setup             =    2.088 sec

--------------
SCF ITERATIONS
--------------
ITER       Energy         Delta-E        Max-DP      RMS-DP      [F,P]     Damp
               ***  Starting incremental Fock matrix formation  ***
  0   -739.2626050196   0.000000000000 0.04781331  0.00071059  0.0795585 0.7000
  1   -739.4927855973  -0.230180577731 0.03425307  0.00054016  0.0426088 0.7000
                               ***Turning on DIIS***
  2   -739.5938350644  -0.101049467075 0.11555488  0.00110273  0.0165432 0.0000
  3   -739.7321918814  -0.138356816938 0.02713111  0.00033139  0.0233720 0.0000
  4   -739.7731666568  -0.040974775395 0.02978490  0.00016170  0.0053484 0.0000
  5   -739.7748611674  -0.001694510647 0.01718859  0.00008067  0.0013278 0.0000
  6   -739.7750062243  -0.000145056859 0.01055040  0.00005192  0.0007203 0.0000
               *** Restarting incremental Fock matrix formation ***
                                   *** Resetting DIIS ***
  7   -739.7752508568  -0.000244632578 0.00280055  0.00001592  0.0012131 0.0000
  8   -739.7752485505   0.000002306362 0.00060300  0.00000455  0.0014638 0.0000
  9   -739.7752581890  -0.000009638494 0.00050961  0.00000299  0.0004903 0.0000
 10   -739.7752594782  -0.000001289211 0.00010970  0.00000075  0.0000635 0.0000
 11   -739.7752595072  -0.000000029039 0.00004522  0.00000033  0.0000324 0.0000
 12   -739.7752595210  -0.000000013731 0.00001783  0.00000017  0.0000124 0.0000
 13   -739.7752595173   0.000000003616 0.00000956  0.00000008  0.0000078 0.0000
 14   -739.7752595243  -0.000000007013 0.00000933  0.00000008  0.0000013 0.0000
 15   -739.7752595048   0.000000019536 0.00001103  0.00000005  0.0000034 0.0000
 16   -739.7752595342  -0.000000029366 0.00000940  0.00000004  0.0000016 0.0000
                            ***DIIS convergence achieved***

               *****************************************************
               *                     SUCCESS                       *
               *           SCF CONVERGED AFTER  17 CYCLES          *
               *****************************************************

Old exchange energy                            =    -21.584408063 Eh
New exchange energy                            =    -21.584381780 Eh
Exchange energy change after final integration =      0.000026283 Eh
Total energy after final integration           =   -739.775233262 Eh
Final COS-X integration done in                =     7.111 sec

----------------
TOTAL SCF ENERGY
----------------

Total Energy       :         -739.77523326 Eh          -20130.30750 eV

Components:
Nuclear Repulsion  :         1246.90382440 Eh           33929.97803 eV
Electronic Energy  :        -1986.67905766 Eh          -54060.28553 eV
One Electron Energy:        -3471.71598555 Eh          -94470.19474 eV
Two Electron Energy:         1485.03692789 Eh           40409.90921 eV
Max COSX asymmetry :            0.00000268 Eh               0.00007 eV

Virial components:
Potential Energy   :        -1473.63461495 Eh          -40099.63650 eV
Kinetic Energy     :          733.85938169 Eh           19969.32900 eV
Virial Ratio       :            2.00806129


DFT components:
N(Alpha)           :       71.000037475735 electrons
N(Beta)            :       70.000027359660 electrons
N(Total)           :      141.000064835395 electrons
E(X)               :      -85.554136215370 Eh       
E(C)               :       -5.417697762857 Eh       
E(XC)              :      -90.971833978227 Eh       
DFET-embed. en.    :        0.000000000000 Eh       

---------------
SCF CONVERGENCE
---------------

  Last Energy change         ...   -1.1348e-08  Tolerance :   1.0000e-08
  Last MAX-Density change    ...    0.0000e+00  Tolerance :   1.0000e-07
  Last RMS-Density change    ...    0.0000e+00  Tolerance :   5.0000e-09
  Last DIIS Error            ...    4.0402e-07  Tolerance :   5.0000e-07

             **** THE GBW FILE WAS UPDATED (opt_EPRII.gbw) ****
             **** DENSITY opt_EPRII.scfp WAS UPDATED ****
             **** ENERGY FILE WAS UPDATED (opt_EPRII.en.tmp) ****
----------------------
UHF SPIN CONTAMINATION
----------------------

Warning: in a DFT calculation there is little theoretical justification to 
         calculate <S**2> as in Hartree-Fock theory. We will do it anyways
         but you should keep in mind that the values have only limited relevance

Expectation value of <S**2>     :     0.754016
Ideal value S*(S+1) for S=0.5   :     0.750000
Deviation                       :     0.004016

             **** THE GBW FILE WAS UPDATED (opt_EPRII.gbw) ****
             **** DENSITY opt_EPRII.scfp WAS UPDATED ****
----------------
ORBITAL ENERGIES
----------------
                 SPIN UP ORBITALS
  NO   OCC          E(Eh)            E(eV) 
   0   1.0000     -10.215423      -277.9758 
   1   1.0000     -10.205049      -277.6935 
   2   1.0000     -10.201451      -277.5956 
   3   1.0000     -10.200891      -277.5804 
   4   1.0000     -10.193406      -277.3767 
   5   1.0000     -10.192485      -277.3516 
   6   1.0000     -10.191974      -277.3377 
   7   1.0000     -10.191216      -277.3171 
   8   1.0000     -10.188563      -277.2449 
   9   1.0000     -10.185105      -277.1508 
  10   1.0000     -10.184443      -277.1328 
  11   1.0000     -10.183571      -277.1091 
  12   1.0000     -10.182578      -277.0820 
  13   1.0000     -10.181911      -277.0639 
  14   1.0000     -10.181676      -277.0575 
  15   1.0000     -10.181512      -277.0530 
  16   1.0000     -10.179716      -277.0042 
  17   1.0000     -10.173094      -276.8240 
  18   1.0000     -10.171205      -276.7726 
  19   1.0000      -0.863011       -23.4837 
  20   1.0000      -0.811182       -22.0734 
  21   1.0000      -0.801241       -21.8029 
  22   1.0000      -0.782338       -21.2885 
  23   1.0000      -0.776508       -21.1299 
  24   1.0000      -0.757149       -20.6031 
  25   1.0000      -0.729678       -19.8556 
  26   1.0000      -0.722414       -19.6579 
  27   1.0000      -0.703238       -19.1361 
  28   1.0000      -0.670666       -18.2498 
  29   1.0000      -0.637976       -17.3602 
  30   1.0000      -0.617907       -16.8141 
  31   1.0000      -0.608022       -16.5451 
  32   1.0000      -0.583657       -15.8821 
  33   1.0000      -0.576264       -15.6809 
  34   1.0000      -0.560630       -15.2555 
  35   1.0000      -0.559468       -15.2239 
  36   1.0000      -0.526390       -14.3238 
  37   1.0000      -0.493556       -13.4303 
  38   1.0000      -0.469848       -12.7852 
  39   1.0000      -0.469520       -12.7763 
  40   1.0000      -0.466642       -12.6980 
  41   1.0000      -0.459788       -12.5115 
  42   1.0000      -0.453363       -12.3366 
  43   1.0000      -0.429025       -11.6744 
  44   1.0000      -0.425734       -11.5848 
  45   1.0000      -0.421722       -11.4756 
  46   1.0000      -0.418741       -11.3945 
  47   1.0000      -0.412519       -11.2252 
  48   1.0000      -0.405943       -11.0463 
  49   1.0000      -0.403705       -10.9854 
  50   1.0000      -0.382961       -10.4209 
  51   1.0000      -0.378811       -10.3080 
  52   1.0000      -0.373695       -10.1688 
  53   1.0000      -0.363232        -9.8840 
  54   1.0000      -0.360855        -9.8194 
  55   1.0000      -0.352630        -9.5955 
  56   1.0000      -0.348987        -9.4964 
  57   1.0000      -0.346886        -9.4393 
  58   1.0000      -0.332606        -9.0507 
  59   1.0000      -0.330127        -8.9832 
  60   1.0000      -0.327046        -8.8994 
  61   1.0000      -0.325246        -8.8504 
  62   1.0000      -0.322706        -8.7813 
  63   1.0000      -0.321487        -8.7481 
  64   1.0000      -0.320038        -8.7087 
  65   1.0000      -0.311391        -8.4734 
  66   1.0000      -0.299178        -8.1410 
  67   1.0000      -0.272019        -7.4020 
  68   1.0000      -0.240958        -6.5568 
  69   1.0000      -0.223256        -6.0751 
  70   1.0000      -0.179553        -4.8859 
  71   0.0000      -0.032423        -0.8823 
  72   0.0000       0.000633         0.0172 
  73   0.0000       0.021054         0.5729 
  74   0.0000       0.023906         0.6505 
  75   0.0000       0.026389         0.7181 
  76   0.0000       0.028822         0.7843 
  77   0.0000       0.032305         0.8791 
  78   0.0000       0.038752         1.0545 
  79   0.0000       0.044923         1.2224 
  80   0.0000       0.045172         1.2292 
  81   0.0000       0.051708         1.4070 
  82   0.0000       0.057075         1.5531 
  83   0.0000       0.064363         1.7514 
  84   0.0000       0.078033         2.1234 
  85   0.0000       0.081532         2.2186 
  86   0.0000       0.083510         2.2724 
  87   0.0000       0.091457         2.4887 
  88   0.0000       0.110080         2.9954 
  89   0.0000       0.115580         3.1451 
  90   0.0000       0.118684         3.2296 
  91   0.0000       0.145324         3.9545 
  92   0.0000       0.149526         4.0688 
  93   0.0000       0.151713         4.1283 
  94   0.0000       0.162031         4.4091 
  95   0.0000       0.164609         4.4792 
  96   0.0000       0.174190         4.7399 
  97   0.0000       0.178249         4.8504 
  98   0.0000       0.180843         4.9210 
  99   0.0000       0.185015         5.0345 
 100   0.0000       0.191178         5.2022 
 101   0.0000       0.191701         5.2165 
 102   0.0000       0.197233         5.3670 
 103   0.0000       0.197739         5.3808 
 104   0.0000       0.198509         5.4017 
 105   0.0000       0.201313         5.4780 
 106   0.0000       0.205987         5.6052 
 107   0.0000       0.217346         5.9143 
 108   0.0000       0.218048         5.9334 
 109   0.0000       0.219711         5.9786 
 110   0.0000       0.222776         6.0620 
 111   0.0000       0.225171         6.1272 
 112   0.0000       0.231530         6.3003 
 113   0.0000       0.238310         6.4848 
 114   0.0000       0.242419         6.5966 
 115   0.0000       0.249263         6.7828 
 116   0.0000       0.252288         6.8651 
 117   0.0000       0.253568         6.8999 
 118   0.0000       0.256990         6.9931 
 119   0.0000       0.259666         7.0659 
 120   0.0000       0.261017         7.1026 
 121   0.0000       0.275307         7.4915 
 122   0.0000       0.277322         7.5463 
 123   0.0000       0.280329         7.6282 
 124   0.0000       0.281088         7.6488 
 125   0.0000       0.283409         7.7119 
 126   0.0000       0.291101         7.9213 
 127   0.0000       0.296328         8.0635 
 128   0.0000       0.297449         8.0940 
 129   0.0000       0.297743         8.1020 
 130   0.0000       0.303483         8.2582 
 131   0.0000       0.307200         8.3593 
 132   0.0000       0.313019         8.5177 
 133   0.0000       0.315270         8.5789 
 134   0.0000       0.318583         8.6691 
 135   0.0000       0.320481         8.7207 
 136   0.0000       0.322346         8.7715 
 137   0.0000       0.330408         8.9909 
 138   0.0000       0.330629         8.9969 
 139   0.0000       0.332662         9.0522 
 140   0.0000       0.336564         9.1584 
 141   0.0000       0.348248         9.4763 
 142   0.0000       0.351103         9.5540 
 143   0.0000       0.353286         9.6134 
 144   0.0000       0.361813         9.8454 
 145   0.0000       0.366585         9.9753 
 146   0.0000       0.370245        10.0749 
 147   0.0000       0.373272        10.1572 
 148   0.0000       0.374721        10.1967 
 149   0.0000       0.382027        10.3955 
 150   0.0000       0.391249        10.6464 
 151   0.0000       0.394576        10.7370 
 152   0.0000       0.401166        10.9163 
 153   0.0000       0.405331        11.0296 
 154   0.0000       0.414614        11.2822 
 155   0.0000       0.418995        11.4014 
 156   0.0000       0.420641        11.4462 
 157   0.0000       0.424655        11.5554 
 158   0.0000       0.431807        11.7501 
 159   0.0000       0.440395        11.9838 
 160   0.0000       0.448144        12.1946 
 161   0.0000       0.452492        12.3129 
 162   0.0000       0.456347        12.4178 
 163   0.0000       0.463376        12.6091 
 164   0.0000       0.468362        12.7448 
 165   0.0000       0.472724        12.8635 
 166   0.0000       0.480951        13.0873 
 167   0.0000       0.489279        13.3139 
 168   0.0000       0.491935        13.3862 
 169   0.0000       0.505019        13.7423 
 170   0.0000       0.508542        13.8381 
 171   0.0000       0.512963        13.9584 
 172   0.0000       0.518451        14.1078 
 173   0.0000       0.524174        14.2635 
 174   0.0000       0.535115        14.5612 
 175   0.0000       0.541234        14.7277 
 176   0.0000       0.546080        14.8596 
 177   0.0000       0.552671        15.0389 
 178   0.0000       0.561555        15.2807 
 179   0.0000       0.572003        15.5650 
 180   0.0000       0.576492        15.6872 
 181   0.0000       0.585581        15.9345 
 182   0.0000       0.589426        16.0391 
 183   0.0000       0.595792        16.2123 
 184   0.0000       0.599231        16.3059 
 185   0.0000       0.616367        16.7722 
 186   0.0000       0.623820        16.9750 
 187   0.0000       0.650663        17.7054 
 188   0.0000       0.657247        17.8846 
 189   0.0000       0.677374        18.4323 
 190   0.0000       0.688415        18.7327 
 191   0.0000       0.697104        18.9692 
 192   0.0000       0.719711        19.5843 
 193   0.0000       0.759626        20.6705 
 194   0.0000       0.765066        20.8185 
 195   0.0000       0.772328        21.0161 
 196   0.0000       0.783056        21.3080 
 197   0.0000       0.791602        21.5406 
 198   0.0000       0.797822        21.7098 
 199   0.0000       0.827383        22.5142 
 200   0.0000       0.831817        22.6349 
 201   0.0000       0.838551        22.8181 
 202   0.0000       0.845727        23.0134 
 203   0.0000       0.849122        23.1058 
 204   0.0000       0.855094        23.2683 
 205   0.0000       0.858060        23.3490 
 206   0.0000       0.861259        23.4361 
 207   0.0000       0.871878        23.7250 
 208   0.0000       0.879267        23.9261 
 209   0.0000       0.881040        23.9743 
 210   0.0000       0.882225        24.0066 
 211   0.0000       0.895856        24.3775 
 212   0.0000       0.898107        24.4387 
 213   0.0000       0.905509        24.6401 
 214   0.0000       0.915494        24.9119 
 215   0.0000       0.917955        24.9788 
 216   0.0000       0.922894        25.1132 
 217   0.0000       0.929442        25.2914 
 218   0.0000       0.931922        25.3589 
 219   0.0000       0.935999        25.4698 
 220   0.0000       0.945764        25.7355 
 221   0.0000       0.947339        25.7784 
 222   0.0000       0.951495        25.8915 
 223   0.0000       0.958045        26.0697 
 224   0.0000       0.958615        26.0852 
 225   0.0000       0.969184        26.3728 
 226   0.0000       0.983042        26.7499 
 227   0.0000       0.991683        26.9851 
 228   0.0000       0.995513        27.0893 
 229   0.0000       0.997570        27.1453 
 230   0.0000       0.999849        27.2073 
 231   0.0000       1.005783        27.3687 
 232   0.0000       1.012047        27.5392 
 233   0.0000       1.019483        27.7416 
 234   0.0000       1.032746        28.1025 
 235   0.0000       1.034403        28.1475 
 236   0.0000       1.038630        28.2626 
 237   0.0000       1.043869        28.4051 
 238   0.0000       1.051613        28.6158 
 239   0.0000       1.059454        28.8292 
 240   0.0000       1.078975        29.3604 
 241   0.0000       1.086864        29.5751 
 242   0.0000       1.088211        29.6117 
 243   0.0000       1.090311        29.6689 
 244   0.0000       1.107106        30.1259 
 245   0.0000       1.110335        30.2137 
 246   0.0000       1.118811        30.4444 
 247   0.0000       1.126796        30.6617 
 248   0.0000       1.134354        30.8673 
 249   0.0000       1.144567        31.1452 
 250   0.0000       1.166821        31.7508 
 251   0.0000       1.179013        32.0826 
 252   0.0000       1.180301        32.1176 
 253   0.0000       1.186084        32.2750 
 254   0.0000       1.194079        32.4926 
 255   0.0000       1.198140        32.6030 
 256   0.0000       1.200625        32.6707 
 257   0.0000       1.203849        32.7584 
 258   0.0000       1.210996        32.9529 
 259   0.0000       1.220340        33.2071 
 260   0.0000       1.240046        33.7434 
 261   0.0000       1.242189        33.8017 
 262   0.0000       1.253093        34.0984 
 263   0.0000       1.262834        34.3635 
 264   0.0000       1.278936        34.8016 
 265   0.0000       1.284460        34.9519 
 266   0.0000       1.289416        35.0868 
 267   0.0000       1.299237        35.3540 
 268   0.0000       1.301279        35.4096 
 269   0.0000       1.322288        35.9813 
 270   0.0000       1.334170        36.3046 
 271   0.0000       1.338357        36.4185 
 272   0.0000       1.358733        36.9730 
 273   0.0000       1.368759        37.2458 
 274   0.0000       1.376374        37.4530 
 275   0.0000       1.380817        37.5739 
 276   0.0000       1.386559        37.7302 
 277   0.0000       1.408489        38.3269 
 278   0.0000       1.411634        38.4125 
 279   0.0000       1.426416        38.8148 
 280   0.0000       1.431696        38.9584 
 281   0.0000       1.434438        39.0330 
 282   0.0000       1.442888        39.2630 
 283   0.0000       1.454761        39.5860 
 284   0.0000       1.460447        39.7408 
 285   0.0000       1.483113        40.3576 
 286   0.0000       1.488977        40.5171 
 287   0.0000       1.501423        40.8558 
 288   0.0000       1.509982        41.0887 
 289   0.0000       1.516312        41.2609 
 290   0.0000       1.521740        41.4086 
 291   0.0000       1.534224        41.7483 
 292   0.0000       1.535771        41.7904 
 293   0.0000       1.545411        42.0528 
 294   0.0000       1.548503        42.1369 
 295   0.0000       1.552075        42.2341 
 296   0.0000       1.558933        42.4207 
 297   0.0000       1.561387        42.4875 
 298   0.0000       1.579111        42.9698 
 299   0.0000       1.581260        43.0283 
 300   0.0000       1.587038        43.1855 
 301   0.0000       1.590514        43.2801 
 302   0.0000       1.594334        43.3840 
 303   0.0000       1.605040        43.6754 
 304   0.0000       1.608002        43.7560 
 305   0.0000       1.610704        43.8295 
 306   0.0000       1.612417        43.8761 
 307   0.0000       1.618353        44.0376 
 308   0.0000       1.620662        44.1005 
 309   0.0000       1.640043        44.6279 
 310   0.0000       1.652888        44.9774 
 311   0.0000       1.658598        45.1327 
 312   0.0000       1.671892        45.4945 
 313   0.0000       1.675976        45.6056 
 314   0.0000       1.678866        45.6843 
 315   0.0000       1.686659        45.8963 
 316   0.0000       1.687538        45.9203 
 317   0.0000       1.692333        46.0507 
 318   0.0000       1.701362        46.2964 
 319   0.0000       1.706012        46.4229 
 320   0.0000       1.716118        46.6979 
 321   0.0000       1.720676        46.8220 
 322   0.0000       1.732706        47.1493 
 323   0.0000       1.743228        47.4356 
 324   0.0000       1.744356        47.4663 
 325   0.0000       1.750973        47.6464 
 326   0.0000       1.758510        47.8515 
 327   0.0000       1.760845        47.9150 
 328   0.0000       1.772810        48.2406 
 329   0.0000       1.777028        48.3554 
 330   0.0000       1.781148        48.4675 
 331   0.0000       1.787669        48.6449 
 332   0.0000       1.789331        48.6902 
 333   0.0000       1.804732        49.1092 
 334   0.0000       1.811830        49.3024 
 335   0.0000       1.816537        49.4305 
 336   0.0000       1.825415        49.6721 
 337   0.0000       1.840613        50.0856 
 338   0.0000       1.848797        50.3083 
 339   0.0000       1.855003        50.4772 
 340   0.0000       1.881632        51.2018 
 341   0.0000       1.898356        51.6569 
 342   0.0000       1.905616        51.8544 
 343   0.0000       1.919756        52.2392 
 344   0.0000       1.928371        52.4737 
 345   0.0000       1.939159        52.7672 
 346   0.0000       1.942581        52.8603 
 347   0.0000       1.947577        52.9963 
 348   0.0000       1.955172        53.2029 
 349   0.0000       1.970842        53.6293 
 350   0.0000       1.992957        54.2311 
 351   0.0000       2.006800        54.6078 
 352   0.0000       2.039061        55.4857 
 353   0.0000       2.045583        55.6631 
 354   0.0000       2.052139        55.8415 
 355   0.0000       2.066783        56.2400 
 356   0.0000       2.076268        56.4981 
 357   0.0000       2.098197        57.0948 
 358   0.0000       2.106648        57.3248 
 359   0.0000       2.117742        57.6267 
 360   0.0000       2.124608        57.8135 
 361   0.0000       2.150692        58.5233 
 362   0.0000       2.167245        58.9737 
 363   0.0000       2.178926        59.2916 
 364   0.0000       2.181872        59.3717 
 365   0.0000       2.197883        59.8074 
 366   0.0000       2.209178        60.1148 
 367   0.0000       2.223250        60.4977 
 368   0.0000       2.234454        60.8026 
 369   0.0000       2.242826        61.0304 
[...]
      dz2     :     0.007354  d :     0.079820
      dxz     :     0.025674
      dyz     :     0.000199
      dx2y2   :     0.021433
      dxy     :     0.025160
 42 H s       :     0.857378  s :     0.857378
      pz      :     0.021548  p :     0.098219
      px      :     0.055838
      py      :     0.020832
 43 H s       :     0.888397  s :     0.888397
      pz      :     0.017169  p :     0.080261
      px      :     0.028449
      py      :     0.034643
 44 H s       :     0.888596  s :     0.888596
      pz      :     0.017540  p :     0.080242
      px      :     0.029186
      py      :     0.033516
 45 H s       :     0.865579  s :     0.865579
      pz      :     0.018609  p :     0.082537
      px      :     0.048479
      py      :     0.015449

SPIN
  0 C s       :    -0.000004  s :    -0.000004
      pz      :    -0.000022  p :    -0.000031
      px      :    -0.000004
      py      :    -0.000005
      dz2     :     0.000001  d :     0.000022
      dxz     :     0.000020
      dyz     :     0.000000
      dx2y2   :     0.000001
      dxy     :     0.000001
  1 C s       :    -0.000005  s :    -0.000005
      pz      :    -0.000121  p :    -0.000133
      px      :    -0.000004
      py      :    -0.000008
      dz2     :     0.000002  d :     0.000024
      dxz     :     0.000001
      dyz     :     0.000018
      dx2y2   :     0.000002
      dxy     :     0.000001
  2 C s       :     0.000009  s :     0.000009
      pz      :     0.000216  p :     0.000230
      px      :     0.000007
      py      :     0.000007
      dz2     :    -0.000001  d :    -0.000011
      dxz     :    -0.000005
      dyz     :    -0.000003
      dx2y2   :    -0.000000
      dxy     :    -0.000001
  3 C s       :    -0.000004  s :    -0.000004
      pz      :    -0.000114  p :    -0.000123
      px      :    -0.000007
      py      :    -0.000003
      dz2     :     0.000001  d :     0.000026
      dxz     :     0.000016
      dyz     :     0.000008
      dx2y2   :     0.000001
      dxy     :     0.000001
  4 C s       :     0.000014  s :     0.000014
      pz      :     0.000237  p :     0.000265
      px      :     0.000008
      py      :     0.000020
      dz2     :    -0.000001  d :    -0.000019
      dxz     :    -0.000003
      dyz     :    -0.000009
      dx2y2   :    -0.000004
      dxy     :    -0.000002
  5 C s       :    -0.000040  s :    -0.000040
      pz      :    -0.000153  p :    -0.000254
      px      :    -0.000029
      py      :    -0.000072
      dz2     :     0.000002  d :     0.000102
      dxz     :     0.000021
      dyz     :     0.000021
      dx2y2   :     0.000047
      dxy     :     0.000011
  6 C s       :     0.000041  s :     0.000041
      pz      :     0.000224  p :     0.000275
      px      :     0.000010
      py      :     0.000042
      dz2     :     0.000001  d :    -0.000020
      dxz     :    -0.000009
      dyz     :    -0.000003
      dx2y2   :     0.000001
      dxy     :    -0.000009
  7 H s       :     0.000004  s :     0.000004
      pz      :    -0.000003  p :    -0.000004
      px      :    -0.000000
      py      :    -0.000000
  8 H s       :    -0.000007  s :    -0.000007
      pz      :     0.000009  p :     0.000019
      px      :     0.000001
      py      :     0.000010
  9 C s       :    -0.000002  s :    -0.000002
      pz      :    -0.000000  p :    -0.000007
      px      :    -0.000003
      py      :    -0.000004
      dz2     :     0.000000  d :     0.000010
      dxz     :     0.000006
      dyz     :     0.000004
      dx2y2   :     0.000000
      dxy     :     0.000000
 10 H s       :     0.000011  s :     0.000011
      pz      :    -0.000000  p :    -0.000000
      px      :    -0.000000
      py      :     0.000000
 11 H s       :     0.000011  s :     0.000011
      pz      :    -0.000000  p :    -0.000000
      px      :    -0.000000
      py      :     0.000000
 12 C s       :     0.000000  s :     0.000000
      pz      :     0.000000  p :     0.000000
      px      :     0.000000
      py      :     0.000000
      dz2     :    -0.000000  d :    -0.000000
      dxz     :     0.000000
      dyz     :    -0.000000
      dx2y2   :    -0.000000
      dxy     :    -0.000000
 13 H s       :     0.000000  s :     0.000000
      pz      :    -0.000000  p :    -0.000000
      px      :    -0.000000
      py      :    -0.000000
 14 H s       :     0.000000  s :     0.000000
      pz      :     0.000000  p :     0.000000
      px      :     0.000000
      py      :     0.000000
 15 C s       :    -0.000000  s :    -0.000000
      pz      :     0.000000  p :     0.000000
      px      :     0.000000
      py      :    -0.000000
      dz2     :    -0.000000  d :    -0.000000
      dxz     :    -0.000000
      dyz     :     0.000000
      dx2y2   :    -0.000000
      dxy     :    -0.000000
 16 H s       :     0.000000  s :     0.000000
      pz      :     0.000000  p :     0.000000
      px      :     0.000000
      py      :     0.000000
 17 H s       :     0.000000  s :     0.000000
      pz      :     0.000000  p :     0.000000
      px      :    -0.000000
      py      :     0.000000
 18 C s       :    -0.000000  s :    -0.000000
      pz      :     0.000000  p :    -0.000000
      px      :    -0.000000
      py      :    -0.000000
      dz2     :     0.000000  d :     0.000000
      dxz     :     0.000000
      dyz     :     0.000000
      dx2y2   :    -0.000000
      dxy     :     0.000000
 19 H s       :     0.000000  s :     0.000000
      pz      :    -0.000000  p :    -0.000000
      px      :    -0.000000
      py      :    -0.000000
 20 H s       :     0.000000  s :     0.000000
      pz      :    -0.000000  p :    -0.000000
      px      :    -0.000000
      py      :    -0.000000
 21 C s       :    -0.000063  s :    -0.000063
      pz      :     0.000624  p :     0.000922
      px      :     0.000271
      py      :     0.000027
      dz2     :     0.000010  d :     0.000155
      dxz     :     0.000011
      dyz     :     0.000080
      dx2y2   :     0.000093
      dxy     :    -0.000039
 22 H s       :     0.000135  s :     0.000135
      pz      :    -0.000002  p :     0.000018
      px      :     0.000019
      py      :     0.000001
 23 H s       :     0.000215  s :     0.000215
      pz      :     0.000033  p :     0.000176
      px      :     0.000012
      py      :     0.000131
 24 C s       :     0.002875  s :     0.002875
      pz      :     0.001144  p :     0.006569
      px      :     0.001387
      py      :     0.004038
      dz2     :    -0.000017  d :    -0.000515
      dxz     :     0.000162
      dyz     :    -0.000139
      dx2y2   :    -0.000511
      dxy     :    -0.000011
 25 H s       :    -0.000266  s :    -0.000266
      pz      :     0.000031  p :     0.000274
      px      :     0.000020
      py      :     0.000223
 26 H s       :    -0.000506  s :    -0.000506
      pz      :     0.000091  p :     0.000480
      px      :     0.000432
      py      :    -0.000043
 27 C s       :    -0.003027  s :    -0.003027
      pz      :    -0.005639  p :    -0.023228
      px      :    -0.006529
      py      :    -0.011059
      dz2     :     0.000765  d :     0.034597
      dxz     :     0.012190
      dyz     :     0.013039
      dx2y2   :     0.003054
      dxy     :     0.005549
 28 H s       :     0.017442  s :     0.017442
      pz      :    -0.000163  p :    -0.000955
      px      :    -0.000495
      py      :    -0.000297
 29 H s       :     0.044545  s :     0.044545
      pz      :    -0.000457  p :    -0.000691
      px      :    -0.000391
      py      :     0.000157
 30 C s       :     0.031195  s :     0.031195
      pz      :     0.621281  p :     0.804286
      px      :     0.164794
      py      :     0.018211
      dz2     :    -0.001472  d :    -0.003219
      dxz     :     0.000119
      dyz     :    -0.000032
      dx2y2   :    -0.000439
      dxy     :    -0.001394
 31 H s       :    -0.018823  s :    -0.018823
      pz      :     0.019368  p :     0.027715
      px      :     0.008029
      py      :     0.000317
 32 C s       :    -0.002847  s :    -0.002847
      pz      :    -0.006037  p :    -0.023343
      px      :    -0.006120
      py      :    -0.011186
      dz2     :     0.001412  d :     0.034520
      dxz     :     0.009719
      dyz     :     0.014236
      dx2y2   :     0.001705
      dxy     :     0.007447
 33 H s       :     0.044663  s :     0.044663
      pz      :    -0.000463  p :    -0.000692
      px      :    -0.000328
      py      :     0.000100
 34 H s       :     0.016142  s :     0.016142
      pz      :    -0.000122  p :    -0.000919
      px      :    -0.000458
      py      :    -0.000339
 35 C s       :     0.003388  s :     0.003388
      pz      :     0.000761  p :     0.007372
      px      :     0.001863
      py      :     0.004748
      dz2     :    -0.000048  d :    -0.000465
      dxz     :     0.000117
      dyz     :    -0.000105
      dx2y2   :    -0.000526
      dxy     :     0.000098
 36 H s       :    -0.000271  s :    -0.000271
      pz      :     0.000035  p :     0.000279
      px      :     0.000029
      py      :     0.000214
 37 H s       :    -0.000497  s :    -0.000497
      pz      :     0.000103  p :     0.000519
      px      :     0.000466
      py      :    -0.000050
 38 C s       :    -0.000226  s :    -0.000226
      pz      :     0.000344  p :     0.000939
      px      :     0.000125
      py      :     0.000469
      dz2     :     0.000024  d :     0.000186
      dxz     :     0.000003
      dyz     :     0.000056
      dx2y2   :     0.000143
      dxy     :    -0.000039
 39 H s       :     0.000150  s :     0.000150
      pz      :    -0.000003  p :     0.000010
      px      :     0.000017
      py      :    -0.000003
 40 H s       :     0.000180  s :     0.000180
      pz      :     0.000041  p :     0.000158
      px      :     0.000013
      py      :     0.000104
 41 C s       :     0.000001  s :     0.000001
      pz      :     0.000071  p :     0.000087
      px      :     0.000002
      py      :     0.000014
      dz2     :    -0.000000  d :    -0.000003
      dxz     :    -0.000002
      dyz     :    -0.000000
      dx2y2   :    -0.000000
      dxy     :    -0.000001
 42 H s       :    -0.000003  s :    -0.000003
      pz      :     0.000002  p :     0.000003
      px      :     0.000000
      py      :     0.000001
 43 H s       :     0.000000  s :     0.000000
      pz      :    -0.000000  p :    -0.000000
      px      :    -0.000000
      py      :    -0.000000
 44 H s       :    -0.000113  s :    -0.000113
      pz      :     0.000017  p :     0.000075
      px      :     0.000033
      py      :     0.000025
 45 H s       :     0.000003  s :     0.000003
      pz      :    -0.000004  p :    -0.000004
      px      :    -0.000001
      py      :    -0.000000


                      *****************************
                      * MAYER POPULATION ANALYSIS *
                      *****************************

  NA   - Mulliken gross atomic population
  ZA   - Total nuclear charge
  QA   - Mulliken gross atomic charge
  VA   - Mayer's total valence
  BVA  - Mayer's bonded valence
  FA   - Mayer's free valence

  ATOM       NA         ZA         QA         VA         BVA        FA
  0 C      6.0040     6.0000    -0.0040     3.8149     3.8149     0.0000
  1 C      6.3287     6.0000    -0.3287     4.2394     4.2394     0.0000
  2 C      5.5012     6.0000     0.4988     3.7533     3.7533     0.0000
  3 C      6.4367     6.0000    -0.4367     4.3167     4.3167     0.0000
  4 C      5.5813     6.0000     0.4187     3.9271     3.9271     0.0000
  5 C      5.7240     6.0000     0.2760     3.8557     3.8557     0.0000
  6 C      6.2413     6.0000    -0.2413     4.1897     4.1897     0.0000
  7 H      0.8698     1.0000     0.1302     0.9647     0.9647     0.0000
  8 H      0.8842     1.0000     0.1158     0.9689     0.9689     0.0000
  9 C      6.3977     6.0000    -0.3977     4.0082     4.0082     0.0000
 10 H      0.8536     1.0000     0.1464     0.9647     0.9647     0.0000
 11 H      0.8493     1.0000     0.1507     0.9634     0.9634     0.0000
 12 C      6.2655     6.0000    -0.2655     4.0105     4.0105     0.0000
 13 H      0.8539     1.0000     0.1461     0.9655     0.9655     0.0000
 14 H      0.8586     1.0000     0.1414     0.9668     0.9668     0.0000
 15 C      6.2646     6.0000    -0.2646     3.8909     3.8909    -0.0000
 16 H      0.8570     1.0000     0.1430     0.9673     0.9673     0.0000
 17 H      0.8566     1.0000     0.1434     0.9671     0.9671     0.0000
 18 C      6.5100     6.0000    -0.5100     3.8996     3.8996    -0.0000
 19 H      0.8401     1.0000     0.1599     0.9653     0.9653     0.0000
 20 H      0.8398     1.0000     0.1602     0.9650     0.9650    -0.0000
 21 C      6.3825     6.0000    -0.3825     4.0414     4.0413     0.0000
 22 H      0.8434     1.0000     0.1566     0.9617     0.9617     0.0000
 23 H      0.8451     1.0000     0.1549     0.9632     0.9632     0.0000
 24 C      6.2997     6.0000    -0.2997     4.0079     4.0077     0.0001
 25 H      0.8539     1.0000     0.1461     0.9672     0.9672     0.0000
 26 H      0.8432     1.0000     0.1568     0.9620     0.9620     0.0000
 27 C      6.2784     6.0000    -0.2784     3.9343     3.9320     0.0023
 28 H      0.8517     1.0000     0.1483     0.9685     0.9681     0.0004
 29 H      0.8521     1.0000     0.1479     0.9652     0.9622     0.0030
 30 C      6.1338     6.0000    -0.1338     3.8410     3.0495     0.7915
 31 H      0.8866     1.0000     0.1134     0.9810     0.9780     0.0030
 32 C      6.2844     6.0000    -0.2844     3.9512     3.9487     0.0025
 33 H      0.8517     1.0000     0.1483     0.9643     0.9613     0.0030
 34 H      0.8550     1.0000     0.1450     0.9691     0.9688     0.0003
 35 C      6.2754     6.0000    -0.2754     3.8985     3.8983     0.0001
 36 H      0.8529     1.0000     0.1471     0.9670     0.9670     0.0000
 37 H      0.8419     1.0000     0.1581     0.9623     0.9623     0.0000
 38 C      6.5102     6.0000    -0.5102     3.8928     3.8928     0.0000
 39 H      0.8397     1.0000     0.1603     0.9646     0.9646     0.0000
 40 H      0.8412     1.0000     0.1588     0.9655     0.9655     0.0000
 41 C      6.5368     6.0000    -0.5368     3.8962     3.8962     0.0000
 42 H      0.8188     1.0000     0.1812     0.9773     0.9773     0.0000
 43 H      0.8554     1.0000     0.1446     0.9666     0.9666     0.0000
 44 H      0.8528     1.0000     0.1472     0.9665     0.9665     0.0000
 45 H      0.8956     1.0000     0.1044     0.9598     0.9598     0.0000

  Mayer bond orders larger than 0.100000
B(  0-C ,  4-C ) :   0.9109 B(  0-C , 41-C ) :   2.7020 B(  1-C ,  2-C ) :   1.3723 
B(  1-C ,  3-C ) :   0.1178 B(  1-C ,  5-C ) :   0.1022 B(  1-C ,  6-C ) :   1.4834 
B(  1-C , 45-H ) :   0.9820 B(  2-C ,  3-C ) :   1.4464 B(  2-C ,  4-C ) :   0.1030 
B(  2-C ,  9-C ) :   0.8988 B(  3-C ,  4-C ) :   1.4223 B(  3-C ,  7-H ) :   0.9810 
B(  4-C ,  5-C ) :   1.3804 B(  4-C ,  6-C ) :   0.1076 B(  5-C ,  6-C ) :   1.4231 
B(  5-C , 21-C ) :   0.9464 B(  6-C ,  8-H ) :   0.9779 B(  9-C , 10-H ) :   0.9701 
B(  9-C , 11-H ) :   0.9672 B(  9-C , 12-C ) :   1.0186 B( 12-C , 13-H ) :   0.9653 
B( 12-C , 14-H ) :   0.9608 B( 12-C , 15-C ) :   0.9826 B( 15-C , 16-H ) :   0.9732 
B( 15-C , 17-H ) :   0.9724 B( 15-C , 18-C ) :   0.9564 B( 18-C , 19-H ) :   0.9721 
B( 18-C , 20-H ) :   0.9719 B( 18-C , 43-H ) :   0.9687 B( 21-C , 22-H ) :   0.9566 
B( 21-C , 23-H ) :   0.9589 B( 21-C , 24-C ) :   1.0065 B( 24-C , 25-H ) :   0.9661 
B( 24-C , 26-H ) :   0.9583 B( 24-C , 27-C ) :   0.9766 B( 27-C , 28-H ) :   0.9701 
B( 27-C , 29-H ) :   0.9571 B( 27-C , 30-C ) :   0.9726 B( 30-C , 31-H ) :   1.0065 
B( 30-C , 32-C ) :   0.9768 B( 32-C , 33-H ) :   0.9574 B( 32-C , 34-H ) :   0.9751 
B( 32-C , 35-C ) :   0.9807 B( 35-C , 36-H ) :   0.9770 B( 35-C , 37-H ) :   0.9724 
B( 35-C , 38-C ) :   0.9573 B( 38-C , 39-H ) :   0.9712 B( 38-C , 40-H ) :   0.9733 
B( 38-C , 44-H ) :   0.9689 B( 41-C , 42-H ) :   0.9834 

-------
TIMINGS
-------

Total SCF time: 0 days 0 hours 1 min 0 sec 

Total time                  ....      60.655 sec
Sum of individual times     ....      57.024 sec  ( 94.0%)

Fock matrix formation       ....      50.574 sec  ( 83.4%)
  Split-RI-J                ....       4.072 sec  (  8.1% of F)
  Chain of spheres X        ....      32.304 sec  ( 63.9% of F)
  XC integration            ....      10.824 sec  ( 21.4% of F)
    Basis function eval.    ....       0.826 sec  (  7.6% of XC)
    Density eval.           ....       1.249 sec  ( 11.5% of XC)
    XC-Functional eval.     ....       0.222 sec  (  2.1% of XC)
    XC-Potential eval.      ....       0.801 sec  (  7.4% of XC)
Diagonalization             ....       1.461 sec  (  2.4%)
Density matrix formation    ....       0.130 sec  (  0.2%)
Population analysis         ....       0.471 sec  (  0.8%)
Initial guess               ....       0.210 sec  (  0.3%)
Orbital Transformation      ....       0.000 sec  (  0.0%)
Orbital Orthonormalization  ....       0.161 sec  (  0.3%)
DIIS solution               ....       0.957 sec  (  1.6%)
Grid generation             ....       3.220 sec  (  5.3%)

Maximum memory used throughout the entire SCF-calculation: 111.9 MB

-------------------------   --------------------
FINAL SINGLE POINT ENERGY      -739.776431188752
-------------------------   --------------------

                                *** OPTIMIZATION RUN DONE ***

                            ***************************************
                            *     ORCA property calculations      *
                            ***************************************

                                    ---------------------
                                    Active property flags
                                    ---------------------
   (+) Dipole Moment


------------------------------------------------------------------------------
                       ORCA ELECTRIC PROPERTIES CALCULATION
------------------------------------------------------------------------------

Dipole Moment Calculation                       ... on
Quadrupole Moment Calculation                   ... off
Polarizability Calculation                      ... off
GBWName                                         ... opt_EPRII.gbw
Electron density                                ... opt_EPRII.scfp
The origin for moment calculation is the CENTER OF MASS  = ( 3.810367,  2.733879 -0.350484)

-------------
DIPOLE MOMENT
-------------
                                X             Y             Z
Electronic contribution:      4.18585     -11.02299      -0.47611
Nuclear contribution   :     -4.43813      11.04689       0.41935
                        -----------------------------------------
Total Dipole Moment    :     -0.25228       0.02390      -0.05676
                        -----------------------------------------
Magnitude (a.u.)       :      0.25968
Magnitude (Debye)      :      0.66006



--------------------
Rotational spectrum 
--------------------
 
Rotational constants in cm-1:     0.034096     0.002963     0.002749 
Rotational constants in MHz :  1022.175865    88.833612    82.419374 

 Dipole components along the rotational axes: 
x,y,z [a.u.] :    -0.020163    -0.253972    -0.050274 
x,y,z [Debye]:    -0.051251    -0.645546    -0.127786 

 

Timings for individual modules:

Sum of individual times         ...      568.918 sec (=   9.482 min)
GTO integral calculation        ...       17.923 sec (=   0.299 min)   3.2 %
SCF iterations                  ...      442.383 sec (=   7.373 min)  77.8 %
SCF Gradient evaluation         ...      106.708 sec (=   1.778 min)  18.8 %
Geometry relaxation             ...        1.905 sec (=   0.032 min)   0.3 %
                             ****ORCA TERMINATED NORMALLY****
TOTAL RUN TIME: 0 days 0 hours 9 minutes 47 seconds 801 msec
