 Entering Gaussian System, Link 0=g09
 Input=AMF000-opt.com
 Output=AMF000-opt.log
 Initial command:
 /hits/basement/its/doserbd/software/gaussian/g09d1/g09/l1.exe "/hits/basement/mbm/sucerquia/gaussian_scratch/Gau-1893781.inp" -scrdir="/hits/basement/mbm/sucerquia/gaussian_scratch/"
 Entering Link 1 = /hits/basement/its/doserbd/software/gaussian/g09d1/g09/l1.exe PID=   1893782.
  
 Copyright (c) 1988,1990,1992,1993,1995,1998,2003,2009,2013,
            Gaussian, Inc.  All Rights Reserved.
  
 This is part of the Gaussian(R) 09 program.  It is based on
 the Gaussian(R) 03 system (copyright 2003, Gaussian, Inc.),
 the Gaussian(R) 98 system (copyright 1998, Gaussian, Inc.),
 the Gaussian(R) 94 system (copyright 1995, Gaussian, Inc.),
 the Gaussian 92(TM) system (copyright 1992, Gaussian, Inc.),
 the Gaussian 90(TM) system (copyright 1990, Gaussian, Inc.),
 the Gaussian 88(TM) system (copyright 1988, Gaussian, Inc.),
 the Gaussian 86(TM) system (copyright 1986, Carnegie Mellon
 University), and the Gaussian 82(TM) system (copyright 1983,
 Carnegie Mellon University). Gaussian is a federally registered
 trademark of Gaussian, Inc.
  
 This software contains proprietary and confidential information,
 including trade secrets, belonging to Gaussian, Inc.
  
 This software is provided under written license and may be
 used, copied, transmitted, or stored only in accord with that
 written license.
  
 The following legend is applicable only to US Government
 contracts under FAR:
  
                    RESTRICTED RIGHTS LEGEND
  
 Use, reproduction and disclosure by the US Government is
 subject to restrictions as set forth in subparagraphs (a)
 and (c) of the Commercial Computer Software - Restricted
 Rights clause in FAR 52.227-19.
  
 Gaussian, Inc.
 340 Quinnipiac St., Bldg. 40, Wallingford CT 06492
  
  
 ---------------------------------------------------------------
 Warning -- This program may not be used in any manner that
 competes with the business of Gaussian, Inc. or will provide
 assistance to any competitor of Gaussian, Inc.  The licensee
 of this program is prohibited from giving any competitor of
 Gaussian, Inc. access to this program.  By using this program,
 the user acknowledges that Gaussian, Inc. is engaged in the
 business of creating and licensing software in the field of
 computational chemistry and represents and warrants to the
 licensee that it is not a competitor of Gaussian, Inc. and that
 it will not use this program in any manner prohibited above.
 ---------------------------------------------------------------
  

 Cite this work as:
 Gaussian 09, Revision D.01,
 M. J. Frisch, G. W. Trucks, H. B. Schlegel, G. E. Scuseria, 
 M. A. Robb, J. R. Cheeseman, G. Scalmani, V. Barone, B. Mennucci, 
 G. A. Petersson, H. Nakatsuji, M. Caricato, X. Li, H. P. Hratchian, 
 A. F. Izmaylov, J. Bloino, G. Zheng, J. L. Sonnenberg, M. Hada, 
 M. Ehara, K. Toyota, R. Fukuda, J. Hasegawa, M. Ishida, T. Nakajima, 
 Y. Honda, O. Kitao, H. Nakai, T. Vreven, J. A. Montgomery, Jr., 
 J. E. Peralta, F. Ogliaro, M. Bearpark, J. J. Heyd, E. Brothers, 
 K. N. Kudin, V. N. Staroverov, T. Keith, R. Kobayashi, J. Normand, 
 K. Raghavachari, A. Rendell, J. C. Burant, S. S. Iyengar, J. Tomasi, 
 M. Cossi, N. Rega, J. M. Millam, M. Klene, J. E. Knox, J. B. Cross, 
 V. Bakken, C. Adamo, J. Jaramillo, R. Gomperts, R. E. Stratmann, 
 O. Yazyev, A. J. Austin, R. Cammi, C. Pomelli, J. W. Ochterski, 
 R. L. Martin, K. Morokuma, V. G. Zakrzewski, G. A. Voth, 
 P. Salvador, J. J. Dannenberg, S. Dapprich, A. D. Daniels, 
 O. Farkas, J. B. Foresman, J. V. Ortiz, J. Cioslowski, 
 and D. J. Fox, Gaussian, Inc., Wallingford CT, 2013.
 
 ******************************************
 Gaussian 09:  ES64L-G09RevD.01 24-Apr-2013
                 8-May-2024 
 ******************************************
 %chk=AMF000-opt
 %NProcShared=8
 Will use up to    8 processors via shared memory.
 ---------------------------------------
 #P bmk/6-31+g opt(modredun,calcfc) freq
 ---------------------------------------
 1/10=4,14=-1,18=120,19=15,26=3,38=1/1,3;
 2/9=110,12=2,17=6,18=5,40=1/2;
 3/5=1,6=6,7=10,11=2,16=1,25=1,30=1,71=2,74=-34,140=1/1,2,3;
 4//1;
 5/5=2,38=5/2;
 8/6=4,10=90,11=11/1;
 11/6=1,8=1,9=11,15=111,16=1/1,2,10;
 10/6=1,13=1/2;
 6/7=2,8=2,9=2,10=2,28=1/1;
 7/10=1,18=20,25=1/1,2,3,16;
 1/10=4,14=-1,18=20,19=15,26=3/3(2);
 2/9=110/2;
 99//99;
 2/9=110/2;
 3/5=1,6=6,7=10,11=2,16=1,25=1,30=1,71=1,74=-34/1,2,3;
 4/5=5,16=3,69=1/1;
 5/5=2,38=5/2;
 7//1,2,3,16;
 1/14=-1,18=20,19=15,26=3/3(-5);
 2/9=110/2;
 6/7=2,8=2,9=2,10=2,19=2,28=1/1;
 99/9=1/99;
 Leave Link    1 at Wed May  8 10:13:11 2024, MaxMem=           0 cpu:         1.6
 (Enter /hits/basement/its/doserbd/software/gaussian/g09d1/g09/l101.exe)
 ------------------------------
 Gaussian input prepared by ASE
 ------------------------------
 Symbolic Z-matrix:
 Charge =  0 Multiplicity = 1
 C                    -7.07959   0.        0. 
 H                    -6.83864   0.55142  -0.91577 
 H                    -7.73443  -0.8443   -0.25162 
 H                    -7.62724   0.6544    0.68774 
 C                    -5.84539  -0.53097   0.71211 
 O                    -5.91358  -1.04152   1.84921 
 N                    -4.6683   -0.43036   0.03998 
 H                    -4.59677   0.01483  -0.86721 
 C                    -3.41556  -0.90673   0.60612 
 H                    -3.36162  -0.58113   1.65554 
 C                    -3.31207  -2.45432   0.55843 
 H                    -2.37757  -2.80417   1.01535 
 H                    -4.15737  -2.87587   1.11416 
 H                    -3.34996  -2.79892  -0.48283 
 C                    -2.28532  -0.25694  -0.20396 
 O                    -2.51114   0.29144  -1.30556 
 N                    -1.04878  -0.33601   0.33562 
 H                    -0.87384  -0.85207   1.19239 
 C                     0.14964   0.10895  -0.36093 
 H                    -0.03549   0.03482  -1.44166 
 C                     0.54535   1.57403   0. 
 H                     1.48025   1.82924  -0.52037 
 H                     0.73967   1.62634   1.08158 
 C                    -0.54672   2.5833   -0.38304 
 H                    -1.46863   2.39759   0.17733 
 H                    -0.76695   2.54475  -1.45543 
 S                     0.06949   4.32289   0.04477 
 C                    -1.45067   5.29775  -0.49197 
 H                    -1.22036   6.3531   -0.32086 
 H                    -1.6446    5.1278   -1.55545 
 H                    -2.31496   5.00301   0.11101 
 C                     1.28597  -0.8365    0.06565 
 O                     1.19201  -1.50682   1.11339 
 N                     2.38334  -0.83791  -0.72627 
 H                     2.45099  -0.22299  -1.52915 
 C                     3.59471  -1.57272  -0.39731 
 H                     3.52024  -1.87357   0.6553 
 C                     3.77505  -2.84158  -1.2952 
 H                     4.71925  -3.32813  -1.00852 
 H                     3.88164  -2.50142  -2.33514 
 C                     2.62251  -3.82513  -1.17996 
 C                     1.59179  -3.83302  -2.14002 
 H                     1.63196  -3.13524  -2.97564 
 C                     0.52179  -4.73804  -2.03556 
 H                    -0.26498  -4.7341   -2.7875 
 C                     0.47156  -5.64772  -0.9665 
 H                    -0.35515  -6.35017  -0.88409 
 C                     1.49576  -5.64751  -0.00307 
 H                     1.46315  -6.34856   0.82849 
 C                     2.56312  -4.74278  -0.11165 
 H                     3.35308  -4.74778   0.63941 
 C                     4.78156  -0.62741  -0.64209 
 O                     4.73899   0.19366  -1.57939 
 N                     5.85717  -0.78372   0.16644 
 H                     5.79713  -1.42103   0.947 
 C                     7.07959   0.        0. 
 H                     7.95557  -0.63516   0.17074 
 H                     7.10075   0.3853   -1.02359 
 H                     7.10483   0.85057   0.69408 
 
 The following ModRedundant input section has been read:
 
 NAtoms=     59 NQM=       59 NQMF=       0 NMMI=      0 NMMIF=      0
                NMic=       0 NMicF=      0.
                    Isotopes and Nuclear Properties:
 (Nuclear quadrupole moments (NQMom) in fm**2, nuclear magnetic moments (NMagM)
  in nuclear magnetons)

  Atom         1           2           3           4           5           6           7           8           9          10
 IAtWgt=          12           1           1           1          12          16          14           1          12           1
 AtmWgt=  12.0000000   1.0078250   1.0078250   1.0078250  12.0000000  15.9949146  14.0030740   1.0078250  12.0000000   1.0078250
 NucSpn=           0           1           1           1           0           0           2           1           0           1
 AtZEff=   0.0000000   0.0000000   0.0000000   0.0000000   0.0000000   0.0000000   0.0000000   0.0000000   0.0000000   0.0000000
 NQMom=    0.0000000   0.0000000   0.0000000   0.0000000   0.0000000   0.0000000   2.0440000   0.0000000   0.0000000   0.0000000
 NMagM=    0.0000000   2.7928460   2.7928460   2.7928460   0.0000000   0.0000000   0.4037610   2.7928460   0.0000000   2.7928460
 AtZNuc=   6.0000000   1.0000000   1.0000000   1.0000000   6.0000000   8.0000000   7.0000000   1.0000000   6.0000000   1.0000000

  Atom        11          12          13          14          15          16          17          18          19          20
 IAtWgt=          12           1           1           1          12          16          14           1          12           1
 AtmWgt=  12.0000000   1.0078250   1.0078250   1.0078250  12.0000000  15.9949146  14.0030740   1.0078250  12.0000000   1.0078250
 NucSpn=           0           1           1           1           0           0           2           1           0           1
 AtZEff=   0.0000000   0.0000000   0.0000000   0.0000000   0.0000000   0.0000000   0.0000000   0.0000000   0.0000000   0.0000000
 NQMom=    0.0000000   0.0000000   0.0000000   0.0000000   0.0000000   0.0000000   2.0440000   0.0000000   0.0000000   0.0000000
 NMagM=    0.0000000   2.7928460   2.7928460   2.7928460   0.0000000   0.0000000   0.4037610   2.7928460   0.0000000   2.7928460
 AtZNuc=   6.0000000   1.0000000   1.0000000   1.0000000   6.0000000   8.0000000   7.0000000   1.0000000   6.0000000   1.0000000

  Atom        21          22          23          24          25          26          27          28          29          30
 IAtWgt=          12           1           1          12           1           1          32          12           1           1
 AtmWgt=  12.0000000   1.0078250   1.0078250  12.0000000   1.0078250   1.0078250  31.9720718  12.0000000   1.0078250   1.0078250
 NucSpn=           0           1           1           0           1           1           0           0           1           1
 AtZEff=   0.0000000   0.0000000   0.0000000   0.0000000   0.0000000   0.0000000   0.0000000   0.0000000   0.0000000   0.0000000
 NQMom=    0.0000000   0.0000000   0.0000000   0.0000000   0.0000000   0.0000000   0.0000000   0.0000000   0.0000000   0.0000000
 NMagM=    0.0000000   2.7928460   2.7928460   0.0000000   2.7928460   2.7928460   0.0000000   0.0000000   2.7928460   2.7928460
 AtZNuc=   6.0000000   1.0000000   1.0000000   6.0000000   1.0000000   1.0000000  16.0000000   6.0000000   1.0000000   1.0000000

  Atom        31          32          33          34          35          36          37          38          39          40
 IAtWgt=           1          12          16          14           1          12           1          12           1           1
 AtmWgt=   1.0078250  12.0000000  15.9949146  14.0030740   1.0078250  12.0000000   1.0078250  12.0000000   1.0078250   1.0078250
 NucSpn=           1           0           0           2           1           0           1           0           1           1
 AtZEff=   0.0000000   0.0000000   0.0000000   0.0000000   0.0000000   0.0000000   0.0000000   0.0000000   0.0000000   0.0000000
 NQMom=    0.0000000   0.0000000   0.0000000   2.0440000   0.0000000   0.0000000   0.0000000   0.0000000   0.0000000   0.0000000
 NMagM=    2.7928460   0.0000000   0.0000000   0.4037610   2.7928460   0.0000000   2.7928460   0.0000000   2.7928460   2.7928460
 AtZNuc=   1.0000000   6.0000000   8.0000000   7.0000000   1.0000000   6.0000000   1.0000000   6.0000000   1.0000000   1.0000000

  Atom        41          42          43          44          45          46          47          48          49          50
 IAtWgt=          12          12           1          12           1          12           1          12           1          12
 AtmWgt=  12.0000000  12.0000000   1.0078250  12.0000000   1.0078250  12.0000000   1.0078250  12.0000000   1.0078250  12.0000000
 NucSpn=           0           0           1           0           1           0           1           0           1           0
 AtZEff=   0.0000000   0.0000000   0.0000000   0.0000000   0.0000000   0.0000000   0.0000000   0.0000000   0.0000000   0.0000000
 NQMom=    0.0000000   0.0000000   0.0000000   0.0000000   0.0000000   0.0000000   0.0000000   0.0000000   0.0000000   0.0000000
 NMagM=    0.0000000   0.0000000   2.7928460   0.0000000   2.7928460   0.0000000   2.7928460   0.0000000   2.7928460   0.0000000
 AtZNuc=   6.0000000   6.0000000   1.0000000   6.0000000   1.0000000   6.0000000   1.0000000   6.0000000   1.0000000   6.0000000

  Atom        51          52          53          54          55          56          57          58          59
 IAtWgt=           1          12          16          14           1          12           1           1           1
 AtmWgt=   1.0078250  12.0000000  15.9949146  14.0030740   1.0078250  12.0000000   1.0078250   1.0078250   1.0078250
 NucSpn=           1           0           0           2           1           0           1           1           1
 AtZEff=   0.0000000   0.0000000   0.0000000   0.0000000   0.0000000   0.0000000   0.0000000   0.0000000   0.0000000
 NQMom=    0.0000000   0.0000000   0.0000000   2.0440000   0.0000000   0.0000000   0.0000000   0.0000000   0.0000000
 NMagM=    2.7928460   0.0000000   0.0000000   0.4037610   2.7928460   0.0000000   2.7928460   2.7928460   2.7928460
 AtZNuc=   1.0000000   6.0000000   8.0000000   7.0000000   1.0000000   6.0000000   1.0000000   1.0000000   1.0000000
 Leave Link  101 at Wed May  8 10:13:12 2024, MaxMem=    33554432 cpu:         0.9
 (Enter /hits/basement/its/doserbd/software/gaussian/g09d1/g09/l103.exe)

 GradGradGradGradGradGradGradGradGradGradGradGradGradGradGradGradGradGrad
 Berny optimization.
 Initialization pass.
                           ----------------------------
                           !    Initial Parameters    !
                           ! (Angstroms and Degrees)  !
 --------------------------                            --------------------------
 ! Name  Definition              Value          Derivative Info.                !
 --------------------------------------------------------------------------------
 ! R1    R(1,2)                  1.0958         calculate D2E/DX2 analytically  !
 ! R2    R(1,3)                  1.0977         calculate D2E/DX2 analytically  !
 ! R3    R(1,4)                  1.096          calculate D2E/DX2 analytically  !
 ! R4    R(1,5)                  1.5206         calculate D2E/DX2 analytically  !
 ! R5    R(5,6)                  1.2483         calculate D2E/DX2 analytically  !
 ! R6    R(5,7)                  1.3592         calculate D2E/DX2 analytically  !
 ! R7    R(7,8)                  1.0131         calculate D2E/DX2 analytically  !
 ! R8    R(7,9)                  1.4549         calculate D2E/DX2 analytically  !
 ! R9    R(9,10)                 1.1001         calculate D2E/DX2 analytically  !
 ! R10   R(9,11)                 1.5518         calculate D2E/DX2 analytically  !
 ! R11   R(9,15)                 1.5349         calculate D2E/DX2 analytically  !
 ! R12   R(11,12)                1.0975         calculate D2E/DX2 analytically  !
 ! R13   R(11,13)                1.0959         calculate D2E/DX2 analytically  !
 ! R14   R(11,14)                1.0975         calculate D2E/DX2 analytically  !
 ! R15   R(15,16)                1.2511         calculate D2E/DX2 analytically  !
 ! R16   R(15,17)                1.3515         calculate D2E/DX2 analytically  !
 ! R17   R(17,18)                1.0154         calculate D2E/DX2 analytically  !
 ! R18   R(17,19)                1.4558         calculate D2E/DX2 analytically  !
 ! R19   R(19,20)                1.099          calculate D2E/DX2 analytically  !
 ! R20   R(19,21)                1.5599         calculate D2E/DX2 analytically  !
 ! R21   R(19,32)                1.5385         calculate D2E/DX2 analytically  !
 ! R22   R(21,22)                1.1            calculate D2E/DX2 analytically  !
 ! R23   R(21,23)                1.1001         calculate D2E/DX2 analytically  !
 ! R24   R(21,24)                1.5356         calculate D2E/DX2 analytically  !
 ! R25   R(24,25)                1.0947         calculate D2E/DX2 analytically  !
 ! R26   R(24,26)                1.0954         calculate D2E/DX2 analytically  !
 ! R27   R(24,27)                1.8944         calculate D2E/DX2 analytically  !
 ! R28   R(27,28)                1.884          calculate D2E/DX2 analytically  !
 ! R29   R(28,29)                1.0936         calculate D2E/DX2 analytically  !
 ! R30   R(28,30)                1.0943         calculate D2E/DX2 analytically  !
 ! R31   R(28,31)                1.0943         calculate D2E/DX2 analytically  !
 ! R32   R(32,33)                1.2474         calculate D2E/DX2 analytically  !
 ! R33   R(32,34)                1.3533         calculate D2E/DX2 analytically  !
 ! R34   R(34,35)                1.0136         calculate D2E/DX2 analytically  !
 ! R35   R(34,36)                1.4545         calculate D2E/DX2 analytically  !
 ! R36   R(36,37)                1.0973         calculate D2E/DX2 analytically  !
 ! R37   R(36,38)                1.5648         calculate D2E/DX2 analytically  !
 ! R38   R(36,52)                1.5369         calculate D2E/DX2 analytically  !
 ! R39   R(38,39)                1.1002         calculate D2E/DX2 analytically  !
 ! R40   R(38,40)                1.0993         calculate D2E/DX2 analytically  !
 ! R41   R(38,41)                1.5195         calculate D2E/DX2 analytically  !
 ! R42   R(41,42)                1.4086         calculate D2E/DX2 analytically  !
 ! R43   R(41,50)                1.4096         calculate D2E/DX2 analytically  !
 ! R44   R(42,43)                1.0894         calculate D2E/DX2 analytically  !
 ! R45   R(42,44)                1.4053         calculate D2E/DX2 analytically  !
 ! R46   R(44,45)                1.0883         calculate D2E/DX2 analytically  !
 ! R47   R(44,46)                1.4046         calculate D2E/DX2 analytically  !
 ! R48   R(46,47)                1.088          calculate D2E/DX2 analytically  !
 ! R49   R(46,48)                1.4061         calculate D2E/DX2 analytically  !
 ! R50   R(48,49)                1.0881         calculate D2E/DX2 analytically  !
 ! R51   R(48,50)                1.4034         calculate D2E/DX2 analytically  !
 ! R52   R(50,51)                1.09           calculate D2E/DX2 analytically  !
 ! R53   R(52,53)                1.2468         calculate D2E/DX2 analytically  !
 ! R54   R(52,54)                1.3547         calculate D2E/DX2 analytically  !
 ! R55   R(54,55)                1.0095         calculate D2E/DX2 analytically  !
 ! R56   R(54,56)                1.4616         calculate D2E/DX2 analytically  !
 ! R57   R(56,57)                1.0954         calculate D2E/DX2 analytically  !
 ! R58   R(56,58)                1.0939         calculate D2E/DX2 analytically  !
 ! R59   R(56,59)                1.0981         calculate D2E/DX2 analytically  !
 ! A1    A(2,1,3)              109.066          calculate D2E/DX2 analytically  !
 ! A2    A(2,1,4)              109.5016         calculate D2E/DX2 analytically  !
 ! A3    A(2,1,5)              112.8679         calculate D2E/DX2 analytically  !
 ! A4    A(3,1,4)              107.759          calculate D2E/DX2 analytically  !
 ! A5    A(3,1,5)              108.8418         calculate D2E/DX2 analytically  !
 ! A6    A(4,1,5)              108.6749         calculate D2E/DX2 analytically  !
 ! A7    A(1,5,6)              121.6717         calculate D2E/DX2 analytically  !
 ! A8    A(1,5,7)              116.4536         calculate D2E/DX2 analytically  !
 ! A9    A(6,5,7)              121.8723         calculate D2E/DX2 analytically  !
 ! A10   A(5,7,8)              122.4457         calculate D2E/DX2 analytically  !
 ! A11   A(5,7,9)              121.9389         calculate D2E/DX2 analytically  !
 ! A12   A(8,7,9)              115.5653         calculate D2E/DX2 analytically  !
 ! A13   A(7,9,10)             108.4514         calculate D2E/DX2 analytically  !
 ! A14   A(7,9,11)             111.8393         calculate D2E/DX2 analytically  !
 ! A15   A(7,9,15)             106.8613         calculate D2E/DX2 analytically  !
 ! A16   A(10,9,11)            108.7367         calculate D2E/DX2 analytically  !
 ! A17   A(10,9,15)            110.0023         calculate D2E/DX2 analytically  !
 ! A18   A(11,9,15)            110.9086         calculate D2E/DX2 analytically  !
 ! A19   A(9,11,12)            111.2176         calculate D2E/DX2 analytically  !
 ! A20   A(9,11,13)            108.4567         calculate D2E/DX2 analytically  !
 ! A21   A(9,11,14)            109.8774         calculate D2E/DX2 analytically  !
 ! A22   A(12,11,13)           108.8466         calculate D2E/DX2 analytically  !
 ! A23   A(12,11,14)           108.9237         calculate D2E/DX2 analytically  !
 ! A24   A(13,11,14)           109.4942         calculate D2E/DX2 analytically  !
 ! A25   A(9,15,16)            121.1552         calculate D2E/DX2 analytically  !
 ! A26   A(9,15,17)            115.9932         calculate D2E/DX2 analytically  !
 ! A27   A(16,15,17)           122.8435         calculate D2E/DX2 analytically  !
 ! A28   A(15,17,18)           121.6188         calculate D2E/DX2 analytically  !
 ! A29   A(15,17,19)           122.9762         calculate D2E/DX2 analytically  !
 ! A30   A(18,17,19)           114.6608         calculate D2E/DX2 analytically  !
 ! A31   A(17,19,20)           108.1334         calculate D2E/DX2 analytically  !
 ! A32   A(17,19,21)           112.6548         calculate D2E/DX2 analytically  !
 ! A33   A(17,19,32)           106.7092         calculate D2E/DX2 analytically  !
 ! A34   A(20,19,21)           109.489          calculate D2E/DX2 analytically  !
 ! A35   A(20,19,32)           110.8322         calculate D2E/DX2 analytically  !
 ! A36   A(21,19,32)           109.0043         calculate D2E/DX2 analytically  !
 ! A37   A(19,21,22)           108.9083         calculate D2E/DX2 analytically  !
 ! A38   A(19,21,23)           108.478          calculate D2E/DX2 analytically  !
 ! A39   A(19,21,24)           112.2827         calculate D2E/DX2 analytically  !
 ! A40   A(22,21,23)           107.694          calculate D2E/DX2 analytically  !
 ! A41   A(22,21,24)           109.5091         calculate D2E/DX2 analytically  !
 ! A42   A(23,21,24)           109.8529         calculate D2E/DX2 analytically  !
 ! A43   A(21,24,25)           111.0836         calculate D2E/DX2 analytically  !
 ! A44   A(21,24,26)           111.3486         calculate D2E/DX2 analytically  !
 ! A45   A(21,24,27)           108.4135         calculate D2E/DX2 analytically  !
 ! A46   A(25,24,26)           109.0162         calculate D2E/DX2 analytically  !
 ! A47   A(25,24,27)           108.3068         calculate D2E/DX2 analytically  !
 ! A48   A(26,24,27)           108.5893         calculate D2E/DX2 analytically  !
 ! A49   A(24,27,28)            98.5315         calculate D2E/DX2 analytically  !
 ! A50   A(27,28,29)           106.5488         calculate D2E/DX2 analytically  !
 ! A51   A(27,28,30)           109.8471         calculate D2E/DX2 analytically  !
 ! A52   A(27,28,31)           109.9342         calculate D2E/DX2 analytically  !
 ! A53   A(29,28,30)           109.831          calculate D2E/DX2 analytically  !
 ! A54   A(29,28,31)           109.8783         calculate D2E/DX2 analytically  !
 ! A55   A(30,28,31)           110.7139         calculate D2E/DX2 analytically  !
 ! A56   A(19,32,33)           120.4969         calculate D2E/DX2 analytically  !
 ! A57   A(19,32,34)           115.9316         calculate D2E/DX2 analytically  !
 ! A58   A(33,32,34)           123.5083         calculate D2E/DX2 analytically  !
 ! A59   A(32,34,35)           121.1334         calculate D2E/DX2 analytically  !
 ! A60   A(32,34,36)           122.9237         calculate D2E/DX2 analytically  !
 ! A61   A(35,34,36)           115.472          calculate D2E/DX2 analytically  !
 ! A62   A(34,36,37)           107.3945         calculate D2E/DX2 analytically  !
 ! A63   A(34,36,38)           112.0768         calculate D2E/DX2 analytically  !
 ! A64   A(34,36,52)           107.2408         calculate D2E/DX2 analytically  !
 ! A65   A(37,36,38)           109.6294         calculate D2E/DX2 analytically  !
 ! A66   A(37,36,52)           111.9516         calculate D2E/DX2 analytically  !
 ! A67   A(38,36,52)           108.5629         calculate D2E/DX2 analytically  !
 ! A68   A(36,38,39)           107.9381         calculate D2E/DX2 analytically  !
 ! A69   A(36,38,40)           107.6417         calculate D2E/DX2 analytically  !
 ! A70   A(36,38,41)           113.1979         calculate D2E/DX2 analytically  !
 ! A71   A(39,38,40)           107.4646         calculate D2E/DX2 analytically  !
 ! A72   A(39,38,41)           110.1775         calculate D2E/DX2 analytically  !
 ! A73   A(40,38,41)           110.2161         calculate D2E/DX2 analytically  !
 ! A74   A(38,41,42)           120.4602         calculate D2E/DX2 analytically  !
 ! A75   A(38,41,50)           120.7179         calculate D2E/DX2 analytically  !
 ! A76   A(42,41,50)           118.8218         calculate D2E/DX2 analytically  !
 ! A77   A(41,42,43)           119.4873         calculate D2E/DX2 analytically  !
 ! A78   A(41,42,44)           120.6693         calculate D2E/DX2 analytically  !
 ! A79   A(43,42,44)           119.8411         calculate D2E/DX2 analytically  !
 ! A80   A(42,44,45)           119.7845         calculate D2E/DX2 analytically  !
 ! A81   A(42,44,46)           120.0587         calculate D2E/DX2 analytically  !
 ! A82   A(45,44,46)           120.1564         calculate D2E/DX2 analytically  !
 ! A83   A(44,46,47)           120.197          calculate D2E/DX2 analytically  !
 ! A84   A(44,46,48)           119.6925         calculate D2E/DX2 analytically  !
 ! A85   A(47,46,48)           120.1105         calculate D2E/DX2 analytically  !
 ! A86   A(46,48,49)           120.1115         calculate D2E/DX2 analytically  !
 ! A87   A(46,48,50)           120.0698         calculate D2E/DX2 analytically  !
 ! A88   A(49,48,50)           119.8188         calculate D2E/DX2 analytically  !
 ! A89   A(41,50,48)           120.6879         calculate D2E/DX2 analytically  !
 ! A90   A(41,50,51)           119.6478         calculate D2E/DX2 analytically  !
 ! A91   A(48,50,51)           119.6641         calculate D2E/DX2 analytically  !
 ! A92   A(36,52,53)           119.8948         calculate D2E/DX2 analytically  !
 ! A93   A(36,52,54)           116.5593         calculate D2E/DX2 analytically  !
 ! A94   A(53,52,54)           123.4903         calculate D2E/DX2 analytically  !
 ! A95   A(52,54,55)           119.1518         calculate D2E/DX2 analytically  !
 ! A96   A(52,54,56)           122.2927         calculate D2E/DX2 analytically  !
 ! A97   A(55,54,56)           118.4457         calculate D2E/DX2 analytically  !
 ! A98   A(54,56,57)           109.8867         calculate D2E/DX2 analytically  !
 ! A99   A(54,56,58)           108.1554         calculate D2E/DX2 analytically  !
 ! A100  A(54,56,59)           111.2587         calculate D2E/DX2 analytically  !
 ! A101  A(57,56,58)           109.549          calculate D2E/DX2 analytically  !
 ! A102  A(57,56,59)           109.4044         calculate D2E/DX2 analytically  !
 ! A103  A(58,56,59)           108.5521         calculate D2E/DX2 analytically  !
 ! D1    D(2,1,5,6)            171.2433         calculate D2E/DX2 analytically  !
 ! D2    D(2,1,5,7)             -9.3112         calculate D2E/DX2 analytically  !
 ! D3    D(3,1,5,6)            -67.524          calculate D2E/DX2 analytically  !
 ! D4    D(3,1,5,7)            111.9215         calculate D2E/DX2 analytically  !
 ! D5    D(4,1,5,6)             49.5752         calculate D2E/DX2 analytically  !
 ! D6    D(4,1,5,7)           -130.9793         calculate D2E/DX2 analytically  !
 ! D7    D(1,5,7,8)              3.0152         calculate D2E/DX2 analytically  !
 ! D8    D(1,5,7,9)           -179.6733         calculate D2E/DX2 analytically  !
 ! D9    D(6,5,7,8)           -177.5405         calculate D2E/DX2 analytically  !
 ! D10   D(6,5,7,9)             -0.229          calculate D2E/DX2 analytically  !
 ! D11   D(5,7,9,10)           -44.436          calculate D2E/DX2 analytically  !
 ! D12   D(5,7,9,11)            75.4667         calculate D2E/DX2 analytically  !
 ! D13   D(5,7,9,15)          -162.9856         calculate D2E/DX2 analytically  !
 ! D14   D(8,7,9,10)           133.0491         calculate D2E/DX2 analytically  !
 ! D15   D(8,7,9,11)          -107.0483         calculate D2E/DX2 analytically  !
 ! D16   D(8,7,9,15)            14.4995         calculate D2E/DX2 analytically  !
 ! D17   D(7,9,11,12)         -178.2703         calculate D2E/DX2 analytically  !
 ! D18   D(7,9,11,13)          -58.6079         calculate D2E/DX2 analytically  !
 ! D19   D(7,9,11,14)           61.0463         calculate D2E/DX2 analytically  !
 ! D20   D(10,9,11,12)         -58.5352         calculate D2E/DX2 analytically  !
 ! D21   D(10,9,11,13)          61.1272         calculate D2E/DX2 analytically  !
 ! D22   D(10,9,11,14)        -179.2186         calculate D2E/DX2 analytically  !
 ! D23   D(15,9,11,12)          62.5456         calculate D2E/DX2 analytically  !
 ! D24   D(15,9,11,13)        -177.792          calculate D2E/DX2 analytically  !
 ! D25   D(15,9,11,14)         -58.1378         calculate D2E/DX2 analytically  !
 ! D26   D(7,9,15,16)          -14.8527         calculate D2E/DX2 analytically  !
 ! D27   D(7,9,15,17)          166.1556         calculate D2E/DX2 analytically  !
 ! D28   D(10,9,15,16)        -132.3868         calculate D2E/DX2 analytically  !
 ! D29   D(10,9,15,17)          48.6216         calculate D2E/DX2 analytically  !
 ! D30   D(11,9,15,16)         107.2817         calculate D2E/DX2 analytically  !
 ! D31   D(11,9,15,17)         -71.71           calculate D2E/DX2 analytically  !
 ! D32   D(9,15,17,18)           4.1549         calculate D2E/DX2 analytically  !
 ! D33   D(9,15,17,19)         173.7403         calculate D2E/DX2 analytically  !
 ! D34   D(16,15,17,18)       -174.8181         calculate D2E/DX2 analytically  !
 ! D35   D(16,15,17,19)         -5.2326         calculate D2E/DX2 analytically  !
 ! D36   D(15,17,19,20)        -26.7016         calculate D2E/DX2 analytically  !
 ! D37   D(15,17,19,21)         94.4366         calculate D2E/DX2 analytically  !
 ! D38   D(15,17,19,32)       -145.9782         calculate D2E/DX2 analytically  !
 ! D39   D(18,17,19,20)        143.5464         calculate D2E/DX2 analytically  !
 ! D40   D(18,17,19,21)        -95.3154         calculate D2E/DX2 analytically  !
 ! D41   D(18,17,19,32)         24.2698         calculate D2E/DX2 analytically  !
 ! D42   D(17,19,21,22)        177.3337         calculate D2E/DX2 analytically  !
 ! D43   D(17,19,21,23)         60.3847         calculate D2E/DX2 analytically  !
 ! D44   D(17,19,21,24)        -61.2094         calculate D2E/DX2 analytically  !
 ! D45   D(20,19,21,22)        -62.3043         calculate D2E/DX2 analytically  !
 ! D46   D(20,19,21,23)       -179.2533         calculate D2E/DX2 analytically  !
 ! D47   D(20,19,21,24)         59.1526         calculate D2E/DX2 analytically  !
 ! D48   D(32,19,21,22)         59.0872         calculate D2E/DX2 analytically  !
 ! D49   D(32,19,21,23)        -57.8618         calculate D2E/DX2 analytically  !
 ! D50   D(32,19,21,24)       -179.4559         calculate D2E/DX2 analytically  !
 ! D51   D(17,19,32,33)        -20.2911         calculate D2E/DX2 analytically  !
 ! D52   D(17,19,32,34)        162.4984         calculate D2E/DX2 analytically  !
 ! D53   D(20,19,32,33)       -137.8012         calculate D2E/DX2 analytically  !
 ! D54   D(20,19,32,34)         44.9883         calculate D2E/DX2 analytically  !
 ! D55   D(21,19,32,33)        101.6287         calculate D2E/DX2 analytically  !
 ! D56   D(21,19,32,34)        -75.5818         calculate D2E/DX2 analytically  !
 ! D57   D(19,21,24,25)         63.0779         calculate D2E/DX2 analytically  !
 ! D58   D(19,21,24,26)        -58.633          calculate D2E/DX2 analytically  !
 ! D59   D(19,21,24,27)       -178.0302         calculate D2E/DX2 analytically  !
 ! D60   D(22,21,24,25)       -175.8097         calculate D2E/DX2 analytically  !
 ! D61   D(22,21,24,26)         62.4794         calculate D2E/DX2 analytically  !
 ! D62   D(22,21,24,27)        -56.9178         calculate D2E/DX2 analytically  !
 ! D63   D(23,21,24,25)        -57.7271         calculate D2E/DX2 analytically  !
 ! D64   D(23,21,24,26)       -179.438          calculate D2E/DX2 analytically  !
 ! D65   D(23,21,24,27)         61.1648         calculate D2E/DX2 analytically  !
 ! D66   D(21,24,27,28)       -178.992          calculate D2E/DX2 analytically  !
 ! D67   D(25,24,27,28)        -58.3615         calculate D2E/DX2 analytically  !
 ! D68   D(26,24,27,28)         59.8918         calculate D2E/DX2 analytically  !
 ! D69   D(24,27,28,29)       -178.5586         calculate D2E/DX2 analytically  !
 ! D70   D(24,27,28,30)        -59.6438         calculate D2E/DX2 analytically  !
 ! D71   D(24,27,28,31)         62.4232         calculate D2E/DX2 analytically  !
 ! D72   D(19,32,34,35)          2.1244         calculate D2E/DX2 analytically  !
 ! D73   D(19,32,34,36)        173.8916         calculate D2E/DX2 analytically  !
 ! D74   D(33,32,34,35)       -174.9929         calculate D2E/DX2 analytically  !
 ! D75   D(33,32,34,36)         -3.2256         calculate D2E/DX2 analytically  !
 ! D76   D(32,34,36,37)        -13.586          calculate D2E/DX2 analytically  !
 ! D77   D(32,34,36,38)        106.8748         calculate D2E/DX2 analytically  !
 ! D78   D(32,34,36,52)       -134.0759         calculate D2E/DX2 analytically  !
 ! D79   D(35,34,36,37)        158.6111         calculate D2E/DX2 analytically  !
 ! D80   D(35,34,36,38)        -80.9282         calculate D2E/DX2 analytically  !
 ! D81   D(35,34,36,52)         38.1211         calculate D2E/DX2 analytically  !
 ! D82   D(34,36,38,39)        178.5371         calculate D2E/DX2 analytically  !
 ! D83   D(34,36,38,40)         62.8174         calculate D2E/DX2 analytically  !
 ! D84   D(34,36,38,41)        -59.2423         calculate D2E/DX2 analytically  !
 ! D85   D(37,36,38,39)        -62.3085         calculate D2E/DX2 analytically  !
 ! D86   D(37,36,38,40)       -178.0282         calculate D2E/DX2 analytically  !
 ! D87   D(37,36,38,41)         59.9121         calculate D2E/DX2 analytically  !
 ! D88   D(52,36,38,39)         60.2692         calculate D2E/DX2 analytically  !
 ! D89   D(52,36,38,40)        -55.4505         calculate D2E/DX2 analytically  !
 ! D90   D(52,36,38,41)       -177.5102         calculate D2E/DX2 analytically  !
 ! D91   D(34,36,52,53)        -34.9233         calculate D2E/DX2 analytically  !
 ! D92   D(34,36,52,54)        147.6943         calculate D2E/DX2 analytically  !
 ! D93   D(37,36,52,53)       -152.4756         calculate D2E/DX2 analytically  !
 ! D94   D(37,36,52,54)         30.142          calculate D2E/DX2 analytically  !
 ! D95   D(38,36,52,53)         86.3649         calculate D2E/DX2 analytically  !
 ! D96   D(38,36,52,54)        -91.0175         calculate D2E/DX2 analytically  !
 ! D97   D(36,38,41,42)         98.0978         calculate D2E/DX2 analytically  !
 ! D98   D(36,38,41,50)        -81.7738         calculate D2E/DX2 analytically  !
 ! D99   D(39,38,41,42)       -140.9396         calculate D2E/DX2 analytically  !
 ! D100  D(39,38,41,50)         39.1888         calculate D2E/DX2 analytically  !
 ! D101  D(40,38,41,42)        -22.5116         calculate D2E/DX2 analytically  !
 ! D102  D(40,38,41,50)        157.6168         calculate D2E/DX2 analytically  !
 ! D103  D(38,41,42,43)          0.7364         calculate D2E/DX2 analytically  !
 ! D104  D(38,41,42,44)       -179.8105         calculate D2E/DX2 analytically  !
 ! D105  D(50,41,42,43)       -179.3896         calculate D2E/DX2 analytically  !
 ! D106  D(50,41,42,44)          0.0635         calculate D2E/DX2 analytically  !
 ! D107  D(38,41,50,48)        179.7585         calculate D2E/DX2 analytically  !
 ! D108  D(38,41,50,51)         -0.0699         calculate D2E/DX2 analytically  !
 ! D109  D(42,41,50,48)         -0.1152         calculate D2E/DX2 analytically  !
 ! D110  D(42,41,50,51)       -179.9435         calculate D2E/DX2 analytically  !
 ! D111  D(41,42,44,45)       -179.7743         calculate D2E/DX2 analytically  !
 ! D112  D(41,42,44,46)         -0.0149         calculate D2E/DX2 analytically  !
 ! D113  D(43,42,44,45)         -0.3231         calculate D2E/DX2 analytically  !
 ! D114  D(43,42,44,46)        179.4363         calculate D2E/DX2 analytically  !
 ! D115  D(42,44,46,47)       -179.9257         calculate D2E/DX2 analytically  !
 ! D116  D(42,44,46,48)          0.0164         calculate D2E/DX2 analytically  !
 ! D117  D(45,44,46,47)         -0.1672         calculate D2E/DX2 analytically  !
 ! D118  D(45,44,46,48)        179.7749         calculate D2E/DX2 analytically  !
 ! D119  D(44,46,48,49)        179.9362         calculate D2E/DX2 analytically  !
 ! D120  D(44,46,48,50)         -0.0676         calculate D2E/DX2 analytically  !
 ! D121  D(47,46,48,49)         -0.1217         calculate D2E/DX2 analytically  !
 ! D122  D(47,46,48,50)        179.8745         calculate D2E/DX2 analytically  !
 ! D123  D(46,48,50,41)          0.1182         calculate D2E/DX2 analytically  !
 ! D124  D(46,48,50,51)        179.9466         calculate D2E/DX2 analytically  !
 ! D125  D(49,48,50,41)       -179.8855         calculate D2E/DX2 analytically  !
 ! D126  D(49,48,50,51)         -0.0572         calculate D2E/DX2 analytically  !
 ! D127  D(36,52,54,55)         -7.0916         calculate D2E/DX2 analytically  !
 ! D128  D(36,52,54,56)        176.7797         calculate D2E/DX2 analytically  !
 ! D129  D(53,52,54,55)        175.6295         calculate D2E/DX2 analytically  !
 ! D130  D(53,52,54,56)         -0.4992         calculate D2E/DX2 analytically  !
 ! D131  D(52,54,56,57)       -140.4753         calculate D2E/DX2 analytically  !
 ! D132  D(52,54,56,58)        -20.931          calculate D2E/DX2 analytically  !
 ! D133  D(52,54,56,59)         98.2037         calculate D2E/DX2 analytically  !
 ! D134  D(55,54,56,57)         43.3698         calculate D2E/DX2 analytically  !
 ! D135  D(55,54,56,58)        162.9141         calculate D2E/DX2 analytically  !
 ! D136  D(55,54,56,59)        -77.9512         calculate D2E/DX2 analytically  !
 --------------------------------------------------------------------------------
 Trust Radius=3.00D-01 FncErr=1.00D-07 GrdErr=1.00D-06
 Number of steps in this run=    308 maximum allowed number of steps=    354.
 GradGradGradGradGradGradGradGradGradGradGradGradGradGradGradGradGradGrad

 Leave Link  103 at Wed May  8 10:13:15 2024, MaxMem=    33554432 cpu:         0.1
 (Enter /hits/basement/its/doserbd/software/gaussian/g09d1/g09/l202.exe)
 Stoichiometry    C20H30N4O4S
 Framework group  C1[X(C20H30N4O4S)]
 Deg. of freedom   171
 Full point group                 C1      NOp   1
 Largest Abelian subgroup         C1      NOp   1
 Largest concise Abelian subgroup C1      NOp   1
                         Standard orientation:                         
 ---------------------------------------------------------------------
 Center     Atomic      Atomic             Coordinates (Angstroms)
 Number     Number       Type             X           Y           Z
 ---------------------------------------------------------------------
      1          6           0        7.165150   -1.299472    0.440667
      2          1           0        6.989817   -0.720021    1.354045
      3          1           0        7.540713   -2.294166    0.713612
      4          1           0        7.934701   -0.805851   -0.163704
      5          6           0        5.912116   -1.462737   -0.405235
      6          8           0        5.955215   -1.951980   -1.552879
      7          7           0        4.743574   -1.058742    0.159310
      8          1           0        4.702937   -0.627331    1.075033
      9          6           0        3.472703   -1.167081   -0.540651
     10          1           0        3.614197   -0.820132   -1.574972
     11          6           0        2.953695   -2.629156   -0.571923
     12          1           0        2.010633   -2.704047   -1.128240
     13          1           0        3.706547   -3.254088   -1.065617
     14          1           0        2.792547   -2.989889    0.451951
     15          6           0        2.482410   -0.249795    0.189983
     16          8           0        2.734722    0.196736    1.331109
     17          7           0        1.330936    0.019330   -0.464311
     18          1           0        1.111350   -0.414340   -1.355774
     19          6           0        0.231844    0.760038    0.137949
     20          1           0        0.280325    0.618931    1.226742
     21          6           0        0.282050    2.283805   -0.192097
     22          1           0       -0.597694    2.773614    0.250728
     23          1           0        0.218997    2.406421   -1.283560
     24          6           0        1.560377    2.951862    0.334739
     25          1           0        2.450348    2.533181   -0.145970
     26          1           0        1.652866    2.835622    1.420062
     27         16           0        1.479690    4.800831   -0.069904
     28          6           0        3.143426    5.316862    0.647760
     29          1           0        3.223069    6.398022    0.503474
     30          1           0        3.176383    5.081462    1.715927
     31          1           0        3.953246    4.809659    0.114482
     32          6           0       -1.067375    0.166193   -0.433430
     33          8           0       -1.051451   -0.485410   -1.496944
     34          7           0       -2.198988    0.448209    0.253073
     35          1           0       -2.179863    1.043800    1.072969
     36          6           0       -3.523452    0.075660   -0.218703
     37          1           0       -3.426619   -0.215014   -1.272347
     38          6           0       -4.127096   -1.112716    0.601124
     39          1           0       -5.133274   -1.319603    0.207150
     40          1           0       -4.242882   -0.775261    1.640969
     41          6           0       -3.275030   -2.369798    0.548813
     42          6           0       -2.386484   -2.674378    1.598518
     43          1           0       -2.322113   -2.007098    2.457218
     44          6           0       -1.593530   -3.833690    1.552822
     45          1           0       -0.914529   -4.056934    2.373534
     46          6           0       -1.681544   -4.703385    0.453367
     47          1           0       -1.069573   -5.602167    0.416229
     48          6           0       -2.565566   -4.407907   -0.599424
     49          1           0       -2.638464   -5.076360   -1.454929
     50          6           0       -3.356491   -3.249667   -0.549403
     51          1           0       -4.038912   -3.026585   -1.369577
     52          6           0       -4.431710    1.302916   -0.042405
     53          8           0       -4.265257    2.064549    0.930581
     54          7           0       -5.422590    1.458917   -0.952847
     55          1           0       -5.457258    0.843438   -1.752244
     56          6           0       -6.400360    2.541725   -0.864977
     57          1           0       -7.392730    2.171220   -1.143978
     58          1           0       -6.420538    2.899732    0.168497
     59          1           0       -6.126418    3.379657   -1.519713
 ---------------------------------------------------------------------
 Rotational constants (GHZ):      0.1576231      0.0873150      0.0600597
 Leave Link  202 at Wed May  8 10:13:16 2024, MaxMem=    33554432 cpu:         0.1
 (Enter /hits/basement/its/doserbd/software/gaussian/g09d1/g09/l301.exe)
 Standard basis: 6-31+G (6D, 7F)
 Ernie: Thresh=  0.10000D-02 Tol=  0.10000D-05 Strict=F.
 There are   441 symmetry adapted cartesian basis functions of A   symmetry.
 There are   441 symmetry adapted basis functions of A   symmetry.
   441 basis functions,   898 primitive gaussians,   441 cartesian basis functions
   113 alpha electrons      113 beta electrons
       nuclear repulsion energy      2943.3690502665 Hartrees.
 IExCor= 3226 DFT=T Ex+Corr=BMK ExCW=0 ScaHFX=  0.420000
 ScaDFX=  1.000000  1.000000  1.000000  1.000000 ScalE2=  1.000000  1.000000
 IRadAn=      0 IRanWt=     -1 IRanGd=            0 ICorTp=0 IEmpDi=  4
 NAtoms=   59 NActive=   59 NUniq=   59 SFac= 1.00D+00 NAtFMM=   60 NAOKFM=F Big=F
 Integral buffers will be    131072 words long.
 Raffenetti 2 integral format.
 Two-electron integral symmetry is turned on.
 Leave Link  301 at Wed May  8 10:13:18 2024, MaxMem=    33554432 cpu:         0.3
 (Enter /hits/basement/its/doserbd/software/gaussian/g09d1/g09/l302.exe)
 NPDir=0 NMtPBC=     1 NCelOv=     1 NCel=       1 NClECP=     1 NCelD=      1
         NCelK=      1 NCelE2=     1 NClLst=     1 CellRange=     0.0.
 One-electron integrals computed using PRISM.
 NBasis=   441 RedAO= T EigKep=  1.41D-06  NBF=   441
 NBsUse=   441 1.00D-06 EigRej= -1.00D+00 NBFU=   441
 Precomputing XC quadrature grid using
 IXCGrd= 4 IRadAn=           0 IRanWt=          -1 IRanGd=           0 AccXCQ= 0.00D+00.
 Generated NRdTot=       0 NPtTot=           0 NUsed=           0 NTot=          32
 NSgBfM=   426   426   427   427   427 MxSgAt=    59 MxSgA2=    59.
 Leave Link  302 at Wed May  8 10:13:19 2024, MaxMem=    33554432 cpu:         6.3
 (Enter /hits/basement/its/doserbd/software/gaussian/g09d1/g09/l303.exe)
 DipDrv:  MaxL=1.
 Leave Link  303 at Wed May  8 10:13:20 2024, MaxMem=    33554432 cpu:         0.5
 (Enter /hits/basement/its/doserbd/software/gaussian/g09d1/g09/l401.exe)
 ExpMin= 4.05D-02 ExpMax= 2.19D+04 ExpMxC= 3.30D+03 IAcc=2 IRadAn=         4 AccDes= 0.00D+00
 Harris functional with IExCor= 1009 and IRadAn=       4 diagonalized for initial guess.
 HarFok:  IExCor= 1009 AccDes= 0.00D+00 IRadAn=         4 IDoV= 1 UseB2=F ITyADJ=14
 ICtDFT=  3500011 ScaDFX=  1.000000  1.000000  1.000000  1.000000
 FoFCou: FMM=F IPFlag=           0 FMFlag=      100000 FMFlg1=           0
         NFxFlg=           0 DoJE=T BraDBF=F KetDBF=T FulRan=T
         wScrn=  0.000000 ICntrl=     500 IOpCl=  0 I1Cent=   200000004 NGrid=           0
         NMat0=    1 NMatS0=      1 NMatT0=    0 NMatD0=    1 NMtDS0=    0 NMtDT0=    0
 Petite list used in FoFCou.
 Harris En= -1696.62068321004    
 JPrj=0 DoOrth=F DoCkMO=F.
 Leave Link  401 at Wed May  8 10:13:24 2024, MaxMem=    33554432 cpu:        18.5
 (Enter /hits/basement/its/doserbd/software/gaussian/g09d1/g09/l502.exe)
 Closed shell SCF:
 Using DIIS extrapolation, IDIIS=  1040.
 Integral symmetry usage will be decided dynamically.
 IVT=      608903 IEndB=      608903 NGot=    33554432 MDV=    33157092
 LenX=    33157092 LenY=    32962170
 Requested convergence on RMS density matrix=1.00D-08 within 128 cycles.
 Requested convergence on MAX density matrix=1.00D-06.
 Requested convergence on             energy=1.00D-06.
 No special actions if energy rises.
 Fock matrices will be formed incrementally for  20 cycles.

 Cycle   1  Pass 1  IDiag  1:
 FoFJK:  IHMeth= 1 ICntrl=       0 DoSepK=F KAlg= 0 I1Cent=   0 FoldK=F
 IRaf= 740000000 NMat=   1 IRICut=       1 DoRegI=T DoRafI=F ISym2E= 0.
 FoFCou: FMM=F IPFlag=           0 FMFlag=      100000 FMFlg1=           0
         NFxFlg=           0 DoJE=F BraDBF=F KetDBF=F FulRan=T
         wScrn=  0.000000 ICntrl=       0 IOpCl=  0 I1Cent=           0 NGrid=           0
         NMat0=    1 NMatS0=      1 NMatT0=    0 NMatD0=    1 NMtDS0=    0 NMtDT0=    0
 Symmetry not used in FoFCou.
 E= -1696.47555767440    
 DIIS: error= 2.01D-02 at cycle   1 NSaved=   1.
 NSaved= 1 IEnMin= 1 EnMin= -1696.47555767440     IErMin= 1 ErrMin= 2.01D-02
 ErrMax= 2.01D-02  0.00D+00 EMaxC= 1.00D-01 BMatC= 6.81D-01 BMatP= 6.81D-01
 IDIUse=3 WtCom= 7.99D-01 WtEn= 2.01D-01
 Coeff-Com:  0.100D+01
 Coeff-En:   0.100D+01
 Coeff:      0.100D+01
 Gap=     0.388 Goal=   None    Shift=    0.000
 GapD=    0.388 DampG=1.000 DampE=0.500 DampFc=0.5000 IDamp=-1.
 Damping current iteration by 5.00D-01
 RMSDP=5.99D-02 MaxDP=6.80D+00              OVMax= 2.37D-01

 Cycle   2  Pass 1  IDiag  1:
 RMSU=  2.76D-02    CP:  1.09D+00
 E= -1696.72476974492     Delta-E=       -0.249212070515 Rises=F Damp=T
 DIIS: error= 8.97D-03 at cycle   2 NSaved=   2.
 NSaved= 2 IEnMin= 2 EnMin= -1696.72476974492     IErMin= 2 ErrMin= 8.97D-03
 ErrMax= 8.97D-03  0.00D+00 EMaxC= 1.00D-01 BMatC= 7.15D-02 BMatP= 6.81D-01
 IDIUse=3 WtCom= 9.10D-01 WtEn= 8.97D-02
 Coeff-Com:  0.155D+00 0.845D+00
 Coeff-En:   0.211D+00 0.789D+00
 Coeff:      0.160D+00 0.840D+00
 Gap=     0.322 Goal=   None    Shift=    0.000
 RMSDP=3.50D-02 MaxDP=7.58D+00 DE=-2.49D-01 OVMax= 1.31D-01

 Cycle   3  Pass 1  IDiag  1:
 RMSU=  1.66D-02    CP:  8.53D-01  1.11D+00
 E= -1697.07480671116     Delta-E=       -0.350036966245 Rises=F Damp=F
 DIIS: error= 1.00D-02 at cycle   3 NSaved=   3.
 NSaved= 3 IEnMin= 3 EnMin= -1697.07480671116     IErMin= 2 ErrMin= 8.97D-03
 ErrMax= 1.00D-02  0.00D+00 EMaxC= 1.00D-01 BMatC= 6.29D-02 BMatP= 7.15D-02
 IDIUse=3 WtCom= 9.00D-01 WtEn= 1.00D-01
 Coeff-Com:  0.329D-01 0.479D+00 0.488D+00
 Coeff-En:   0.000D+00 0.000D+00 0.100D+01
 Coeff:      0.296D-01 0.431D+00 0.539D+00
 Gap=     0.257 Goal=   None    Shift=    0.000
 RMSDP=6.75D-03 MaxDP=7.89D-01 DE=-3.50D-01 OVMax= 5.31D-02

 Cycle   4  Pass 1  IDiag  1:
 RMSU=  5.07D-03    CP:  8.71D-01  1.05D+00  7.92D-01
 E= -1697.12441046723     Delta-E=       -0.049603756070 Rises=F Damp=F
 DIIS: error= 3.27D-03 at cycle   4 NSaved=   4.
 NSaved= 4 IEnMin= 4 EnMin= -1697.12441046723     IErMin= 4 ErrMin= 3.27D-03
 ErrMax= 3.27D-03  0.00D+00 EMaxC= 1.00D-01 BMatC= 6.13D-03 BMatP= 6.29D-02
 IDIUse=3 WtCom= 9.67D-01 WtEn= 3.27D-02
 Coeff-Com:  0.596D-02 0.432D-01 0.246D+00 0.705D+00
 Coeff-En:   0.000D+00 0.000D+00 0.481D-01 0.952D+00
 Coeff:      0.577D-02 0.418D-01 0.240D+00 0.713D+00
 Gap=     0.260 Goal=   None    Shift=    0.000
 RMSDP=1.92D-03 MaxDP=1.76D-01 DE=-4.96D-02 OVMax= 1.29D-02

 Cycle   5  Pass 1  IDiag  1:
 RMSU=  1.39D-03    CP:  8.65D-01  1.04D+00  8.31D-01  8.35D-01
 E= -1697.12913537513     Delta-E=       -0.004724907894 Rises=F Damp=F
 DIIS: error= 6.32D-04 at cycle   5 NSaved=   5.
 NSaved= 5 IEnMin= 5 EnMin= -1697.12913537513     IErMin= 5 ErrMin= 6.32D-04
 ErrMax= 6.32D-04  0.00D+00 EMaxC= 1.00D-01 BMatC= 3.19D-04 BMatP= 6.13D-03
 IDIUse=3 WtCom= 9.94D-01 WtEn= 6.32D-03
 Coeff-Com:  0.239D-02-0.103D-01 0.872D-01 0.351D+00 0.570D+00
 Coeff-En:   0.000D+00 0.000D+00 0.000D+00 0.000D+00 0.100D+01
 Coeff:      0.237D-02-0.102D-01 0.867D-01 0.348D+00 0.573D+00
 Gap=     0.259 Goal=   None    Shift=    0.000
 RMSDP=5.32D-04 MaxDP=7.71D-02 DE=-4.72D-03 OVMax= 3.03D-03

 Cycle   6  Pass 1  IDiag  1:
 RMSU=  3.72D-04    CP:  8.63D-01  1.05D+00  8.39D-01  8.27D-01  9.31D-01
 E= -1697.12944738105     Delta-E=       -0.000312005920 Rises=F Damp=F
 DIIS: error= 1.36D-04 at cycle   6 NSaved=   6.
 NSaved= 6 IEnMin= 6 EnMin= -1697.12944738105     IErMin= 6 ErrMin= 1.36D-04
 ErrMax= 1.36D-04  0.00D+00 EMaxC= 1.00D-01 BMatC= 1.37D-05 BMatP= 3.19D-04
 IDIUse=3 WtCom= 9.99D-01 WtEn= 1.36D-03
 Coeff-Com:  0.139D-02-0.713D-02 0.209D-01 0.889D-01 0.219D+00 0.677D+00
 Coeff-En:   0.000D+00 0.000D+00 0.000D+00 0.000D+00 0.000D+00 0.100D+01
 Coeff:      0.138D-02-0.712D-02 0.209D-01 0.888D-01 0.219D+00 0.677D+00
 Gap=     0.259 Goal=   None    Shift=    0.000
 RMSDP=1.49D-04 MaxDP=1.26D-02 DE=-3.12D-04 OVMax= 8.50D-04

 Cycle   7  Pass 1  IDiag  1:
 RMSU=  1.03D-04    CP:  8.63D-01  1.04D+00  8.39D-01  8.36D-01  9.70D-01
                    CP:  1.03D+00
 E= -1697.12945737323     Delta-E=       -0.000009992179 Rises=F Damp=F
 DIIS: error= 6.56D-05 at cycle   7 NSaved=   7.
 NSaved= 7 IEnMin= 7 EnMin= -1697.12945737323     IErMin= 7 ErrMin= 6.56D-05
 ErrMax= 6.56D-05  0.00D+00 EMaxC= 1.00D-01 BMatC= 3.51D-06 BMatP= 1.37D-05
 IDIUse=1 WtCom= 1.00D+00 WtEn= 0.00D+00
 Coeff-Com:  0.687D-03-0.294D-02-0.544D-03-0.262D-02 0.458D-01 0.385D+00
 Coeff-Com:  0.575D+00
 Coeff:      0.687D-03-0.294D-02-0.544D-03-0.262D-02 0.458D-01 0.385D+00
 Coeff:      0.575D+00
 Gap=     0.259 Goal=   None    Shift=    0.000
 RMSDP=7.52D-05 MaxDP=6.24D-03 DE=-9.99D-06 OVMax= 3.79D-04

 Cycle   8  Pass 1  IDiag  1:
 RMSU=  4.74D-05    CP:  8.62D-01  1.04D+00  8.40D-01  8.39D-01  9.75D-01
                    CP:  1.08D+00  1.09D+00
 E= -1697.12946009703     Delta-E=       -0.000002723802 Rises=F Damp=F
 DIIS: error= 2.34D-05 at cycle   8 NSaved=   8.
 NSaved= 8 IEnMin= 8 EnMin= -1697.12946009703     IErMin= 8 ErrMin= 2.34D-05
 ErrMax= 2.34D-05  0.00D+00 EMaxC= 1.00D-01 BMatC= 4.79D-07 BMatP= 3.51D-06
 IDIUse=1 WtCom= 1.00D+00 WtEn= 0.00D+00
 Coeff-Com:  0.237D-03-0.607D-03-0.328D-02-0.157D-01-0.711D-02 0.102D+00
 Coeff-Com:  0.316D+00 0.609D+00
 Coeff:      0.237D-03-0.607D-03-0.328D-02-0.157D-01-0.711D-02 0.102D+00
 Coeff:      0.316D+00 0.609D+00
 Gap=     0.259 Goal=   None    Shift=    0.000
 RMSDP=2.45D-05 MaxDP=2.09D-03 DE=-2.72D-06 OVMax= 1.88D-04

 Cycle   9  Pass 1  IDiag  1:
 RMSU=  1.35D-05    CP:  8.62D-01  1.04D+00  8.40D-01  8.40D-01  9.87D-01
                    CP:  1.07D+00  1.14D+00  9.41D-01
 E= -1697.12946050670     Delta-E=       -0.000000409671 Rises=F Damp=F
 DIIS: error= 5.15D-06 at cycle   9 NSaved=   9.
 NSaved= 9 IEnMin= 9 EnMin= -1697.12946050670     IErMin= 9 ErrMin= 5.15D-06
 ErrMax= 5.15D-06  0.00D+00 EMaxC= 1.00D-01 BMatC= 3.59D-08 BMatP= 4.79D-07
 IDIUse=1 WtCom= 1.00D+00 WtEn= 0.00D+00
 Coeff-Com:  0.665D-05 0.136D-03-0.877D-03-0.504D-02-0.812D-02-0.232D-01
 Coeff-Com:  0.274D-01 0.233D+00 0.777D+00
 Coeff:      0.665D-05 0.136D-03-0.877D-03-0.504D-02-0.812D-02-0.232D-01
 Coeff:      0.274D-01 0.233D+00 0.777D+00
 Gap=     0.259 Goal=   None    Shift=    0.000
 RMSDP=1.06D-05 MaxDP=7.65D-04 DE=-4.10D-07 OVMax= 5.06D-05

 Cycle  10  Pass 1  IDiag  1:
 RMSU=  5.06D-06    CP:  8.62D-01  1.04D+00  8.40D-01  8.39D-01  9.92D-01
                    CP:  1.08D+00  1.14D+00  9.75D-01  1.04D+00
 E= -1697.12946054309     Delta-E=       -0.000000036389 Rises=F Damp=F
 DIIS: error= 2.87D-06 at cycle  10 NSaved=  10.
 NSaved=10 IEnMin=10 EnMin= -1697.12946054309     IErMin=10 ErrMin= 2.87D-06
 ErrMax= 2.87D-06  0.00D+00 EMaxC= 1.00D-01 BMatC= 4.42D-09 BMatP= 3.59D-08
 IDIUse=1 WtCom= 1.00D+00 WtEn= 0.00D+00
 Coeff-Com: -0.147D-04 0.118D-03-0.138D-03-0.121D-02-0.339D-02-0.202D-01
 Coeff-Com: -0.120D-01 0.691D-01 0.385D+00 0.583D+00
 Coeff:     -0.147D-04 0.118D-03-0.138D-03-0.121D-02-0.339D-02-0.202D-01
 Coeff:     -0.120D-01 0.691D-01 0.385D+00 0.583D+00
 Gap=     0.259 Goal=   None    Shift=    0.000
 RMSDP=2.57D-06 MaxDP=3.03D-04 DE=-3.64D-08 OVMax= 2.23D-05

 Cycle  11  Pass 1  IDiag  1:
 RMSU=  1.77D-06    CP:  8.62D-01  1.04D+00  8.40D-01  8.39D-01  9.92D-01
                    CP:  1.08D+00  1.14D+00  9.80D-01  1.07D+00  8.16D-01
 E= -1697.12946054788     Delta-E=       -0.000000004793 Rises=F Damp=F
 DIIS: error= 8.93D-07 at cycle  11 NSaved=  11.
 NSaved=11 IEnMin=11 EnMin= -1697.12946054788     IErMin=11 ErrMin= 8.93D-07
 ErrMax= 8.93D-07  0.00D+00 EMaxC= 1.00D-01 BMatC= 3.89D-10 BMatP= 4.42D-09
 IDIUse=1 WtCom= 1.00D+00 WtEn= 0.00D+00
 Coeff-Com: -0.680D-05 0.331D-04 0.656D-04 0.141D-03-0.360D-03-0.567D-02
 Coeff-Com: -0.858D-02 0.348D-03 0.647D-01 0.252D+00 0.698D+00
 Coeff:     -0.680D-05 0.331D-04 0.656D-04 0.141D-03-0.360D-03-0.567D-02
 Coeff:     -0.858D-02 0.348D-03 0.647D-01 0.252D+00 0.698D+00
 Gap=     0.259 Goal=   None    Shift=    0.000
 RMSDP=8.62D-07 MaxDP=1.02D-04 DE=-4.79D-09 OVMax= 6.72D-06

 Cycle  12  Pass 1  IDiag  1:
 RMSU=  7.13D-07    CP:  8.62D-01  1.04D+00  8.40D-01  8.39D-01  9.91D-01
                    CP:  1.08D+00  1.14D+00  9.82D-01  1.06D+00  8.38D-01
                    CP:  1.05D+00
 E= -1697.12946054839     Delta-E=       -0.000000000504 Rises=F Damp=F
 DIIS: error= 3.87D-07 at cycle  12 NSaved=  12.
 NSaved=12 IEnMin=12 EnMin= -1697.12946054839     IErMin=12 ErrMin= 3.87D-07
 ErrMax= 3.87D-07  0.00D+00 EMaxC= 1.00D-01 BMatC= 9.68D-11 BMatP= 3.89D-10
 IDIUse=1 WtCom= 1.00D+00 WtEn= 0.00D+00
 Coeff-Com: -0.217D-05 0.503D-05 0.528D-04 0.211D-03 0.188D-03-0.870D-03
 Coeff-Com: -0.349D-02-0.803D-02-0.932D-02 0.735D-01 0.400D+00 0.548D+00
 Coeff:     -0.217D-05 0.503D-05 0.528D-04 0.211D-03 0.188D-03-0.870D-03
 Coeff:     -0.349D-02-0.803D-02-0.932D-02 0.735D-01 0.400D+00 0.548D+00
 Gap=     0.259 Goal=   None    Shift=    0.000
 RMSDP=3.01D-07 MaxDP=3.69D-05 DE=-5.04D-10 OVMax= 1.92D-06

 Cycle  13  Pass 1  IDiag  1:
 RMSU=  1.90D-07    CP:  8.62D-01  1.04D+00  8.40D-01  8.39D-01  9.91D-01
                    CP:  1.08D+00  1.14D+00  9.82D-01  1.07D+00  8.46D-01
                    CP:  1.09D+00  9.36D-01
 E= -1697.12946054844     Delta-E=       -0.000000000055 Rises=F Damp=F
 DIIS: error= 1.80D-07 at cycle  13 NSaved=  13.
 NSaved=13 IEnMin=13 EnMin= -1697.12946054844     IErMin=13 ErrMin= 1.80D-07
 ErrMax= 1.80D-07  0.00D+00 EMaxC= 1.00D-01 BMatC= 9.08D-12 BMatP= 9.68D-11
 IDIUse=1 WtCom= 1.00D+00 WtEn= 0.00D+00
 Coeff-Com: -0.231D-06-0.150D-05 0.215D-04 0.944D-04 0.153D-03 0.246D-03
 Coeff-Com: -0.799D-03-0.433D-02-0.133D-01 0.710D-02 0.125D+00 0.283D+00
 Coeff-Com:  0.603D+00
 Coeff:     -0.231D-06-0.150D-05 0.215D-04 0.944D-04 0.153D-03 0.246D-03
 Coeff:     -0.799D-03-0.433D-02-0.133D-01 0.710D-02 0.125D+00 0.283D+00
 Coeff:      0.603D+00
 Gap=     0.259 Goal=   None    Shift=    0.000
 RMSDP=1.25D-07 MaxDP=1.22D-05 DE=-5.46D-11 OVMax= 7.01D-07

 Cycle  14  Pass 1  IDiag  1:
 RMSU=  7.59D-08    CP:  8.62D-01  1.04D+00  8.40D-01  8.39D-01  9.91D-01
                    CP:  1.08D+00  1.14D+00  9.82D-01  1.07D+00  8.51D-01
                    CP:  1.10D+00  9.19D-01  9.30D-01
 E= -1697.12946054814     Delta-E=        0.000000000296 Rises=F Damp=F
 DIIS: error= 4.65D-08 at cycle  14 NSaved=  14.
 NSaved=14 IEnMin=13 EnMin= -1697.12946054844     IErMin=14 ErrMin= 4.65D-08
 ErrMax= 4.65D-08  0.00D+00 EMaxC= 1.00D-01 BMatC= 1.26D-12 BMatP= 9.08D-12
 IDIUse=1 WtCom= 1.00D+00 WtEn= 0.00D+00
 Coeff-Com:  0.214D-06-0.140D-05 0.474D-05 0.202D-04 0.554D-04 0.232D-03
 Coeff-Com:  0.350D-04-0.110D-02-0.552D-02-0.617D-02 0.983D-02 0.700D-01
 Coeff-Com:  0.317D+00 0.616D+00
 Coeff:      0.214D-06-0.140D-05 0.474D-05 0.202D-04 0.554D-04 0.232D-03
 Coeff:      0.350D-04-0.110D-02-0.552D-02-0.617D-02 0.983D-02 0.700D-01
 Coeff:      0.317D+00 0.616D+00
 Gap=     0.259 Goal=   None    Shift=    0.000
 RMSDP=5.81D-08 MaxDP=7.06D-06 DE= 2.96D-10 OVMax= 3.80D-07

 Cycle  15  Pass 1  IDiag  1:
 RMSU=  3.69D-08    CP:  8.62D-01  1.04D+00  8.40D-01  8.39D-01  9.91D-01
                    CP:  1.08D+00  1.14D+00  9.81D-01  1.07D+00  8.54D-01
                    CP:  1.10D+00  9.13D-01  9.62D-01  9.65D-01
 E= -1697.12946054845     Delta-E=       -0.000000000307 Rises=F Damp=F
 DIIS: error= 1.74D-08 at cycle  15 NSaved=  15.
 NSaved=15 IEnMin=15 EnMin= -1697.12946054845     IErMin=15 ErrMin= 1.74D-08
 ErrMax= 1.74D-08  0.00D+00 EMaxC= 1.00D-01 BMatC= 8.61D-14 BMatP= 1.26D-12
 IDIUse=1 WtCom= 1.00D+00 WtEn= 0.00D+00
 Coeff-Com:  0.124D-06-0.398D-06-0.515D-06-0.317D-05 0.516D-05 0.683D-04
 Coeff-Com:  0.101D-03 0.480D-04-0.809D-03-0.336D-02-0.103D-01-0.464D-02
 Coeff-Com:  0.580D-01 0.248D+00 0.713D+00
 Coeff:      0.124D-06-0.398D-06-0.515D-06-0.317D-05 0.516D-05 0.683D-04
 Coeff:      0.101D-03 0.480D-04-0.809D-03-0.336D-02-0.103D-01-0.464D-02
 Coeff:      0.580D-01 0.248D+00 0.713D+00
 Gap=     0.259 Goal=   None    Shift=    0.000
 RMSDP=1.96D-08 MaxDP=2.34D-06 DE=-3.07D-10 OVMax= 1.18D-07

 Cycle  16  Pass 1  IDiag  1:
 RMSU=  9.08D-09    CP:  8.62D-01  1.04D+00  8.40D-01  8.39D-01  9.91D-01
                    CP:  1.08D+00  1.14D+00  9.81D-01  1.07D+00  8.53D-01
                    CP:  1.10D+00  9.22D-01  9.72D-01  9.68D-01  9.85D-01
 E= -1697.12946054816     Delta-E=        0.000000000296 Rises=F Damp=F
 DIIS: error= 5.61D-09 at cycle  16 NSaved=  16.
 NSaved=16 IEnMin=15 EnMin= -1697.12946054845     IErMin=16 ErrMin= 5.61D-09
 ErrMax= 5.61D-09  0.00D+00 EMaxC= 1.00D-01 BMatC= 1.12D-14 BMatP= 8.61D-14
 IDIUse=1 WtCom= 1.00D+00 WtEn= 0.00D+00
 Coeff-Com:  0.235D-07-0.952D-09-0.820D-06-0.389D-05-0.467D-05-0.125D-05
 Coeff-Com:  0.367D-04 0.165D-03 0.382D-03-0.646D-03-0.561D-02-0.112D-01
 Coeff-Com: -0.159D-01 0.292D-01 0.309D+00 0.695D+00
 Coeff:      0.235D-07-0.952D-09-0.820D-06-0.389D-05-0.467D-05-0.125D-05
 Coeff:      0.367D-04 0.165D-03 0.382D-03-0.646D-03-0.561D-02-0.112D-01
 Coeff:     -0.159D-01 0.292D-01 0.309D+00 0.695D+00
 Gap=     0.259 Goal=   None    Shift=    0.000
 RMSDP=6.68D-09 MaxDP=5.26D-07 DE= 2.96D-10 OVMax= 5.48D-08

 SCF Done:  E(RBMK) =  -1697.12946055     A.U. after   16 cycles
            NFock= 16  Conv=0.67D-08     -V/T= 2.0050
 KE= 1.688756314260D+03 PE=-9.858802102921D+03 EE= 3.529547277846D+03
 Leave Link  502 at Wed May  8 10:16:17 2024, MaxMem=    33554432 cpu:      1361.6
 (Enter /hits/basement/its/doserbd/software/gaussian/g09d1/g09/l801.exe)
 DoSCS=F DFT=T ScalE2(SS,OS)=  1.000000  1.000000
 Range of M.O.s used for correlation:     1   441
 NBasis=   441 NAE=   113 NBE=   113 NFC=     0 NFV=     0
 NROrb=    441 NOA=   113 NOB=   113 NVA=   328 NVB=   328

 **** Warning!!: The largest alpha MO coefficient is  0.15504908D+03

 Leave Link  801 at Wed May  8 10:16:18 2024, MaxMem=    33554432 cpu:         0.3
 (Enter /hits/basement/its/doserbd/software/gaussian/g09d1/g09/l1101.exe)
 Using compressed storage, NAtomX=    59.
 Will process     60 centers per pass.
 PrsmSu:  requested number of processors reduced to:   7 ShMem   1 Linda.
 PrsmSu:  requested number of processors reduced to:   1 ShMem   1 Linda.
 Leave Link 1101 at Wed May  8 10:16:20 2024, MaxMem=    33554432 cpu:         4.2
 (Enter /hits/basement/its/doserbd/software/gaussian/g09d1/g09/l1102.exe)
 Symmetrizing basis deriv contribution to polar:
 IMax=3 JMax=2 DiffMx= 0.00D+00
 Leave Link 1102 at Wed May  8 10:16:21 2024, MaxMem=    33554432 cpu:         1.9
 (Enter /hits/basement/its/doserbd/software/gaussian/g09d1/g09/l1110.exe)
 Forming Gx(P) for the SCF density, NAtomX=    59.
 Integral derivatives from FoFJK, PRISM(SPDF).
 Do as many integral derivatives as possible in FoFJK.
 G2DrvN: MDV=      33553856.
 G2DrvN: will do     6 centers at a time, making   10 passes.
 G2DrvN:  IPasSy=1 do centers    0 through    5.
 Calling FoFCou, ICntrl=  3107 FMM=F I1Cent=   0 AccDes= 0.00D+00.
 FoFJK:  IHMeth= 1 ICntrl=    3107 DoSepK=F KAlg= 0 I1Cent=   0 FoldK=F
 IRaf=         0 NMat=   1 IRICut=       1 DoRegI=T DoRafI=F ISym2E= 0.
 FoFCou: FMM=F IPFlag=           0 FMFlag=      100000 FMFlg1=           0
         NFxFlg=           0 DoJE=F BraDBF=F KetDBF=F FulRan=T
         wScrn=  0.000000 ICntrl=    3107 IOpCl=  0 I1Cent=           0 NGrid=           0
         NMat0=    1 NMatS0=      1 NMatT0=    0 NMatD0=    1 NMtDS0=    0 NMtDT0=    0
 Symmetry not used in FoFCou.
 G2DrvN:  IPasSy=1 do centers    6 through   11.
 Calling FoFCou, ICntrl=  3107 FMM=F I1Cent=   0 AccDes= 0.00D+00.
 G2DrvN:  IPasSy=1 do centers   12 through   17.
 Calling FoFCou, ICntrl=  3107 FMM=F I1Cent=   0 AccDes= 0.00D+00.
 G2DrvN:  IPasSy=1 do centers   18 through   23.
 Calling FoFCou, ICntrl=  3107 FMM=F I1Cent=   0 AccDes= 0.00D+00.
 G2DrvN:  IPasSy=1 do centers   24 through   29.
 Calling FoFCou, ICntrl=  3107 FMM=F I1Cent=   0 AccDes= 0.00D+00.
 G2DrvN:  IPasSy=1 do centers   30 through   35.
 Calling FoFCou, ICntrl=  3107 FMM=F I1Cent=   0 AccDes= 0.00D+00.
 G2DrvN:  IPasSy=1 do centers   36 through   41.
 Calling FoFCou, ICntrl=  3107 FMM=F I1Cent=   0 AccDes= 0.00D+00.
 G2DrvN:  IPasSy=1 do centers   42 through   47.
 Calling FoFCou, ICntrl=  3107 FMM=F I1Cent=   0 AccDes= 0.00D+00.
 G2DrvN:  IPasSy=1 do centers   48 through   53.
 Calling FoFCou, ICntrl=  3107 FMM=F I1Cent=   0 AccDes= 0.00D+00.
 G2DrvN:  IPasSy=1 do centers   54 through   59.
 Calling FoFCou, ICntrl=  3107 FMM=F I1Cent=   0 AccDes= 0.00D+00.
 End of G2Drv F.D. properties file   721 does not exist.
 End of G2Drv F.D. properties file   722 does not exist.
 End of G2Drv F.D. properties file   788 does not exist.
 Leave Link 1110 at Wed May  8 10:28:06 2024, MaxMem=    33554432 cpu:      5614.1
 (Enter /hits/basement/its/doserbd/software/gaussian/g09d1/g09/l1002.exe)
 Minotr:  Closed shell wavefunction.
          IDoAtm=11111111111111111111111111111111111111111111111111
          IDoAtm=111111111
          Direct CPHF calculation.
          Differentiating once with respect to nuclear coordinates.
          Requested convergence is 1.0D-08 RMS, and 1.0D-07 maximum.
          Secondary convergence is 1.0D-12 RMS, and 1.0D-12 maximum.
          NewPWx=T KeepS1=F KeepF1=F KeepIn=T MapXYZ=F SortEE=F KeepMc=T.
          MDV=      33553397 using IRadAn=       2.
 Generate precomputed XC quadrature information.
          Solving linear equations simultaneously, MaxMat=       0.
 FoFJK:  IHMeth= 1 ICntrl=       0 DoSepK=F KAlg= 0 I1Cent=   0 FoldK=F
 IRaf= 740000000 NMat=  24 IRICut=       1 DoRegI=T DoRafI=F ISym2E= 2.
 FoFCou: FMM=F IPFlag=           0 FMFlag=      100000 FMFlg1=           0
         NFxFlg=           0 DoJE=F BraDBF=F KetDBF=F FulRan=T
         wScrn=  0.000000 ICntrl=       0 IOpCl=  0 I1Cent=           0 NGrid=           0
         NMat0=   24 NMatS0=     24 NMatT0=    0 NMatD0=   24 NMtDS0=    0 NMtDT0=    0
 Integrals replicated using symmetry in FoFCou.
 CalDSu:  requested number of processors reduced to:   7 ShMem   1 Linda.
 CalDSu:  requested number of processors reduced to:   7 ShMem   1 Linda.
 CalDSu:  requested number of processors reduced to:   7 ShMem   1 Linda.
 CalDSu:  requested number of processors reduced to:   7 ShMem   1 Linda.
 CalDSu:  requested number of processors reduced to:   7 ShMem   1 Linda.
 CalDSu:  requested number of processors reduced to:   7 ShMem   1 Linda.
 CalDSu:  requested number of processors reduced to:   7 ShMem   1 Linda.
          There are   180 degrees of freedom in the 1st order CPHF.  IDoFFX=6 NUNeed=     0.
    177 vectors produced by pass  0 Test12= 3.71D-14 1.00D-09 XBig12= 5.26D-01 1.31D-01.
 AX will form    24 AO Fock derivatives at one time.
 CalDSu:  requested number of processors reduced to:   7 ShMem   1 Linda.
 CalDSu:  requested number of processors reduced to:   7 ShMem   1 Linda.
 CalDSu:  requested number of processors reduced to:   7 ShMem   1 Linda.
 CalDSu:  requested number of processors reduced to:   7 ShMem   1 Linda.
 CalDSu:  requested number of processors reduced to:   7 ShMem   1 Linda.
 CalDSu:  requested number of processors reduced to:   7 ShMem   1 Linda.
 CalDSu:  requested number of processors reduced to:   7 ShMem   1 Linda.
    177 vectors produced by pass  1 Test12= 3.71D-14 1.00D-09 XBig12= 6.36D-03 1.27D-02.
 CalDSu:  requested number of processors reduced to:   7 ShMem   1 Linda.
 CalDSu:  requested number of processors reduced to:   7 ShMem   1 Linda.
 CalDSu:  requested number of processors reduced to:   7 ShMem   1 Linda.
 CalDSu:  requested number of processors reduced to:   7 ShMem   1 Linda.
 CalDSu:  requested number of processors reduced to:   7 ShMem   1 Linda.
 CalDSu:  requested number of processors reduced to:   7 ShMem   1 Linda.
 CalDSu:  requested number of processors reduced to:   7 ShMem   1 Linda.
    177 vectors produced by pass  2 Test12= 3.71D-14 1.00D-09 XBig12= 6.92D-05 1.02D-03.
 CalDSu:  requested number of processors reduced to:   7 ShMem   1 Linda.
 CalDSu:  requested number of processors reduced to:   7 ShMem   1 Linda.
 CalDSu:  requested number of processors reduced to:   7 ShMem   1 Linda.
 CalDSu:  requested number of processors reduced to:   7 ShMem   1 Linda.
 CalDSu:  requested number of processors reduced to:   7 ShMem   1 Linda.
 CalDSu:  requested number of processors reduced to:   7 ShMem   1 Linda.
 CalDSu:  requested number of processors reduced to:   7 ShMem   1 Linda.
    174 vectors produced by pass  3 Test12= 3.71D-14 1.00D-09 XBig12= 2.99D-07 6.10D-05.
 CalDSu:  requested number of processors reduced to:   7 ShMem   1 Linda.
 CalDSu:  requested number of processors reduced to:   7 ShMem   1 Linda.
 CalDSu:  requested number of processors reduced to:   7 ShMem   1 Linda.
 CalDSu:  requested number of processors reduced to:   7 ShMem   1 Linda.
 CalDSu:  requested number of processors reduced to:   7 ShMem   1 Linda.
 CalDSu:  requested number of processors reduced to:   7 ShMem   1 Linda.
 CalDSu:  requested number of processors reduced to:   7 ShMem   1 Linda.
    174 vectors produced by pass  4 Test12= 3.71D-14 1.00D-09 XBig12= 1.12D-09 2.36D-06.
 CalDSu:  requested number of processors reduced to:   7 ShMem   1 Linda.
 CalDSu:  requested number of processors reduced to:   7 ShMem   1 Linda.
 CalDSu:  requested number of processors reduced to:   7 ShMem   1 Linda.
 CalDSu:  requested number of processors reduced to:   7 ShMem   1 Linda.
 CalDSu:  requested number of processors reduced to:   7 ShMem   1 Linda.
 CalDSu:  requested number of processors reduced to:   7 ShMem   1 Linda.
 CalDSu:  requested number of processors reduced to:   7 ShMem   1 Linda.
    174 vectors produced by pass  5 Test12= 3.71D-14 1.00D-09 XBig12= 8.57D-12 1.47D-07.
 CalDSu:  requested number of processors reduced to:   7 ShMem   1 Linda.
 CalDSu:  requested number of processors reduced to:   7 ShMem   1 Linda.
 CalDSu:  requested number of processors reduced to:   7 ShMem   1 Linda.
 CalDSu:  requested number of processors reduced to:   7 ShMem   1 Linda.
 CalDSu:  requested number of processors reduced to:   7 ShMem   1 Linda.
 CalDSu:  requested number of processors reduced to:   7 ShMem   1 Linda.
 CalDSu:  requested number of processors reduced to:   7 ShMem   1 Linda.
    174 vectors produced by pass  6 Test12= 3.71D-14 1.00D-09 XBig12= 3.22D-13 2.53D-08.
 CalDSu:  requested number of processors reduced to:   7 ShMem   1 Linda.
 CalDSu:  requested number of processors reduced to:   7 ShMem   1 Linda.
 CalDSu:  requested number of processors reduced to:   7 ShMem   1 Linda.
 CalDSu:  requested number of processors reduced to:   7 ShMem   1 Linda.
 CalDSu:  requested number of processors reduced to:   7 ShMem   1 Linda.
 CalDSu:  requested number of processors reduced to:   7 ShMem   1 Linda.
 CalDSu:  requested number of processors reduced to:   7 ShMem   1 Linda.
    174 vectors produced by pass  7 Test12= 3.71D-14 1.00D-09 XBig12= 2.89D-14 8.31D-09.
 CalDSu:  requested number of processors reduced to:   7 ShMem   1 Linda.
 CalDSu:  requested number of processors reduced to:   7 ShMem   1 Linda.
 CalDSu:  requested number of processors reduced to:   7 ShMem   1 Linda.
 CalDSu:  requested number of processors reduced to:   7 ShMem   1 Linda.
 CalDSu:  requested number of processors reduced to:   7 ShMem   1 Linda.
 CalDSu:  requested number of processors reduced to:   7 ShMem   1 Linda.
 CalDSu:  requested number of processors reduced to:   7 ShMem   1 Linda.
    174 vectors produced by pass  8 Test12= 3.71D-14 1.00D-09 XBig12= 5.52D-14 1.09D-08.
 CalDSu:  requested number of processors reduced to:   7 ShMem   1 Linda.
 CalDSu:  requested number of processors reduced to:   7 ShMem   1 Linda.
 CalDSu:  requested number of processors reduced to:   7 ShMem   1 Linda.
 CalDSu:  requested number of processors reduced to:   7 ShMem   1 Linda.
 CalDSu:  requested number of processors reduced to:   7 ShMem   1 Linda.
 CalDSu:  requested number of processors reduced to:   7 ShMem   1 Linda.
 CalDSu:  requested number of processors reduced to:   7 ShMem   1 Linda.
    174 vectors produced by pass  9 Test12= 3.71D-14 1.00D-09 XBig12= 2.54D-14 6.59D-09.
 CalDSu:  requested number of processors reduced to:   7 ShMem   1 Linda.
 CalDSu:  requested number of processors reduced to:   7 ShMem   1 Linda.
 CalDSu:  requested number of processors reduced to:   7 ShMem   1 Linda.
 CalDSu:  requested number of processors reduced to:   7 ShMem   1 Linda.
 CalDSu:  requested number of processors reduced to:   7 ShMem   1 Linda.
 CalDSu:  requested number of processors reduced to:   7 ShMem   1 Linda.
 CalDSu:  requested number of processors reduced to:   7 ShMem   1 Linda.
    174 vectors produced by pass 10 Test12= 3.71D-14 1.00D-09 XBig12= 1.22D-14 4.22D-09.
 CalDSu:  requested number of processors reduced to:   7 ShMem   1 Linda.
 CalDSu:  requested number of processors reduced to:   7 ShMem   1 Linda.
 CalDSu:  requested number of processors reduced to:   7 ShMem   1 Linda.
 CalDSu:  requested number of processors reduced to:   7 ShMem   1 Linda.
 CalDSu:  requested number of processors reduced to:   7 ShMem   1 Linda.
 CalDSu:  requested number of processors reduced to:   7 ShMem   1 Linda.
 CalDSu:  requested number of processors reduced to:   7 ShMem   1 Linda.
    171 vectors produced by pass 11 Test12= 3.71D-14 1.00D-09 XBig12= 1.29D-14 3.84D-09.
 CalDSu:  requested number of processors reduced to:   7 ShMem   1 Linda.
 CalDSu:  requested number of processors reduced to:   7 ShMem   1 Linda.
 CalDSu:  requested number of processors reduced to:   7 ShMem   1 Linda.
 CalDSu:  requested number of processors reduced to:   7 ShMem   1 Linda.
 CalDSu:  requested number of processors reduced to:   7 ShMem   1 Linda.
 CalDSu:  requested number of processors reduced to:   7 ShMem   1 Linda.
 CalDSu:  requested number of processors reduced to:   7 ShMem   1 Linda.
    145 vectors produced by pass 12 Test12= 3.71D-14 1.00D-09 XBig12= 5.80D-15 2.86D-09.
 CalDSu:  requested number of processors reduced to:   7 ShMem   1 Linda.
 CalDSu:  requested number of processors reduced to:   7 ShMem   1 Linda.
 CalDSu:  requested number of processors reduced to:   7 ShMem   1 Linda.
 CalDSu:  requested number of processors reduced to:   7 ShMem   1 Linda.
 CalDSu:  requested number of processors reduced to:   7 ShMem   1 Linda.
 CalDSu:  requested number of processors reduced to:   7 ShMem   1 Linda.
    120 vectors produced by pass 13 Test12= 3.71D-14 1.00D-09 XBig12= 4.61D-15 2.72D-09.
 CalDSu:  requested number of processors reduced to:   7 ShMem   1 Linda.
 CalDSu:  requested number of processors reduced to:   7 ShMem   1 Linda.
 CalDSu:  requested number of processors reduced to:   7 ShMem   1 Linda.
 CalDSu:  requested number of processors reduced to:   7 ShMem   1 Linda.
 CalDSu:  requested number of processors reduced to:   7 ShMem   1 Linda.
     82 vectors produced by pass 14 Test12= 3.71D-14 1.00D-09 XBig12= 4.37D-15 2.58D-09.
 CalDSu:  requested number of processors reduced to:   7 ShMem   1 Linda.
 CalDSu:  requested number of processors reduced to:   7 ShMem   1 Linda.
 CalDSu:  requested number of processors reduced to:   7 ShMem   1 Linda.
     71 vectors produced by pass 15 Test12= 3.71D-14 1.00D-09 XBig12= 2.96D-15 1.93D-09.
 CalDSu:  requested number of processors reduced to:   7 ShMem   1 Linda.
 CalDSu:  requested number of processors reduced to:   7 ShMem   1 Linda.
 CalDSu:  requested number of processors reduced to:   7 ShMem   1 Linda.
     37 vectors produced by pass 16 Test12= 3.71D-14 1.00D-09 XBig12= 1.78D-15 1.63D-09.
 CalDSu:  requested number of processors reduced to:   7 ShMem   1 Linda.
      9 vectors produced by pass 17 Test12= 3.71D-14 1.00D-09 XBig12= 1.02D-15 1.15D-09.
      9 vectors produced by pass 18 Test12= 3.71D-14 1.00D-09 XBig12= 1.90D-15 1.76D-09.
      6 vectors produced by pass 19 Test12= 3.71D-14 1.00D-09 XBig12= 1.21D-15 1.33D-09.
      6 vectors produced by pass 20 Test12= 3.71D-14 1.00D-09 XBig12= 1.05D-15 1.23D-09.
      6 vectors produced by pass 21 Test12= 3.71D-14 1.00D-09 XBig12= 1.16D-15 1.36D-09.
      6 vectors produced by pass 22 Test12= 3.71D-14 1.00D-09 XBig12= 1.57D-15 1.34D-09.
      5 vectors produced by pass 23 Test12= 3.71D-14 1.00D-09 XBig12= 1.15D-15 1.25D-09.
      5 vectors produced by pass 24 Test12= 3.71D-14 1.00D-09 XBig12= 2.88D-15 1.82D-09.
      5 vectors produced by pass 25 Test12= 3.71D-14 1.00D-09 XBig12= 1.46D-15 1.59D-09.
      5 vectors produced by pass 26 Test12= 3.71D-14 1.00D-09 XBig12= 2.00D-15 1.96D-09.
      5 vectors produced by pass 27 Test12= 3.71D-14 1.00D-09 XBig12= 1.26D-15 1.29D-09.
      5 vectors produced by pass 28 Test12= 3.71D-14 1.00D-09 XBig12= 2.23D-15 2.03D-09.
      5 vectors produced by pass 29 Test12= 3.71D-14 1.00D-09 XBig12= 1.23D-15 1.20D-09.
      5 vectors produced by pass 30 Test12= 3.71D-14 1.00D-09 XBig12= 1.33D-15 1.30D-09.
      5 vectors produced by pass 31 Test12= 3.71D-14 1.00D-09 XBig12= 1.86D-15 1.52D-09.
      3 vectors produced by pass 32 Test12= 3.71D-14 1.00D-09 XBig12= 9.71D-16 1.21D-09.
      3 vectors produced by pass 33 Test12= 3.71D-14 1.00D-09 XBig12= 1.86D-15 1.55D-09.
      1 vectors produced by pass 34 Test12= 3.71D-14 1.00D-09 XBig12= 7.26D-16 1.10D-09.
 InvSVY:  IOpt=1 It=  1 EMax= 1.50D-15
 Solved reduced A of dimension  2643 with   180 vectors.
 End of Minotr F.D. properties file   721 does not exist.
 End of Minotr F.D. properties file   722 does not exist.
 End of Minotr F.D. properties file   788 does not exist.
 Leave Link 1002 at Wed May  8 11:23:03 2024, MaxMem=    33554432 cpu:     25378.2
 (Enter /hits/basement/its/doserbd/software/gaussian/g09d1/g09/l601.exe)
 Copying SCF densities to generalized density rwf, IOpCl= 0 IROHF=0.

 **********************************************************************

            Population analysis using the SCF density.

 **********************************************************************

 Orbital symmetries:
       Occupied  (A) (A) (A) (A) (A) (A) (A) (A) (A) (A) (A) (A)
                 (A) (A) (A) (A) (A) (A) (A) (A) (A) (A) (A) (A)
                 (A) (A) (A) (A) (A) (A) (A) (A) (A) (A) (A) (A)
                 (A) (A) (A) (A) (A) (A) (A) (A) (A) (A) (A) (A)
                 (A) (A) (A) (A) (A) (A) (A) (A) (A) (A) (A) (A)
                 (A) (A) (A) (A) (A) (A) (A) (A) (A) (A) (A) (A)
                 (A) (A) (A) (A) (A) (A) (A) (A) (A) (A) (A) (A)
                 (A) (A) (A) (A) (A) (A) (A) (A) (A) (A) (A) (A)
                 (A) (A) (A) (A) (A) (A) (A) (A) (A) (A) (A) (A)
                 (A) (A) (A) (A) (A)
       Virtual   (A) (A) (A) (A) (A) (A) (A) (A) (A) (A) (A) (A)
                 (A) (A) (A) (A) (A) (A) (A) (A) (A) (A) (A) (A)
                 (A) (A) (A) (A) (A) (A) (A) (A) (A) (A) (A) (A)
                 (A) (A) (A) (A) (A) (A) (A) (A) (A) (A) (A) (A)
                 (A) (A) (A) (A) (A) (A) (A) (A) (A) (A) (A) (A)
                 (A) (A) (A) (A) (A) (A) (A) (A) (A) (A) (A) (A)
                 (A) (A) (A) (A) (A) (A) (A) (A) (A) (A) (A) (A)
                 (A) (A) (A) (A) (A) (A) (A) (A) (A) (A) (A) (A)
                 (A) (A) (A) (A) (A) (A) (A) (A) (A) (A) (A) (A)
                 (A) (A) (A) (A) (A) (A) (A) (A) (A) (A) (A) (A)
                 (A) (A) (A) (A) (A) (A) (A) (A) (A) (A) (A) (A)
[...]
 7,-0.00000459,0.00000609,0.00000057,0.00000290,0.00000442,-0.00000012,
 -0.00000983,0.00000998,-0.00000122,0.00000761,0.00000440,0.00000546,-0
 .00000329,0.00000391,-0.00000139,-0.00000173,-0.00000207,-0.00000070,-
 0.00000308,-0.00000147,-0.00000181,0.00029569,0.00003863,-0.00034703,-
 0.00011954,-0.00008261,0.00020073,-0.00052299,-0.00014708,0.00015622,0
 .00010432,0.00004477,0.00002739,0.00006036,-0.00043642,-0.00113549,0.0
 0006576,0.00009182,-0.00005456,-0.00047362,-0.00005121,0.00011358,-0.0
 0000566,-0.00000859,0.00003582,0.00000670,0.00001468,-0.00001378,0.000
 13666,-0.00005668,-0.00012152,-0.00001633,-0.00003980,0.00001669,0.000
 00951,0.00000240,0.00000531,-0.00001134,0.00000825,0.00001562,-0.00000
 922,-0.00000126,-0.00000055,-0.00001316,-0.00001400,-0.00000488,-0.000
 00367,-0.00000400,0.00000067,0.00000389,0.00000915,0.00001042,-0.00000
 864,-0.00000751,0.00000655,-0.00004662,-0.00002805,-0.00003601,0.00000
 112,0.00001095,0.00000262,-0.00120547,-0.00194814,0.00589192,0.0004878
 0,0.00097546,-0.00052234,-0.03233551,0.01088924,-0.00927034,0.00050588
 ,0.00000417,0.00013616,-0.21583098,0.12634545,-0.03283148,0.24584127,0
 .00000212,-0.00000026,0.00000045,-0.00000044,-0.00000021,-0.00000029,0
 .00000008,0.00000046,0.00000018,-0.00000030,-0.00000057,-0.00000009,-0
 .00001345,-0.00000256,0.00000806,0.00000560,0.00000294,-0.00000561,0.0
 0001167,0.00000438,-0.00000493,-0.00000382,-0.00000239,0.00000060,-0.0
 0000278,-0.00000001,-0.00000355,0.00000017,-0.00000036,0.00000126,0.00
 000248,-0.00000039,-0.00000070,-0.00000018,-0.00000113,0.00000061,0.00
 000053,0.00000086,-0.00000024,-0.00000076,-0.00000021,0.00000055,-0.00
 002262,-0.00000435,-0.00000386,0.00001102,0.00000432,0.00000476,0.0000
 1784,0.00001645,0.00000410,0.00000063,-0.00000484,-0.00000167,-0.00000
 786,-0.00000313,0.00001190,0.00000048,0.00000093,0.00000008,-0.0000186
 3,-0.00000244,0.00000076,-0.00000279,-0.00000161,-0.00001364,-0.000007
 52,-0.00000168,0.00000647,0.00000696,0.00000044,0.00000063,0.00000483,
 0.00000024,-0.00000032,0.00000009,0.00000023,0.00000206,-0.00000218,-0
 .00000451,-0.00000276,-0.00000015,0.00001241,-0.00000175,-0.00000170,-
 0.00000045,0.00000002,0.00000305,-0.00000194,0.00000191,0.00000552,-0.
 00000198,0.00000148,0.00000132,-0.00000992,-0.00006231,-0.00000443,-0.
 00000035,0.00002397,-0.00005164,0.00000931,0.00003930,-0.00002112,-0.0
 0001899,-0.00000979,0.00004086,-0.00045447,-0.00095602,0.00006974,0.00
 007423,-0.00001691,-0.00025208,-0.00004931,0.00004468,0.00000458,-0.00
 004038,0.00000921,0.00000639,-0.00000530,-0.00000549,0.00004534,-0.000
 06326,-0.00004698,0.00000081,-0.00000089,0.00000446,0.00000232,-0.0000
 0257,-0.00000384,-0.00000701,0.00000644,0.00000904,-0.00000036,-0.0000
 0084,0.00000017,-0.00000362,-0.00000113,-0.00000249,0.00000179,-0.0000
 0049,-0.00000029,0.00000022,0.00000118,0.00000879,-0.00000115,-0.00000
 105,-0.00000030,-0.00001244,-0.00000422,-0.00001568,0.00000069,-0.0000
 0372,0.00000559,-0.00249652,-0.00275344,0.00323142,0.00090996,0.001434
 98,-0.00050497,-0.02737804,0.01217439,-0.00538471,0.00074348,0.0009636
 5,-0.00011998,0.13478666,-0.15215111,0.02749237,-0.13560999,0.16198351
 ,-0.00000185,0.00000028,-0.00000036,0.00000038,0.00000037,-0.00000014,
 -0.00000020,-0.00000025,0.00000009,0.00000013,0.00000020,0.00000010,0.
 00000747,-0.00000038,0.,-0.00000409,-0.00000022,-0.00000099,-0.0000066
 7,-0.00000171,0.00000056,0.00000214,0.00000105,0.00000060,0.00000185,-
 0.00000069,0.00000182,0.00000030,-0.00000065,-0.00000096,-0.00000061,-
 0.00000015,0.00000127,-0.00000040,0.00000116,0.00000031,-0.00000002,-0
 .00000049,0.00000038,-0.00000012,0.00000038,-0.00000124,0.00002302,-0.
 00000292,0.00001807,-0.00001006,0.00000441,-0.00001472,-0.00002197,0.0
 0000208,-0.00001081,0.00000771,-0.00000175,0.00000420,0.00000420,0.000
 00921,0.00000494,0.00000089,0.00000066,0.00000158,0.00000015,0.0000017
 6,-0.00000166,0.00000156,-0.00000443,-0.00000083,-0.00000045,-0.000001
 71,-0.00000052,-0.00000001,-0.00000243,0.00000127,-0.00000066,0.000001
 33,0.00000058,0.00000033,0.00000084,-0.00000053,-0.00000109,0.00000212
 ,-0.00000131,0.00000147,0.00000016,0.00000076,-0.00000067,0.00000065,0
 .00000033,-0.00000106,-0.00000033,-0.00000063,-0.00000050,0.,-0.000000
 16,0.00003584,-0.00002106,-0.00000304,-0.00003560,-0.00000228,-0.00000
 167,-0.00011087,-0.00007519,-0.00001843,0.00004014,0.00002147,0.000014
 37,-0.00016979,0.00041859,0.00045263,0.00000063,-0.00001521,0.00000763
 ,0.00013212,0.00010351,-0.00001128,0.00000149,-0.00002533,0.00003570,-
 0.00003389,0.00000567,-0.00001905,-0.00000636,-0.00000131,0.00002652,0
 .00001534,0.00000279,-0.00001125,-0.00000526,0.00000483,0.00000256,0.0
 0000020,-0.00000119,0.00000065,-0.00000051,0.00000243,0.00000105,0.000
 00250,0.00000032,-0.00000241,-0.00000131,0.00000152,0.00000063,-0.0000
 0110,0.00000069,-0.00000560,0.00000149,0.00000466,0.00000074,0.0000215
 0,-0.00000604,0.00000814,-0.00000717,0.00000862,0.00000283,-0.00043119
 ,0.00188796,-0.00247539,-0.00173806,-0.00165540,0.00039429,0.00702578,
 -0.00178976,0.00146385,0.00024976,-0.00004340,0.00039924,-0.03496882,0
 .02565483,-0.05964777,0.03805293,-0.02878069,0.05681834,0.00000515,-0.
 00000086,0.00000080,-0.00000102,-0.00000017,-0.00000012,0.00000020,0.0
 0000074,0.00000038,-0.00000006,-0.00000099,-0.00000031,-0.00003089,-0.
 00000368,0.00001868,0.00001315,0.00000435,-0.00001302,0.00002826,0.000
 00596,-0.00001319,-0.00000899,-0.00000318,0.00000188,-0.00000576,0.000
 00452,-0.00000287,0.00000049,0.00000005,0.00000271,0.00000638,-0.00000
 051,-0.00000341,-0.00000080,-0.00000337,0.00000310,0.00000171,0.000001
 93,-0.00000044,-0.00000260,-0.00000077,0.00000074,-0.00006877,0.000001
 91,-0.00003061,0.00003318,-0.00000614,0.00002245,0.00006836,-0.0000008
 1,0.00001354,-0.00001621,0.00000470,0.00000062,-0.00001542,-0.00002719
 ,0.00000332,-0.00000607,0.00000006,-0.00000638,-0.00001172,-0.00000594
 ,0.00001180,-0.00000475,0.00001453,-0.00000777,-0.00000176,0.00000178,
 0.00000120,0.00000204,0.00000993,-0.00000401,0.00000685,-0.00000495,-0
 .00000090,-0.00000388,-0.00000227,0.00000110,0.00000568,-0.00000921,-0
 .00000107,-0.00000463,0.00000523,-0.00000507,0.00000117,-0.00000282,0.
 00000066,0.00000261,0.00000042,0.00000163,0.00000543,-0.00000055,0.000
 00205,-0.00017714,-0.00002860,0.00020415,0.00006060,0.00005750,-0.0001
 4708,0.00025363,0.00025567,-0.00019773,-0.00019883,-0.00008401,0.00000
 612,0.00038922,-0.00013505,-0.00038885,0.00022021,0.00017130,-0.000127
 10,0.00005014,-0.00003457,-0.00006928,-0.00002675,0.00003405,0.0000248
 5,-0.00000820,-0.00004371,-0.00003160,-0.00004799,0.00002085,-0.000000
 61,0.00000132,0.00000302,0.00000274,-0.00000331,-0.00000338,-0.0000074
 9,-0.00000456,0.00000679,-0.00000222,0.00000292,-0.00000138,-0.0000004
 4,0.00000437,0.00000053,0.00000037,0.00000238,0.00000070,-0.00000187,-
 0.00000873,0.00000424,-0.00000412,0.00000272,0.00000245,-0.00000327,0.
 00002955,0.00000880,0.00001412,-0.00000141,-0.00000083,-0.00000308,0.0
 0072324,-0.00385810,0.00439482,-0.00212538,0.00201507,-0.00316551,-0.0
 0748538,-0.01747195,0.03293873,-0.00504512,-0.00126929,-0.00005519,-0.
 05126635,0.00241876,-0.00480414,0.00213948,0.00870105,-0.02610928,0.06
 160581,-0.00000086,0.00000019,-0.00000034,0.00000020,0.00000037,0.0000
 0050,-0.00000027,-0.00000034,0.00000001,0.00000031,0.00000042,-0.00000
 017,0.00000725,0.00000301,-0.00000567,-0.00000282,-0.00000350,0.000004
 09,-0.00000705,-0.00000626,0.00000331,0.00000305,0.00000315,-0.0000000
 6,0.00000115,0.00000193,0.00000223,-0.00000031,-0.00000005,-0.00000102
 ,-0.00000222,0.00000020,0.00000145,0.00000071,0.00000135,0.00000032,-0
 .00000070,-0.00000071,0.00000008,-0.00000009,0.00000043,-0.00000126,0.
 00001857,0.00000699,0.00000237,-0.00000897,-0.00000751,-0.00000363,-0.
 00001621,-0.00001471,-0.00000437,0.00000080,0.00000377,0.00000070,0.00
 000666,0.00001119,0.00000317,-0.00000016,0.00000253,0.00000105,0.00001
 352,0.00000288,-0.00001131,0.00000114,0.00000360,0.00000676,0.00000076
 ,-0.00000011,-0.00000197,-0.00000399,0.00000711,0.00000262,-0.00000450
 ,-0.00000198,-0.00000011,0.00000200,-0.00000065,-0.00000138,-0.0000001
 2,0.00000115,0.00000353,-0.00000128,-0.00001055,0.00000445,0.00000263,
 -0.00000023,-0.00000102,0.,0.00000177,-0.00000155,-0.00000517,0.000001
 87,-0.00000111,0.00000044,0.00000751,0.00004551,-0.00001863,0.00000113
 ,-0.00002102,0.00011302,0.00001575,-0.00012174,-0.00003395,0.00003740,
 -0.00000542,-0.00008519,-0.00017338,0.00026804,0.00004054,0.00003859,-
 0.00010973,-0.00001887,0.00002975,0.00002834,-0.00000383,-0.00001930,0
 .00006765,-0.00005848,-0.00000629,-0.00005856,0.00000683,-0.00002211,-
 0.00003490,0.00000630,-0.00000336,-0.00000528,-0.00000642,0.00000413,0
 .00000084,-0.00000185,-0.00000026,-0.00000017,-0.00000066,0.00000230,0
 .00000169,-0.00000126,-0.00000186,-0.00000151,-0.00000051,0.00000134,-
 0.00000041,-0.00000036,0.00000509,-0.00000936,0.00000032,0.00000309,0.
 00000069,0.00002682,-0.00000136,0.00001211,-0.00000472,0.00000984,0.00
 000078,0.00072449,0.00062236,0.00206550,0.00095918,-0.00029595,-0.0011
 9160,-0.00478750,-0.01294410,0.02119210,-0.00328167,-0.00032582,-0.000
 15984,-0.00206043,-0.08376948,0.08555824,-0.00096506,-0.00640856,0.018
 94230,0.00886384,0.09312962,0.00000236,-0.00000053,0.00000033,-0.00000
 035,0.00000020,0.00000030,-0.00000011,0.00000021,0.00000031,0.00000021
 ,-0.00000030,-0.00000030,-0.00001358,0.00000002,0.00000776,0.00000592,
 0.00000009,-0.00000559,0.00001196,-0.00000121,-0.00000568,-0.00000297,
 0.00000052,0.00000141,-0.00000286,0.00000421,0.00000063,-0.00000010,0.
 00000016,0.00000081,0.00000156,-0.00000002,-0.00000122,0.00000007,-0.0
 0000092,0.00000207,0.00000040,0.00000053,-0.00000018,-0.00000161,-0.00
 000019,-0.00000052,-0.00002513,0.00000565,-0.00001374,0.00001279,-0.00
 000914,0.00000847,0.00002697,-0.00001572,0.00000475,-0.00001123,0.0000
 0702,0.00000066,-0.00000153,-0.00000286,0.00000669,-0.00000219,0.00000
 017,-0.00000333,0.00000826,0.00000005,-0.00000325,0.00000244,0.0000075
 5,0.00000554,0.00000140,0.00000276,-0.00000214,-0.00000334,0.00000967,
 0.00000137,-0.00000084,-0.00000349,-0.00000094,-0.00000165,-0.00000248
 ,-0.00000089,0.00000473,-0.00000287,0.00000040,-0.00000338,-0.00000685
 ,0.00000022,0.00000235,-0.00000159,0.00000029,-0.00000023,0.00000179,-
 0.00000051,-0.00000136,0.00000166,-0.00000003,-0.00008763,0.00000463,0
 .00004929,0.00005120,-0.00000223,-0.00003106,-0.00003916,0.00004615,-0
 .00002378,-0.00004754,-0.00004125,0.00003407,0.00017541,0.00008568,-0.
 00026785,0.00007471,0.00002017,0.00007057,0.00001380,-0.00001901,-0.00
 000415,0.00000640,-0.00000970,0.00000352,-0.00001001,-0.00000196,0.000
 00345,-0.00002556,-0.00000853,0.00000467,0.00000554,0.00000359,-0.0000
 0151,-0.00000380,-0.00000086,-0.00000265,0.00000043,0.00000218,-0.0000
 0236,0.00000207,0.00000040,0.00000126,0.00000424,0.00000261,0.00000077
 ,0.00000201,0.00000168,-0.00000032,-0.00000176,0.00000017,0.00000109,0
 .00000118,0.00000183,-0.00000207,0.00000907,0.00000881,0.00000247,0.00
 000113,-0.00000472,0.00000105,-0.00199230,0.00116353,-0.00083140,-0.00
 265567,-0.00196132,-0.00067879,0.00208604,0.00323727,-0.00105246,0.000
 05813,-0.00137820,0.00030477,0.00646762,0.09124660,-0.29961245,0.00046
 832,-0.00084587,-0.00151910,-0.00386729,-0.09987080,0.32311547,-0.0000
 0282,0.00000052,-0.00000002,0.00000044,-0.00000035,-0.00000041,0.00000
 007,-0.00000010,-0.00000031,-0.00000061,0.00000029,0.00000026,0.000016
 44,0.00000005,-0.00001170,-0.00000679,0.00000035,0.00000855,-0.0000161
 6,0.00000248,0.00000922,0.00000406,-0.00000123,-0.00000198,0.00000253,
 -0.00000857,-0.00000439,-0.00000005,-0.00000023,-0.00000110,-0.0000026
 4,-0.00000012,0.00000311,0.00000051,0.00000145,-0.00000403,-0.00000110
 ,-0.00000090,-0.00000011,0.00000264,0.00000042,0.00000114,0.00004285,-
 0.00001299,0.00003327,-0.00002094,0.00001904,-0.00001844,-0.00006028,0
 .00005224,-0.00000943,0.00002297,-0.00002030,-0.00000697,-0.00000229,0
 .00000522,0.00002797,0.00000792,-0.00000117,0.00001133,-0.00003345,-0.
 00000190,-0.00001624,-0.00000733,-0.00001656,-0.00002154,-0.00001410,-
 0.00000435,0.00001504,0.00001322,-0.00000458,0.00001052,0.00000243,0.0
 0000339,0.00000004,0.00000484,0.00000063,0.00000310,-0.00001111,0.0000
 0091,-0.00000277,0.00000452,0.00001911,0.00000268,-0.00000385,0.000001
 81,-0.00000146,0.00000364,-0.00000394,0.00000199,0.00000418,-0.0000037
 2,0.00000061,0.00021907,0.00005949,-0.00041189,-0.00008681,-0.00005857
 ,0.00019612,-0.00066773,-0.00022573,0.00023451,0.00006791,0.00001335,0
 .00000574,-0.00058594,0.00126010,0.00047947,0.00000908,-0.00005500,0.0
 0000517,0.00009870,0.00015514,0.00000382,-0.00005453,0.00007287,0.0000
 3939,-0.00001249,-0.00000967,-0.00002233,0.00003136,0.00005976,-0.0000
 2311,-0.00001611,-0.00002402,0.00001384,0.00000364,0.00000514,0.000006
 90,0.00000047,-0.00000286,-0.00000477,-0.00000617,-0.00000249,-0.00000
 134,-0.00001094,-0.00000408,0.00000108,-0.00000409,-0.00000222,0.00000
 056,0.00000668,-0.00000276,-0.00000563,-0.00000343,-0.00000439,0.00000
 379,-0.00001850,-0.00001535,-0.00000194,0.,0.00001463,-0.00000317,0.00
 195218,-0.00558689,0.00375890,0.00066422,0.00185482,-0.00180868,-0.013
 48277,-0.03127198,-0.02175939,0.00004011,-0.00032524,-0.00025907,-0.04
 940034,0.00704015,0.00312706,0.00096424,0.02053532,0.01803836,0.000916
 20,0.00058359,-0.00070551,0.05942626,-0.00000573,0.00000096,-0.0000004
 8,0.00000100,-0.00000044,-0.00000008,0.00000012,-0.00000063,-0.0000007
 7,-0.00000052,0.00000106,0.00000043,0.00003764,0.00000416,-0.00002842,
 -0.00001489,-0.00000379,0.00002109,-0.00003490,-0.00000199,0.00001963,
 0.00000988,0.00000119,-0.00000395,0.00000638,-0.00001007,-0.00000207,-
 0.00000053,0.00000055,-0.00000284,-0.00000707,0.00000075,0.00000456,0.
 00000128,0.00000312,-0.00000651,-0.00000220,-0.00000221,-0.00000011,0.
 00000464,0.00000050,0.00000141,0.00007882,-0.00000874,0.00003769,-0.00
 003890,0.00001536,-0.00002270,-0.00008673,0.00003267,-0.00001102,0.000
 02617,-0.00001780,-0.00000853,0.00001049,0.00001537,0.00000684,0.00000
 772,-0.00000094,0.00001158,-0.00000973,0.00000242,-0.00002298,-0.00000
 217,-0.00001871,0.00000022,-0.00000511,-0.00000395,0.00000519,0.000004
 37,-0.00001251,0.00000819,-0.00000424,0.00000560,-0.00000019,0.0000051
 7,0.00000334,0.00000148,-0.00000947,0.00000849,0.00000097,0.00000598,0
 .00000604,0.00000632,-0.00000275,0.00000357,-0.00000207,0.00000002,-0.
 00000245,0.00000013,-0.00000311,-0.00000180,-0.00000199,0.00028663,0.0
 0006082,-0.00035376,-0.00010362,-0.00006983,0.00021323,-0.00042001,-0.
 00013814,0.00017258,0.00011894,0.00004364,0.00000024,-0.00025486,0.000
 42761,0.00015817,0.00001477,-0.00003890,-0.00001054,0.00002478,0.00006
 868,0.00000889,-0.00002701,0.00005516,0.00001468,-0.00000550,-0.000002
 69,0.00000389,0.00003868,0.00005154,-0.00002054,-0.00002043,-0.0000219
 1,0.00001636,0.00000760,0.00000346,0.00000826,0.00000463,-0.00000629,-
 0.00000265,-0.00000716,-0.00000197,-0.00000253,-0.00001429,-0.00000689
 ,0.00000202,-0.00000539,-0.00000420,0.00000020,0.00000548,0.00000158,-
 0.00000636,-0.00000457,-0.00000781,0.00000477,-0.00002830,-0.00001896,
 -0.00000416,0.00000416,0.00001313,-0.00000945,0.00263629,-0.00210255,0
 .00254953,-0.00040467,0.00040113,-0.00193095,-0.01302361,-0.01363079,-
 0.00849690,-0.00032810,-0.00132590,-0.00080425,0.00431555,-0.20478380,
 -0.12935744,0.00092476,-0.01468633,-0.01465188,0.00038357,0.01005667,0
 .00832504,0.00591001,0.22564440,-0.00000121,0.00000023,-0.00000008,0.0
 0000011,-0.00000033,-0.00000082,0.00000031,0.00000013,-0.00000017,-0.0
 0000041,-0.00000019,0.00000039,0.00000306,-0.00000387,0.00000206,-0.00
 000210,0.00000416,-0.00000187,-0.00000164,0.00000786,-0.00000028,-0.00
 000114,-0.00000356,-0.00000045,0.00000212,-0.00000491,-0.00000140,0.00
 000046,-0.00000024,0.00000030,0.00000203,-0.00000017,-0.00000016,-0.00
 000116,-0.00000082,-0.00000161,0.00000070,0.00000045,0.00000017,0.0000
 0118,-0.00000031,0.00000132,0.00000061,-0.00001272,0.00000966,-0.00000
 002,0.00001514,-0.00000647,-0.00000100,0.00002650,-0.00000112,0.000009
 13,-0.00001009,0.00000158,-0.00000627,-0.00000791,-0.00000998,-0.00000
 062,-0.00000164,0.00000117,-0.00002080,-0.00000417,0.00001469,-0.00000
 365,-0.00000629,-0.00001211,-0.00000155,-0.00000338,0.00000261,0.00000
 790,-0.00001099,-0.00000203,0.00000611,0.00000319,0.00000107,-0.000000
 81,0.00000250,0.00000173,-0.00000355,0.00000006,-0.00000407,0.00000345
 ,0.00001522,-0.00000397,-0.00000401,0.00000130,0.00000057,0.00000078,-
 0.00000300,0.00000183,0.00000606,-0.00000298,0.00000121,0.00003788,-0.
 00004458,0.00001811,-0.00003202,0.00002441,-0.00002528,0.00001644,0.00
 009332,0.00004038,-0.00001990,-0.00004740,-0.00001736,0.00022239,-0.00
 043814,-0.00037969,0.00003957,0.00006624,-0.00003875,-0.00003778,-0.00
 003766,-0.00001554,-0.00000177,0.00002535,-0.00001411,0.00001800,-0.00
 001006,0.00001678,0.00000922,0.00000820,-0.00000586,-0.00000857,-0.000
 00806,0.00000794,0.00000532,-0.00000086,-0.00000238,-0.00000424,0.0000
 0159,0.00000051,-0.00000292,-0.00000208,-0.00000265,-0.00000554,-0.000
 00232,0.00000020,-0.00000194,-0.00000224,-0.00000021,-0.00000100,0.000
 00014,-0.00000296,0.00000041,-0.00000161,0.00000115,-0.00000713,-0.000
 00713,0.00000516,0.00000028,0.00000291,-0.00000451,0.00059713,-0.00045
 022,-0.00062757,-0.00026782,0.00054394,0.00093558,-0.00007769,0.007518
 94,0.00855742,-0.00007539,0.00025092,0.00003229,-0.00004607,-0.1309310
 3,-0.16420807,-0.00081791,0.00588085,0.00408385,0.00140277,-0.02659511
 ,-0.01956619,-0.00093579,0.14416251,0.17121799\\-0.00000080,-0.0000050
 6,-0.00000352,-0.00000072,-0.00000605,-0.00000394,-0.00000010,-0.00000
 598,-0.00000241,-0.00000140,-0.00000466,-0.00000463,-0.00000022,-0.000
 00357,-0.00000208,-0.00000053,-0.00000161,-0.00000170,-0.00000074,-0.0
 0000345,-0.00000182,-0.00000002,-0.00000428,-0.00000285,-0.00000054,-0
 .00000178,-0.00000116,-0.00000078,0.,-0.00000144,0.00000085,-0.0000016
 3,0.00000106,0.00000112,-0.00000019,0.00000179,0.00000114,-0.00000148,
 0.00000145,0.00000164,-0.00000294,0.00000158,0.00000009,-0.00000255,0.
 00000010,-0.00000182,-0.00000406,-0.00000329,-0.00000078,0.00000102,-0
 .00000180,-0.00000031,0.00000094,-0.00000020,-0.00000146,-0.00000030,-
 0.00000171,-0.00000011,-0.00000166,-0.00000104,-0.00000182,0.00000055,
 -0.00000323,-0.00000197,0.00000078,-0.00000307,-0.00000227,0.00000233,
 -0.00000307,-0.00000366,-0.00000142,-0.00000483,-0.00000054,0.00000152
 ,-0.00000450,-0.00000224,-0.00000239,-0.00000464,-0.00000397,0.0000001
 5,-0.00000617,-0.00000445,-0.00000121,-0.00000969,-0.00000563,-0.00000
 116,-0.00001019,-0.00000438,-0.00000305,-0.00000869,-0.00000449,-0.000
 00154,-0.00000856,0.00000030,0.00000141,0.00000025,0.00000019,0.000002
 79,0.00000128,-0.00000003,0.00000112,0.00000109,0.00000036,0.00000040,
 -0.00000020,0.00000060,0.00000243,0.00000220,0.00000024,0.00000389,0.0
 0000260,0.00000165,0.00000155,0.00000391,0.00000224,0.00000262,0.00000
 487,0.00000202,0.00000010,0.00000344,0.00000319,0.00000048,0.00000518,
 0.00000291,-0.00000145,0.00000475,0.00000259,-0.00000251,0.00000357,0.
 00000402,-0.00000183,0.00000551,0.00000380,-0.00000371,0.00000520,0.00
 000371,-0.00000046,0.00000635,0.00000435,-0.00000114,0.00000731,0.0000
 0365,0.00000181,0.00000702,0.00000395,0.00000255,0.00000798,0.00000227
 ,0.00000153,0.00000600,0.00000273,0.00000381,0.00000626,-0.00000005,0.
 00000308,0.00000145,-0.00000036,0.00000162,0.00000012,-0.00000038,0.00
 000496,0.00000163,0.00000016,0.00000604,0.00000267,-0.00000067,0.00000
 596,0.00000117,-0.00000035,0.00000652,0.00000230,-0.00000061,0.0000044
 8,0.00000041,-0.00000159,0.00000669,-0.00000006\\\@


 ABSOLUTISM, OBSOLETISM -- IF IT WORKS, IT'S OUT OF DATE

                          -- STAFFORD BEER
 Job cpu time:       0 days  9 hours  5 minutes 15.8 seconds.
 File lengths (MBytes):  RWF=   3958 Int=      0 D2E=      0 Chk=     17 Scr=      1
 Normal termination of Gaussian 09 at Wed May  8 12:40:35 2024.
