
                                 *****************
                                 * O   R   C   A *
                                 *****************

                                            #,                                       
                                            ###                                      
                                            ####                                     
                                            #####                                    
                                            ######                                   
                                           ########,                                 
                                     ,,################,,,,,                         
                               ,,#################################,,                 
                          ,,##########################################,,             
                       ,#########################################, ''#####,          
                    ,#############################################,,   '####,        
                  ,##################################################,,,,####,       
                ,###########''''           ''''###############################       
              ,#####''   ,,,,##########,,,,          '''####'''          '####       
            ,##' ,,,,###########################,,,                        '##       
           ' ,,###''''                  '''############,,,                           
         ,,##''                                '''############,,,,        ,,,,,,###''
      ,#''                                            '''#######################'''  
     '                                                          ''''####''''         
             ,#######,   #######,   ,#######,      ##                                
            ,#'     '#,  ##    ##  ,#'     '#,    #''#        ######   ,####,        
            ##       ##  ##   ,#'  ##            #'  '#       #        #'  '#        
            ##       ##  #######   ##           ,######,      #####,   #    #        
            '#,     ,#'  ##    ##  '#,     ,#' ,#      #,         ##   #,  ,#        
             '#######'   ##     ##  '#######'  #'      '#     #####' # '####'        



                  #######################################################
                  #                        -***-                        #
                  #          Department of theory and spectroscopy      #
                  #    Directorship and core code : Frank Neese         #
                  #        Max Planck Institute fuer Kohlenforschung    #
                  #                Kaiser Wilhelm Platz 1               #
                  #                 D-45470 Muelheim/Ruhr               #
                  #                      Germany                        #
                  #                                                     #
                  #                  All rights reserved                #
                  #                        -***-                        #
                  #######################################################


                         Program Version 5.0.4 -  RELEASE  -


 With contributions from (in alphabetic order):
   Daniel Aravena         : Magnetic Suceptibility
   Michael Atanasov       : Ab Initio Ligand Field Theory (pilot matlab implementation)
   Alexander A. Auer      : GIAO ZORA, VPT2 properties, NMR spectrum
   Ute Becker             : Parallelization
   Giovanni Bistoni       : ED, misc. LED, open-shell LED, HFLD
   Martin Brehm           : Molecular dynamics
   Dmytro Bykov           : SCF Hessian
   Vijay G. Chilkuri      : MRCI spin determinant printing, contributions to CSF-ICE
   Dipayan Datta          : RHF DLPNO-CCSD density
   Achintya Kumar Dutta   : EOM-CC, STEOM-CC
   Dmitry Ganyushin       : Spin-Orbit,Spin-Spin,Magnetic field MRCI
   Miquel Garcia          : C-PCM and meta-GGA Hessian, CC/C-PCM, Gaussian charge scheme
   Yang Guo               : DLPNO-NEVPT2, F12-NEVPT2, CIM, IAO-localization
   Andreas Hansen         : Spin unrestricted coupled pair/coupled cluster methods
   Benjamin Helmich-Paris : MC-RPA, TRAH-SCF, COSX integrals
   Lee Huntington         : MR-EOM, pCC
   Robert Izsak           : Overlap fitted RIJCOSX, COSX-SCS-MP3, EOM
   Marcus Kettner         : VPT2
   Christian Kollmar      : KDIIS, OOCD, Brueckner-CCSD(T), CCSD density, CASPT2, CASPT2-K
   Simone Kossmann        : Meta GGA functionals, TD-DFT gradient, OOMP2, MP2 Hessian
   Martin Krupicka        : Initial AUTO-CI
   Lucas Lang             : DCDCAS
   Marvin Lechner         : AUTO-CI (C++ implementation), FIC-MRCC
   Dagmar Lenk            : GEPOL surface, SMD
   Dimitrios Liakos       : Extrapolation schemes; Compound Job, initial MDCI parallelization
   Dimitrios Manganas     : Further ROCIS development; embedding schemes
   Dimitrios Pantazis     : SARC Basis sets
   Anastasios Papadopoulos: AUTO-CI, single reference methods and gradients
   Taras Petrenko         : DFT Hessian,TD-DFT gradient, ASA, ECA, R-Raman, ABS, FL, XAS/XES, NRVS
   Peter Pinski           : DLPNO-MP2, DLPNO-MP2 Gradient
   Christoph Reimann      : Effective Core Potentials
   Marius Retegan         : Local ZFS, SOC
   Christoph Riplinger    : Optimizer, TS searches, QM/MM, DLPNO-CCSD(T), (RO)-DLPNO pert. Triples
   Tobias Risthaus        : Range-separated hybrids, TD-DFT gradient, RPA, STAB
   Michael Roemelt        : Original ROCIS implementation
   Masaaki Saitow         : Open-shell DLPNO-CCSD energy and density
   Barbara Sandhoefer     : DKH picture change effects
   Avijit Sen             : IP-ROCIS
   Kantharuban Sivalingam : CASSCF convergence, NEVPT2, FIC-MRCI
   Bernardo de Souza      : ESD, SOC TD-DFT
   Georgi Stoychev        : AutoAux, RI-MP2 NMR, DLPNO-MP2 response
   Willem Van den Heuvel  : Paramagnetic NMR
   Boris Wezisla          : Elementary symmetry handling
   Frank Wennmohs         : Technical directorship


 We gratefully acknowledge several colleagues who have allowed us to
 interface, adapt or use parts of their codes:
   Stefan Grimme, W. Hujo, H. Kruse, P. Pracht,  : VdW corrections, initial TS optimization,
                  C. Bannwarth, S. Ehlert          DFT functionals, gCP, sTDA/sTD-DF
   Ed Valeev, F. Pavosevic, A. Kumar             : LibInt (2-el integral package), F12 methods
   Garnet Chan, S. Sharma, J. Yang, R. Olivares  : DMRG
   Ulf Ekstrom                                   : XCFun DFT Library
   Mihaly Kallay                                 : mrcc  (arbitrary order and MRCC methods)
   Jiri Pittner, Ondrej Demel                    : Mk-CCSD
   Frank Weinhold                                : gennbo (NPA and NBO analysis)
   Christopher J. Cramer and Donald G. Truhlar   : smd solvation model
   Lars Goerigk                                  : TD-DFT with DH, B97 family of functionals
   V. Asgeirsson, H. Jonsson                     : NEB implementation
   FAccTs GmbH                                   : IRC, NEB, NEB-TS, DLPNO-Multilevel, CI-OPT
                                                   MM, QMMM, 2- and 3-layer-ONIOM, Crystal-QMMM,
                                                   LR-CPCM, SF, NACMEs, symmetry and pop. for TD-DFT,
                                                   nearIR, NL-DFT gradient (VV10), updates on ESD,
                                                   ML-optimized integration grids
   S Lehtola, MJT Oliveira, MAL Marques          : LibXC Library
   Liviu Ungur et al                             : ANISO software


 Your calculation uses the libint2 library for the computation of 2-el integrals
 For citations please refer to: http://libint.valeyev.net

 Your ORCA version has been built with support for libXC version: 5.1.0
 For citations please refer to: https://tddft.org/programs/libxc/

 This ORCA versions uses:
   CBLAS   interface :  Fast vector & matrix operations
   LAPACKE interface :  Fast linear algebra routines
   SCALAPACK package :  Parallel linear algebra routines
   Shared memory     :  Shared parallel matrices
   BLAS/LAPACK       :  OpenBLAS 0.3.15  USE64BITINT DYNAMIC_ARCH NO_AFFINITY SkylakeX SINGLE_THREADED
        Core in use  :  SkylakeX
   Copyright (c) 2011-2014, The OpenBLAS Project




***************************************
The coordinates will be read from file: opt_cc-pVDZ.xyz
***************************************


================================================================================

----- Orbital basis set information -----
Your calculation utilizes the basis: cc-pVDZ 
       H, B-Ne : Obtained from the ccRepo (grant-hill.group.shef.ac.uk/ccrepo) Feb. 2017
                 T. H. Dunning, Jr., J. Chem. Phys. 90, 1007 (1989)
            He : Obtained from the ccRepo (grant-hill.group.shef.ac.uk/ccrepo) Feb. 2017
                 D. E. Woon, T. H. Dunning, Jr., J. Chem. Phys. 100, 2975 (1994)
  Li-Be, Na-Mg : Obtained from the ccRepo (grant-hill.group.shef.ac.uk/ccrepo) Feb. 2017
                 B. P. Prascher, D. E. Woon, K. A. Peterson, T. H. Dunning, Jr., A. K. Wilson, Theor. Chem. Acc. 128, 69 (2011)
         Al-Ar : Obtained from the ccRepo (grant-hill.group.shef.ac.uk/ccrepo) Feb. 2017
                 D. E. Woon, T. H. Dunning, Jr., J. Chem. Phys. 98, 1358 (1993)
            Ca : Obtained from the Peterson Research Group Website (tyr0.chem.wsu.edu/~kipeters) Feb. 2017
                 J. Koput, K. A. Peterson, J. Phys. Chem. 106, 9595 (2002)
         Sc-Zn : Obtained from the ccRepo (grant-hill.group.shef.ac.uk/ccrepo) Feb. 2017
                 N. B. Balabanov, K. A. Peterson, J. Chem. Phys. 123, 064107 (2005)
                 N. B. Balabanov, K. A. Peterson, J. Chem. Phys. 125, 074110 (2006)
         Ga-Kr : Obtained from the ccRepo (grant-hill.group.shef.ac.uk/ccrepo) Feb. 2017
                 A. K. Wilson, D. E. Woon, K. A. Peterson, T. H. Dunning, Jr., J. Chem. Phys. 110, 7667 (1999)

----- AuxJ basis set information -----
Your calculation utilizes the AutoAux generation procedure.
  G. L. Stoychev, A. A. Auer, F. Neese, J. Chem. Theory Comput. 13, 554 (2017)

----- AuxC basis set information -----
Your calculation utilizes the AutoAux generation procedure.
  G. L. Stoychev, A. A. Auer, F. Neese, J. Chem. Theory Comput. 13, 554 (2017)

----- AuxJK basis set information -----
Your calculation utilizes the AutoAux generation procedure.
  G. L. Stoychev, A. A. Auer, F. Neese, J. Chem. Theory Comput. 13, 554 (2017)

================================================================================
                                        WARNINGS
                       Please study these warnings very carefully!
================================================================================

WARNING: Old DensityContainer found on disk!
         Will remove this file - 
         If you want to keep old densities, please start your calculation with a different basename. 


WARNING: your system is open-shell and RHF/RKS was chosen
  ===> : WILL SWITCH to UHF/UKS


INFO   : the flag for use of the SHARK integral package has been found!

================================================================================
                                       INPUT FILE
================================================================================
NAME = cc-pVDZ_i.inp
|  1> ! B3LYP cc-pVDZ AUTOAUX
|  2> %pal nprocs 16 end
|  3> *XYZFile 0 2 opt_cc-pVDZ.xyz
|  4> %EPRNMR
|  5>         GTENSOR   TRUE
|  6>         NUCLEI    = ALL H {SHIFT, AISO, ADIP, AORB}
|  7>         ORI       GIAO
|  8> END
|  9> 
| 10>                          ****END OF INPUT****
================================================================================

                       ****************************
                       * Single Point Calculation *
                       ****************************

---------------------------------
CARTESIAN COORDINATES (ANGSTROEM)
---------------------------------
  C      3.991784   -0.048435    0.056346
  C      2.775712    0.001154    0.039648
  C     -2.904921    0.001529   -0.021694
  C      1.348481    0.036063    0.023781
  C      0.635152    1.290201    0.013521
  C     -0.786150    1.210014   -0.001501
  C     -1.471087   -0.006069   -0.006317
  C     -0.754959   -1.242857    0.003885
  C      0.640797   -1.177975    0.018518
  H     -1.371712    2.129541   -0.009530
  H      1.223674   -2.098813    0.026483
  C      1.310504    2.530996    0.018452
  H      2.403361    2.505271    0.030469
  C      0.640754    3.872473    0.008531
  H     -0.020275    3.959854   -0.878575
  H     -0.043331    3.961474    0.877793
  C      1.626405    5.048189    0.020362
  H      2.274910    4.965134    0.911543
  H      2.297355    4.964108   -0.853963
  C      0.933927    6.412245    0.010752
  H      0.280780    6.536667    0.891827
  H      0.303418    6.535595   -0.886820
  C     -1.517089   -2.551625   -0.001122
  H     -2.203424   -2.555125    0.866315
  H     -2.187900   -2.557491   -0.880574
  C     -0.686255   -3.837418    0.007984
  H     -0.014409   -3.856931   -0.869895
  H     -0.031140   -3.855437    0.898451
  C     -1.555636   -5.100694    0.001104
  H     -2.229939   -5.082944    0.877396
  H     -2.214140   -5.084251   -0.887149
  C     -0.737690   -6.394490    0.009386
  H     -0.094861   -6.456485    0.904485
  H     -0.079170   -6.457885   -0.874119
  C     -4.120618    0.011094   -0.036179
  H      5.062828   -0.098171    0.076211
  H     -5.192896    0.025363   -0.051172
  H      1.665950    7.235757    0.019557
  H     -1.388424   -7.283966    0.004373

----------------------------
CARTESIAN COORDINATES (A.U.)
----------------------------
  NO LB      ZA    FRAG     MASS         X           Y           Z
   0 C     6.0000    0    12.011    7.543378   -0.091529    0.106478
   1 C     6.0000    0    12.011    5.245335    0.002180    0.074924
   2 C     6.0000    0    12.011   -5.489505    0.002889   -0.040995
   3 C     6.0000    0    12.011    2.548259    0.068149    0.044939
   4 C     6.0000    0    12.011    1.200262    2.438126    0.025551
   5 C     6.0000    0    12.011   -1.485608    2.286594   -0.002836
   6 C     6.0000    0    12.011   -2.779952   -0.011468   -0.011937
   7 C     6.0000    0    12.011   -1.426667   -2.348659    0.007341
   8 C     6.0000    0    12.011    1.210932   -2.226050    0.034993
   9 H     1.0000    0     1.008   -2.592160    4.024250   -0.018009
  10 H     1.0000    0     1.008    2.312408   -3.966182    0.050045
  11 C     6.0000    0    12.011    2.476494    4.782889    0.034869
  12 H     1.0000    0     1.008    4.541695    4.734275    0.057578
  13 C     6.0000    0    12.011    1.210850    7.317914    0.016122
  14 H     1.0000    0     1.008   -0.038314    7.483039   -1.660266
  15 H     1.0000    0     1.008   -0.081884    7.486101    1.658788
  16 C     6.0000    0    12.011    3.073460    9.539695    0.038479
  17 H     1.0000    0     1.008    4.298956    9.382743    1.722567
  18 H     1.0000    0     1.008    4.341371    9.380805   -1.613756
  19 C     6.0000    0    12.011    1.764866   12.117387    0.020318
  20 H     1.0000    0     1.008    0.530598   12.352510    1.685308
  21 H     1.0000    0     1.008    0.573376   12.350485   -1.675846
  22 C     6.0000    0    12.011   -2.866884   -4.821873   -0.002120
  23 H     1.0000    0     1.008   -4.163869   -4.828487    1.637097
  24 H     1.0000    0     1.008   -4.134532   -4.832957   -1.664043
  25 C     6.0000    0    12.011   -1.296834   -7.251669    0.015087
  26 H     1.0000    0     1.008   -0.027229   -7.288544   -1.643863
  27 H     1.0000    0     1.008   -0.058847   -7.285721    1.697826
  28 C     6.0000    0    12.011   -2.939725   -9.638915    0.002086
  29 H     1.0000    0     1.008   -4.213973   -9.605372    1.658038
  30 H     1.0000    0     1.008   -4.184119   -9.607842   -1.676469
  31 C     6.0000    0    12.011   -1.394032  -12.083835    0.017737
  32 H     1.0000    0     1.008   -0.179261  -12.200989    1.709228
  33 H     1.0000    0     1.008   -0.149609  -12.203634   -1.651845
  34 C     6.0000    0    12.011   -7.786840    0.020965   -0.068368
  35 H     1.0000    0     1.008    9.567358   -0.185516    0.144018
  36 H     1.0000    0     1.008   -9.813152    0.047930   -0.096701
  37 H     1.0000    0     1.008    3.148190   13.673599    0.036958
  38 H     1.0000    0     1.008   -2.623741  -13.764702    0.008264

--------------------------------
INTERNAL COORDINATES (ANGSTROEM)
--------------------------------
 C      0   0   0     0.000000000000     0.00000000     0.00000000
 C      1   0   0     1.217197499278     0.00000000     0.00000000
 C      2   1   0     5.680963731718   177.66284872     0.00000000
 C      2   1   3     1.427746113429   179.05424995     4.98268470
 C      4   2   1     1.442846094586   121.03379741   171.00714192
 C      5   4   2     1.423640943135   116.40377646   180.02529566
 C      6   5   4     1.395714301565   122.61895086     0.00000000
 C      7   6   5     1.429191421172   120.53586014     0.00000000
 C      8   7   6     1.397340678015   117.41276637     0.00000000
 H      6   5   4     1.090173641738   119.26265084   179.99022521
 H      9   8   7     1.089839855869   119.67410439   180.00943753
 C      5   4   2     1.412691718898   121.80780734     0.00000000
 H     12   5   4     1.093225816916   117.21109189     0.00000000
 C     12   5   4     1.499408730056   124.90697329   180.00167287
 H     14  12   5     1.109753063271   109.98647523   302.49048925
 H     14  12   5     1.109733930251   109.99386091    57.22539098
 C     14  12   5     1.534260611019   113.48977014   179.86187860
 H     17  14  12     1.105287105343   108.99982935   302.38096848
 H     17  14  12     1.105299803940   109.00064983    57.67094368
 C     17  14  12     1.529793153843   113.10615248   180.02550539
 H     20  17  14     1.103799892187   111.30581095    59.86570063
 H     20  17  14     1.103808005047   111.30403555   300.13242485
 C      8   7   6     1.514510506150   119.71227493   179.98068584
 H     23   8   7     1.106125417157   108.20285368   303.66845958
 H     23   8   7     1.106099962488   108.20362711    56.13063259
 C     23   8   7     1.530892235814   116.91556974   179.89938058
 H     26  23   8     1.105635266008   109.86977420   301.78913700
 H     26  23   8     1.105636368200   109.87983137    58.29589006
 C     26  23   8     1.533537484008   112.59299162   180.03481418
 H     29  26  23     1.105842315549   109.20232077   302.31226914
 H     29  26  23     1.105844377730   109.20430449    57.62844357
 C     29  26  23     1.530689787375   113.16099693   179.97108341
 H     32  29  26     1.103754308590   111.28933293    59.84438857
 H     32  29  26     1.103742931852   111.28644633   300.13714855
 C      3   2   1     1.215821141116   179.54844742   184.02595008
 H      1   2   4     1.072382117146   179.57511455   328.66729717
 H     35   3   7     1.072477996388   179.66670358   355.94551103
 H     20  17  14     1.101865321414   111.44658259   180.00060328
 H     32  29  26     1.102110814162   111.50767854   179.99008022

---------------------------
INTERNAL COORDINATES (A.U.)
---------------------------
 C      0   0   0     0.000000000000     0.00000000     0.00000000
 C      1   0   0     2.300169924529     0.00000000     0.00000000
 C      2   1   0    10.735465629686   177.66284872     0.00000000
 C      2   1   3     2.698049143151   179.05424995     4.98268470
 C      4   2   1     2.726583972165   121.03379741   171.00714192
 C      5   4   2     2.690291495563   116.40377646   180.02529566
 C      6   5   4     2.637517791156   122.61895086     0.00000000
 C      7   6   5     2.700780378965   120.53586014     0.00000000
 C      8   7   6     2.640591197235   117.41276637     0.00000000
 H      6   5   4     2.060129621305   119.26265084   179.99022521
 H      9   8   7     2.059498857425   119.67410439   180.00943753
 C      5   4   2     2.669600460375   121.80780734     0.00000000
 H     12   5   4     2.065897396504   117.21109189     0.00000000
 C     12   5   4     2.833471862616   124.90697329   180.00167287
 H     14  12   5     2.097129365863   109.98647523   302.49048925
 H     14  12   5     2.097093209694   109.99386091    57.22539098
 C     14  12   5     2.899332372889   113.48977014   179.86187860
 H     17  14  12     2.088689928453   108.99982935   302.38096848
 H     17  14  12     2.088713925324   109.00064983    57.67094368
 C     17  14  12     2.890890102312   113.10615248   180.02550539
 H     20  17  14     2.085879502885   111.30581095    59.86570063
 H     20  17  14     2.085894833969   111.30403555   300.13242485
 C      8   7   6     2.862010083570   119.71227493   179.98068584
 H     23   8   7     2.090274108196   108.20285368   303.66845958
 H     23   8   7     2.090226005844   108.20362711    56.13063259
 C     23   8   7     2.892967066236   116.91556974   179.89938058
 H     26  23   8     2.089347856761   109.86977420   301.78913700
 H     26  23   8     2.089349939602   109.87983137    58.29589006
 C     26  23   8     2.897965860878   112.59299162   180.03481418
 H     29  26  23     2.089739123688   109.20232077   302.31226914
 H     29  26  23     2.089743020646   109.20430449    57.62844357
 C     29  26  23     2.892584494130   113.16099693   179.97108341
 H     32  29  26     2.085793362371   111.28933293    59.84438857
 H     32  29  26     2.085771863451   111.28644633   300.13714855
 C      3   2   1     2.297568984541   179.54844742   184.02595008
 H      1   2   4     2.026508512321   179.57511455   328.66729717
 H     35   3   7     2.026689697830   179.66670358   355.94551103
 H     20  17  14     2.082223693937   111.44658259   180.00060328
 H     32  29  26     2.082687607999   111.50767854   179.99008022

---------------------
BASIS SET INFORMATION
---------------------
There are 2 groups of distinct atoms

 Group   1 Type C   : 17s4p1d contracted to 3s2p1d pattern {881/31/1}
 Group   2 Type H   : 4s1p contracted to 2s1p pattern {31/1}

Atom   0C    basis set group =>   1
Atom   1C    basis set group =>   1
Atom   2C    basis set group =>   1
Atom   3C    basis set group =>   1
Atom   4C    basis set group =>   1
Atom   5C    basis set group =>   1
Atom   6C    basis set group =>   1
Atom   7C    basis set group =>   1
Atom   8C    basis set group =>   1
Atom   9H    basis set group =>   2
Atom  10H    basis set group =>   2
Atom  11C    basis set group =>   1
Atom  12H    basis set group =>   2
Atom  13C    basis set group =>   1
Atom  14H    basis set group =>   2
Atom  15H    basis set group =>   2
Atom  16C    basis set group =>   1
Atom  17H    basis set group =>   2
Atom  18H    basis set group =>   2
Atom  19C    basis set group =>   1
Atom  20H    basis set group =>   2
Atom  21H    basis set group =>   2
Atom  22C    basis set group =>   1
Atom  23H    basis set group =>   2
Atom  24H    basis set group =>   2
Atom  25C    basis set group =>   1
Atom  26H    basis set group =>   2
Atom  27H    basis set group =>   2
Atom  28C    basis set group =>   1
Atom  29H    basis set group =>   2
Atom  30H    basis set group =>   2
Atom  31C    basis set group =>   1
Atom  32H    basis set group =>   2
Atom  33H    basis set group =>   2
Atom  34C    basis set group =>   1
Atom  35H    basis set group =>   2
Atom  36H    basis set group =>   2
Atom  37H    basis set group =>   2
Atom  38H    basis set group =>   2
---------------------------------
AUXILIARY/J BASIS SET INFORMATION
---------------------------------
There are 2 groups of distinct atoms

 Group   1 Type C   : 14s11p10d2f contracted to 14s11p10d2f pattern {11111111111111/11111111111/1111111111/11}
 Group   2 Type H   : 9s2p1d contracted to 9s2p1d pattern {111111111/11/1}

Atom   0C    basis set group =>   1
Atom   1C    basis set group =>   1
Atom   2C    basis set group =>   1
Atom   3C    basis set group =>   1
Atom   4C    basis set group =>   1
Atom   5C    basis set group =>   1
Atom   6C    basis set group =>   1
Atom   7C    basis set group =>   1
Atom   8C    basis set group =>   1
Atom   9H    basis set group =>   2
Atom  10H    basis set group =>   2
Atom  11C    basis set group =>   1
Atom  12H    basis set group =>   2
Atom  13C    basis set group =>   1
Atom  14H    basis set group =>   2
Atom  15H    basis set group =>   2
Atom  16C    basis set group =>   1
Atom  17H    basis set group =>   2
Atom  18H    basis set group =>   2
Atom  19C    basis set group =>   1
Atom  20H    basis set group =>   2
Atom  21H    basis set group =>   2
Atom  22C    basis set group =>   1
Atom  23H    basis set group =>   2
Atom  24H    basis set group =>   2
Atom  25C    basis set group =>   1
Atom  26H    basis set group =>   2
Atom  27H    basis set group =>   2
Atom  28C    basis set group =>   1
Atom  29H    basis set group =>   2
Atom  30H    basis set group =>   2
Atom  31C    basis set group =>   1
Atom  32H    basis set group =>   2
Atom  33H    basis set group =>   2
Atom  34C    basis set group =>   1
Atom  35H    basis set group =>   2
Atom  36H    basis set group =>   2
Atom  37H    basis set group =>   2
Atom  38H    basis set group =>   2
---------------------------------
AUXILIARY/C BASIS SET INFORMATION
---------------------------------
There are 2 groups of distinct atoms

 Group   1 Type C   : 14s11p10d2f contracted to 14s11p10d2f pattern {11111111111111/11111111111/1111111111/11}
 Group   2 Type H   : 9s2p1d contracted to 9s2p1d pattern {111111111/11/1}

Atom   0C    basis set group =>   1
Atom   1C    basis set group =>   1
Atom   2C    basis set group =>   1
Atom   3C    basis set group =>   1
Atom   4C    basis set group =>   1
Atom   5C    basis set group =>   1
Atom   6C    basis set group =>   1
Atom   7C    basis set group =>   1
Atom   8C    basis set group =>   1
Atom   9H    basis set group =>   2
Atom  10H    basis set group =>   2
Atom  11C    basis set group =>   1
Atom  12H    basis set group =>   2
Atom  13C    basis set group =>   1
Atom  14H    basis set group =>   2
Atom  15H    basis set group =>   2
Atom  16C    basis set group =>   1
Atom  17H    basis set group =>   2
Atom  18H    basis set group =>   2
Atom  19C    basis set group =>   1
Atom  20H    basis set group =>   2
Atom  21H    basis set group =>   2
Atom  22C    basis set group =>   1
Atom  23H    basis set group =>   2
Atom  24H    basis set group =>   2
Atom  25C    basis set group =>   1
Atom  26H    basis set group =>   2
Atom  27H    basis set group =>   2
Atom  28C    basis set group =>   1
Atom  29H    basis set group =>   2
Atom  30H    basis set group =>   2
Atom  31C    basis set group =>   1
Atom  32H    basis set group =>   2
Atom  33H    basis set group =>   2
Atom  34C    basis set group =>   1
Atom  35H    basis set group =>   2
Atom  36H    basis set group =>   2
Atom  37H    basis set group =>   2
Atom  38H    basis set group =>   2
----------------------------------
AUXILIARY/JK BASIS SET INFORMATION
----------------------------------
There are 2 groups of distinct atoms

 Group   1 Type C   : 14s11p10d2f contracted to 14s11p10d2f pattern {11111111111111/11111111111/1111111111/11}
 Group   2 Type H   : 9s2p1d contracted to 9s2p1d pattern {111111111/11/1}

Atom   0C    basis set group =>   1
Atom   1C    basis set group =>   1
Atom   2C    basis set group =>   1
Atom   3C    basis set group =>   1
Atom   4C    basis set group =>   1
Atom   5C    basis set group =>   1
Atom   6C    basis set group =>   1
Atom   7C    basis set group =>   1
Atom   8C    basis set group =>   1
Atom   9H    basis set group =>   2
Atom  10H    basis set group =>   2
Atom  11C    basis set group =>   1
Atom  12H    basis set group =>   2
Atom  13C    basis set group =>   1
Atom  14H    basis set group =>   2
Atom  15H    basis set group =>   2
Atom  16C    basis set group =>   1
Atom  17H    basis set group =>   2
Atom  18H    basis set group =>   2
Atom  19C    basis set group =>   1
Atom  20H    basis set group =>   2
Atom  21H    basis set group =>   2
Atom  22C    basis set group =>   1
Atom  23H    basis set group =>   2
Atom  24H    basis set group =>   2
Atom  25C    basis set group =>   1
Atom  26H    basis set group =>   2
Atom  27H    basis set group =>   2
Atom  28C    basis set group =>   1
Atom  29H    basis set group =>   2
Atom  30H    basis set group =>   2
Atom  31C    basis set group =>   1
Atom  32H    basis set group =>   2
Atom  33H    basis set group =>   2
Atom  34C    basis set group =>   1
Atom  35H    basis set group =>   2
Atom  36H    basis set group =>   2
Atom  37H    basis set group =>   2
Atom  38H    basis set group =>   2

Checking for AutoStart:
The File: cc-pVDZ_i.gbw exists
Trying to determine its content:
     ... Fine, the file contains calculation information
     ... Fine, the calculation information was read
     ... Fine, the file contains a basis set
     ... Fine, the basis set was read
     ... Fine, the file contains a geometry
     ... Fine, the geometry was read
     ... Fine, the file contains a set of orbitals
     ... Fine, the orbitals can be read
     => possible old guess file was deleted
     => GBW file was renamed to GES file
     => GES file is set as startup file
     => Guess is set to MORead
     ... now leaving AutoStart



           ************************************************************
           *        Program running with 16 parallel MPI-processes    *
           *              working on a common directory               *
           ************************************************************
------------------------------------------------------------------------------
                           ORCA GTO INTEGRAL CALCULATION
                           -- RI-GTO INTEGRALS CHOSEN --
------------------------------------------------------------------------------
------------------------------------------------------------------------------
                   ___                                                        
                  /   \      - P O W E R E D   B Y -                         
                 /     \                                                     
                 |  |  |   _    _      __       _____    __    __             
                 |  |  |  | |  | |    /  \     |  _  \  |  |  /  |          
                  \  \/   | |  | |   /    \    | | | |  |  | /  /          
                 / \  \   | |__| |  /  /\  \   | |_| |  |  |/  /          
                |  |  |   |  __  | /  /__\  \  |    /   |      \           
                |  |  |   | |  | | |   __   |  |    \   |  |\   \          
                \     /   | |  | | |  |  |  |  | |\  \  |  | \   \       
                 \___/    |_|  |_| |__|  |__|  |_| \__\ |__|  \__/        
                                                                              
                      - O R C A' S   B I G   F R I E N D -                    
                                      &                                       
                       - I N T E G R A L  F E E D E R -                       
                                                                              
 v1 FN, 2020, v2 2021                                                         
------------------------------------------------------------------------------


Reading SHARK input file cc-pVDZ_i.SHARKINP.tmp ... ok
----------------------
SHARK INTEGRAL PACKAGE
----------------------

Number of atoms                             ...     39
Number of basis functions                   ...    465
Number of shells                            ...    279
Maximum angular momentum                    ...      2
Integral batch strategy                     ... SHARK/LIBINT Hybrid
RI-J (if used) integral strategy            ... SPLIT-RIJ (Revised 2003 algorithm where possible)
Printlevel                                  ...      1
Contraction scheme used                     ... PARTIAL GENERAL contraction
Coulomb Range Separation                    ... NOT USED
Exchange Range Separation                   ... NOT USED
Finite Nucleus Model                        ... NOT USED
Auxiliary Coulomb fitting basis             ... AVAILABLE
   # of basis functions in Aux-J            ...   2418
   # of shells in Aux-J                     ...    918
   Maximum angular momentum in Aux-J        ...      3
Auxiliary J/K fitting basis                 ... AVAILABLE
   # of basis functions in Aux-JK           ...   2418
   # of shells in Aux-JK                    ...    918
   Maximum angular momentum in Aux-JK       ...      3
Auxiliary Correlation fitting basis         ... AVAILABLE
   # of basis functions in Aux-C            ...   2418
   # of shells in Aux-C                     ...    918
   Maximum angular momentum in Aux-C        ...      3
Auxiliary 'external' fitting basis          ... NOT available
Integral threshold                          ...     1.000000e-10
Primitive cut-off                           ...     1.000000e-11
Primitive pair pre-selection threshold      ...     1.000000e-11

Calculating pre-screening integrals         ... done (  0.0 sec) Dimension = 279
Calculating pre-screening integrals (ORCA)  ... done (  0.1 sec) Dimension = 171
Organizing shell pair data                  ... done (  0.1 sec)
Shell pair information
Total number of shell pairs                 ...     39060
Shell pairs after pre-screening             ...     18669
Total number of primitive shell pairs       ...     64020
Primitive shell pairs kept                  ...     25582
          la=0 lb=0:   8177 shell pairs
          la=1 lb=0:   6564 shell pairs
          la=1 lb=1:   1149 shell pairs
          la=2 lb=0:   1960 shell pairs
          la=2 lb=1:    698 shell pairs
          la=2 lb=2:    121 shell pairs

Calculating one electron integrals          ... done (  0.0 sec)
Calculating RI/J V-Matrix + Cholesky decomp.... done (  0.4 sec)
Calculating RI/JK V-Matrix + Cholesky decomp... done (  0.3 sec)
Calculating RI/C V-Matrix + Cholesky decomp.... done (  0.4 sec)
Calculating Nuclear repulsion               ... done (  0.0 sec) ENN=   1144.879662290448 Eh

SHARK setup successfully completed in   1.7 seconds

Maximum memory used throughout the entire GTOINT-calculation: 28.4 MB


           ************************************************************
           *        Program running with 16 parallel MPI-processes    *
           *              working on a common directory               *
           ************************************************************
-------------------------------------------------------------------------------
                                 ORCA SCF
-------------------------------------------------------------------------------

------------
SCF SETTINGS
------------
Hamiltonian:
 Density Functional     Method          .... DFT(GTOs)
 Exchange Functional    Exchange        .... B88
   X-Alpha parameter    XAlpha          ....  0.666667
   Becke's b parameter  XBeta           ....  0.004200
 Correlation Functional Correlation     .... LYP
 LDA part of GGA corr.  LDAOpt          .... VWN-5
 Gradients option       PostSCFGGA      .... off
 Hybrid DFT is turned on
   Fraction HF Exchange ScalHFX         ....  0.200000
   Scaling of DF-GGA-X  ScalDFX         ....  0.720000
   Scaling of DF-GGA-C  ScalDFC         ....  0.810000
   Scaling of DF-LDA-C  ScalLDAC        ....  1.000000
   Perturbative correction              ....  0.000000
   Density functional embedding theory  .... OFF
   NL short-range parameter             ....  4.800000
 RI-approximation to the Coulomb term is turned on
   Number of AuxJ basis functions       .... 2418
   RIJ-COSX (HFX calculated with COS-X)).... on


General Settings:
 Integral files         IntName         .... cc-pVDZ_i
 Hartree-Fock type      HFTyp           .... UHF
 Total Charge           Charge          ....    0
 Multiplicity           Mult            ....    2
 Number of Electrons    NEL             ....  129
 Basis Dimension        Dim             ....  357
 Nuclear Repulsion      ENuc            ....   1144.8796622904 Eh

Convergence Acceleration:
 DIIS                   CNVDIIS         .... on
   Start iteration      DIISMaxIt       ....    12
   Startup error        DIISStart       ....  0.200000
   # of expansion vecs  DIISMaxEq       ....     5
   Bias factor          DIISBfac        ....   1.050
   Max. coefficient     DIISMaxC        ....  10.000
 Trust-Rad. Augm. Hess. CNVTRAH         .... auto
   Auto Start mean grad. ratio tolernc. ....  1.125000
   Auto Start start iteration           ....     1
   Auto Start num. interpolation iter.  ....    10
   Max. Number of Micro iterations      ....    16
   Max. Number of Macro iterations      .... Maxiter - #DIIS iter
   Number of Davidson start vectors     ....     2
   Converg. threshold I  (grad. norm)   ....   5.000e-05
   Converg. threshold II (energy diff.) ....   1.000e-06
   Grad. Scal. Fac. for Micro threshold ....   0.100
   Minimum threshold for Micro iter.    ....   0.010
   NR start threshold (gradient norm)   ....   0.001
   Initial trust radius                 ....   0.400
   Minimum AH scaling param. (alpha)    ....   1.000
   Maximum AH scaling param. (alpha)    .... 1000.000
   Orbital update algorithm             .... Taylor
   White noise on init. David. guess    .... on
   Maximum white noise                  ....   0.010
   Quad. conv. algorithm                .... NR
 SOSCF                  CNVSOSCF        .... off
 Level Shifting         CNVShift        .... on
   Level shift para.    LevelShift      ....    0.2500
   Turn off err/grad.   ShiftErr        ....    0.0010
 Zerner damping         CNVZerner       .... off
 Static damping         CNVDamp         .... on
   Fraction old density DampFac         ....    0.7000
   Max. Damping (<1)    DampMax         ....    0.9800
   Min. Damping (>=0)   DampMin         ....    0.0000
   Turn off err/grad.   DampErr         ....    0.1000
 Fernandez-Rico         CNVRico         .... off

SCF Procedure:
 Maximum # iterations   MaxIter         ....   125
 SCF integral mode      SCFMode         .... Direct
   Integral package                     .... SHARK and LIBINT hybrid scheme
 Reset frequency        DirectResetFreq ....    20
 Integral Threshold     Thresh          ....  1.000e-10 Eh
 Primitive CutOff       TCut            ....  1.000e-11 Eh

Convergence Tolerance:
 Convergence Check Mode ConvCheckMode   .... Total+1el-Energy
 Convergence forced     ConvForced      .... 0
 Energy Change          TolE            ....  1.000e-06 Eh
 1-El. energy change                    ....  1.000e-03 Eh
 DIIS Error             TolErr          ....  1.000e-06


Diagonalization of the overlap matrix:
Smallest eigenvalue                        ... 1.275e-04
Time for diagonalization                   ...    0.026 sec
Threshold for overlap eigenvalues          ... 1.000e-08
Number of eigenvalues below threshold      ... 0
Time for construction of square roots      ...    0.033 sec
Total time needed                          ...    0.060 sec

---------------------
INITIAL GUESS: MOREAD
---------------------
Guess MOs are being read from file: cc-pVDZ_i.ges
Input geometry compatible with but different from current geometry
Input basis set matches current basis set (good)
MOs were renormalized
MOs were reorthogonalized (Cholesky)
                      ------------------
                      INITIAL GUESS DONE (   0.1 sec)
                      ------------------
-------------------
DFT GRID GENERATION
-------------------

General Integration Accuracy     IntAcc      ... 4.388
Radial Grid Type                 RadialGrid  ... OptM3 with GC (2021)
Angular Grid (max. ang.)         AngularGrid ... 4 (Lebedev-302)
Angular grid pruning method      GridPruning ... 4 (adaptive)
Weight generation scheme         WeightScheme... Becke
Basis function cutoff            BFCut       ... 1.0000e-10
Integration weight cutoff        WCut        ... 1.0000e-14
Angular grids for H and He will be reduced by one unit
Partially contracted basis set               ... off
Rotationally invariant grid construction     ... off

Total number of grid points                  ...   174684
Total number of batches                      ...     2747
Average number of points per batch           ...       63
Average number of grid points per atom       ...     4479
Time for grid setup =    0.934 sec

--------------------
COSX GRID GENERATION
--------------------

GRIDX 1
-------
General Integration Accuracy     IntAcc      ... 3.816
Radial Grid Type                 RadialGrid  ... OptM3 with GC (2021)
Angular Grid (max. ang.)         AngularGrid ... 1 (Lebedev-50)
Angular grid pruning method      GridPruning ... 4 (adaptive)
Weight generation scheme         WeightScheme... Becke
Basis function cutoff            BFCut       ... 1.0000e-10
Integration weight cutoff        WCut        ... 1.0000e-14
Angular grids for H and He will be reduced by one unit
Partially contracted basis set               ... on
Rotationally invariant grid construction     ... off

Total number of grid points                  ...    22266
Total number of batches                      ...      371
Average number of points per batch           ...       60
Average number of grid points per atom       ...      571
UseSFitting                                  ... on

GRIDX 2
-------
General Integration Accuracy     IntAcc      ... 4.020
Radial Grid Type                 RadialGrid  ... OptM3 with GC (2021)
Angular Grid (max. ang.)         AngularGrid ... 2 (Lebedev-110)
Angular grid pruning method      GridPruning ... 4 (adaptive)
Weight generation scheme         WeightScheme... Becke
Basis function cutoff            BFCut       ... 1.0000e-10
Integration weight cutoff        WCut        ... 1.0000e-14
Angular grids for H and He will be reduced by one unit
Partially contracted basis set               ... on
Rotationally invariant grid construction     ... off

Total number of grid points                  ...    47311
Total number of batches                      ...      761
Average number of points per batch           ...       62
Average number of grid points per atom       ...     1213
UseSFitting                                  ... on

GRIDX 3
-------
General Integration Accuracy     IntAcc      ... 4.338
Radial Grid Type                 RadialGrid  ... OptM3 with GC (2021)
Angular Grid (max. ang.)         AngularGrid ... 3 (Lebedev-194)
Angular grid pruning method      GridPruning ... 4 (adaptive)
Weight generation scheme         WeightScheme... Becke
Basis function cutoff            BFCut       ... 1.0000e-10
Integration weight cutoff        WCut        ... 1.0000e-14
Angular grids for H and He will be reduced by one unit
Partially contracted basis set               ... on
Rotationally invariant grid construction     ... off

Total number of grid points                  ...   103517
Total number of batches                      ...     1637
Average number of points per batch           ...       63
Average number of grid points per atom       ...     2654
UseSFitting                                  ... on

Time for X-Grid setup             =    1.752 sec

 re-compute Schwartz prescreening matrix in partically contracted basis (1) ...done (   0.117 sec)
--------------
SCF ITERATIONS
--------------
ITER       Energy         Delta-E        Max-DP      RMS-DP      [F,P]     Damp
               ***  Starting incremental Fock matrix formation  ***
  0   -697.9671681223   0.000000000000 0.00005725  0.00000098  0.0001271 0.7000
                 **** Energy Check signals convergence ****

               *****************************************************
               *                     SUCCESS                       *
               *           SCF CONVERGED AFTER   1 CYCLES          *
               *****************************************************

Old exchange energy                            =    -20.130519426 Eh
New exchange energy                            =    -20.130621593 Eh
Exchange energy change after final integration =     -0.000102168 Eh
Total energy after final integration           =   -697.967270763 Eh
Final COS-X integration done in                =     4.716 sec

----------------
TOTAL SCF ENERGY
----------------

Total Energy       :         -697.96727076 Eh          -18992.65501 eV

Components:
Nuclear Repulsion  :         1144.87966229 Eh           31153.75944 eV
Electronic Energy  :        -1842.84693305 Eh          -50146.41444 eV
One Electron Energy:        -3212.87224633 Eh          -87426.69851 eV
Two Electron Energy:         1370.02531328 Eh           37280.28407 eV
Max COSX asymmetry :            0.00000051 Eh               0.00001 eV

Virial components:
Potential Energy   :        -1390.99844992 Eh          -37850.99213 eV
Kinetic Energy     :          693.03117916 Eh           18858.33712 eV
Virial Ratio       :            2.00712247


DFT components:
N(Alpha)           :       65.000135801237 electrons
N(Beta)            :       64.000126191570 electrons
N(Total)           :      129.000261992807 electrons
E(X)               :      -79.825994833562 Eh       
E(C)               :       -4.989827325959 Eh       
E(XC)              :      -84.815822159520 Eh       
DFET-embed. en.    :        0.000000000000 Eh       

---------------
SCF CONVERGENCE
---------------

  Last Energy change         ...   -4.7310e-07  Tolerance :   1.0000e-06
  Last MAX-Density change    ...    1.7628e-05  Tolerance :   1.0000e-05
  Last RMS-Density change    ...    3.0267e-07  Tolerance :   1.0000e-06
  Last DIIS Error            ...    9.9834e-05  Tolerance :   1.0000e-06

             **** THE GBW FILE WAS UPDATED (cc-pVDZ_i.gbw) ****
             **** DENSITY cc-pVDZ_i.scfp WAS UPDATED ****
             **** ENERGY FILE WAS UPDATED (cc-pVDZ_i.en.tmp) ****
----------------------
UHF SPIN CONTAMINATION
----------------------

Warning: in a DFT calculation there is little theoretical justification to 
         calculate <S**2> as in Hartree-Fock theory. We will do it anyways
         but you should keep in mind that the values have only limited relevance

Expectation value of <S**2>     :     0.785765
Ideal value S*(S+1) for S=0.5   :     0.750000
Deviation                       :     0.035765

             **** THE GBW FILE WAS UPDATED (cc-pVDZ_i.gbw) ****
             **** DENSITY cc-pVDZ_i.scfp WAS UPDATED ****
----------------
ORBITAL ENERGIES
----------------
                 SPIN UP ORBITALS
  NO   OCC          E(Eh)            E(eV) 
   0   1.0000     -10.215482      -277.9774 
   1   1.0000     -10.213407      -277.9209 
   2   1.0000     -10.204084      -277.6672 
   3   1.0000     -10.200053      -277.5575 
   4   1.0000     -10.196586      -277.4632 
   5   1.0000     -10.193638      -277.3830 
   6   1.0000     -10.192760      -277.3591 
   7   1.0000     -10.191727      -277.3310 
   8   1.0000     -10.190968      -277.3103 
   9   1.0000     -10.188950      -277.2554 
  10   1.0000     -10.187469      -277.2151 
  11   1.0000     -10.187445      -277.2145 
  12   1.0000     -10.186616      -277.1919 
  13   1.0000     -10.184334      -277.1298 
  14   1.0000     -10.182174      -277.0710 
  15   1.0000     -10.181854      -277.0623 
  16   1.0000     -10.177431      -276.9420 
  17   1.0000     -10.175689      -276.8946 
  18   1.0000      -0.875612       -23.8266 
  19   1.0000      -0.821129       -22.3441 
  20   1.0000      -0.798429       -21.7264 
  21   1.0000      -0.796382       -21.6707 
  22   1.0000      -0.769029       -20.9264 
  23   1.0000      -0.752776       -20.4841 
  24   1.0000      -0.731752       -19.9120 
  25   1.0000      -0.721400       -19.6303 
  26   1.0000      -0.698764       -19.0143 
  27   1.0000      -0.657587       -17.8939 
  28   1.0000      -0.640111       -17.4183 
  29   1.0000      -0.617995       -16.8165 
  30   1.0000      -0.594654       -16.1814 
  31   1.0000      -0.580861       -15.8060 
  32   1.0000      -0.563307       -15.3284 
  33   1.0000      -0.542223       -14.7546 
  34   1.0000      -0.524582       -14.2746 
  35   1.0000      -0.499444       -13.5906 
  36   1.0000      -0.486892       -13.2490 
  37   1.0000      -0.478498       -13.0206 
  38   1.0000      -0.471026       -12.8173 
  39   1.0000      -0.462825       -12.5941 
  40   1.0000      -0.434238       -11.8162 
  41   1.0000      -0.430611       -11.7175 
  42   1.0000      -0.426751       -11.6125 
  43   1.0000      -0.422394       -11.4939 
  44   1.0000      -0.412553       -11.2261 
  45   1.0000      -0.399080       -10.8595 
  46   1.0000      -0.398518       -10.8442 
  47   1.0000      -0.381059       -10.3691 
  48   1.0000      -0.379740       -10.3332 
  49   1.0000      -0.365960        -9.9583 
  50   1.0000      -0.358126        -9.7451 
  51   1.0000      -0.354920        -9.6579 
  52   1.0000      -0.341096        -9.2817 
  53   1.0000      -0.333282        -9.0691 
  54   1.0000      -0.331653        -9.0247 
  55   1.0000      -0.331054        -9.0085 
  56   1.0000      -0.328150        -8.9294 
  57   1.0000      -0.325079        -8.8459 
  58   1.0000      -0.321415        -8.7461 
  59   1.0000      -0.285600        -7.7716 
  60   1.0000      -0.276508        -7.5242 
  61   1.0000      -0.274881        -7.4799 
  62   1.0000      -0.271269        -7.3816 
  63   1.0000      -0.231111        -6.2888 
  64   1.0000      -0.174653        -4.7526 
  65   0.0000      -0.048337        -1.3153 
  66   0.0000       0.010949         0.2979 
  67   0.0000       0.040496         1.1019 
  68   0.0000       0.049401         1.3443 
  69   0.0000       0.052827         1.4375 
  70   0.0000       0.062598         1.7034 
  71   0.0000       0.063657         1.7322 
  72   0.0000       0.082234         2.2377 
  73   0.0000       0.085694         2.3318 
  74   0.0000       0.088695         2.4135 
  75   0.0000       0.091184         2.4812 
  76   0.0000       0.094692         2.5767 
  77   0.0000       0.095718         2.6046 
  78   0.0000       0.100962         2.7473 
  79   0.0000       0.102734         2.7955 
  80   0.0000       0.118048         3.2122 
  81   0.0000       0.125642         3.4189 
  82   0.0000       0.129978         3.5369 
  83   0.0000       0.144663         3.9365 
  84   0.0000       0.146894         3.9972 
  85   0.0000       0.151483         4.1221 
  86   0.0000       0.160060         4.3555 
  87   0.0000       0.160150         4.3579 
  88   0.0000       0.162052         4.4097 
  89   0.0000       0.168581         4.5873 
  90   0.0000       0.170369         4.6360 
  91   0.0000       0.178744         4.8639 
  92   0.0000       0.195893         5.3305 
  93   0.0000       0.204111         5.5541 
  94   0.0000       0.212269         5.7761 
  95   0.0000       0.217190         5.9100 
  96   0.0000       0.222613         6.0576 
  97   0.0000       0.242796         6.6068 
  98   0.0000       0.248294         6.7564 
  99   0.0000       0.260802         7.0968 
 100   0.0000       0.268487         7.3059 
 101   0.0000       0.290752         7.9118 
 102   0.0000       0.308288         8.3889 
 103   0.0000       0.323259         8.7963 
 104   0.0000       0.327176         8.9029 
 105   0.0000       0.348731         9.4894 
 106   0.0000       0.361051         9.8247 
 107   0.0000       0.366076         9.9614 
 108   0.0000       0.390524        10.6267 
 109   0.0000       0.409478        11.1425 
 110   0.0000       0.411476        11.1968 
 111   0.0000       0.412974        11.2376 
 112   0.0000       0.419178        11.4064 
 113   0.0000       0.423922        11.5355 
 114   0.0000       0.435743        11.8572 
 115   0.0000       0.439887        11.9699 
 116   0.0000       0.442287        12.0352 
 117   0.0000       0.461368        12.5545 
 118   0.0000       0.463120        12.6021 
 119   0.0000       0.470711        12.8087 
 120   0.0000       0.476296        12.9607 
 121   0.0000       0.478755        13.0276 
 122   0.0000       0.487712        13.2713 
 123   0.0000       0.502604        13.6766 
 124   0.0000       0.503768        13.7082 
 125   0.0000       0.505302        13.7500 
 126   0.0000       0.515984        14.0406 
 127   0.0000       0.522589        14.2204 
 128   0.0000       0.528370        14.3777 
 129   0.0000       0.540906        14.7188 
 130   0.0000       0.543331        14.7848 
 131   0.0000       0.551426        15.0051 
 132   0.0000       0.558096        15.1866 
 133   0.0000       0.560055        15.2399 
 134   0.0000       0.587171        15.9777 
 135   0.0000       0.588407        16.0114 
 136   0.0000       0.596322        16.2267 
 137   0.0000       0.604154        16.4399 
 138   0.0000       0.605577        16.4786 
 139   0.0000       0.607612        16.5340 
 140   0.0000       0.618519        16.8308 
 141   0.0000       0.624067        16.9817 
 142   0.0000       0.638976        17.3874 
 143   0.0000       0.641606        17.4590 
 144   0.0000       0.643817        17.5191 
 145   0.0000       0.644664        17.5422 
 146   0.0000       0.651758        17.7352 
 147   0.0000       0.654662        17.8142 
 148   0.0000       0.656437        17.8626 
 149   0.0000       0.659528        17.9467 
 150   0.0000       0.661761        18.0074 
 151   0.0000       0.662634        18.0312 
 152   0.0000       0.667993        18.1770 
 153   0.0000       0.668224        18.1833 
 154   0.0000       0.680242        18.5103 
 155   0.0000       0.681595        18.5471 
 156   0.0000       0.687258        18.7012 
 157   0.0000       0.689996        18.7758 
 158   0.0000       0.691794        18.8247 
 159   0.0000       0.697814        18.9885 
 160   0.0000       0.707396        19.2492 
 161   0.0000       0.718890        19.5620 
 162   0.0000       0.719533        19.5795 
 163   0.0000       0.728771        19.8309 
 164   0.0000       0.733340        19.9552 
 165   0.0000       0.735505        20.0141 
 166   0.0000       0.738157        20.0863 
 167   0.0000       0.747281        20.3346 
 168   0.0000       0.756744        20.5920 
 169   0.0000       0.768696        20.9173 
 170   0.0000       0.773614        21.0511 
 171   0.0000       0.781089        21.2545 
 172   0.0000       0.801929        21.8216 
 173   0.0000       0.818706        22.2781 
 174   0.0000       0.832027        22.6406 
 175   0.0000       0.832931        22.6652 
 176   0.0000       0.840996        22.8847 
 177   0.0000       0.852663        23.2021 
 178   0.0000       0.872486        23.7415 
 179   0.0000       0.879277        23.9263 
 180   0.0000       0.884493        24.0683 
 181   0.0000       0.912960        24.8429 
 182   0.0000       0.929359        25.2891 
 183   0.0000       0.938681        25.5428 
 184   0.0000       0.951609        25.8946 
 185   0.0000       0.978781        26.6340 
 186   0.0000       0.984284        26.7837 
 187   0.0000       0.990506        26.9530 
 188   0.0000       0.996603        27.1189 
 189   0.0000       1.014077        27.5944 
 190   0.0000       1.037428        28.2299 
 191   0.0000       1.042277        28.3618 
 192   0.0000       1.048039        28.5186 
 193   0.0000       1.049413        28.5560 
 194   0.0000       1.053756        28.6742 
 195   0.0000       1.065169        28.9847 
 196   0.0000       1.080675        29.4067 
 197   0.0000       1.084024        29.4978 
 198   0.0000       1.099624        29.9223 
 199   0.0000       1.144126        31.1332 
 200   0.0000       1.156775        31.4775 
 201   0.0000       1.165550        31.7162 
 202   0.0000       1.192796        32.4576 
 203   0.0000       1.204161        32.7669 
 204   0.0000       1.207149        32.8482 
 205   0.0000       1.208694        32.8902 
 206   0.0000       1.215277        33.0694 
 207   0.0000       1.218055        33.1450 
 208   0.0000       1.222567        33.2677 
 209   0.0000       1.227620        33.4052 
 210   0.0000       1.236021        33.6339 
 211   0.0000       1.257508        34.2185 
 212   0.0000       1.282862        34.9084 
 213   0.0000       1.288308        35.0567 
 214   0.0000       1.303931        35.4818 
 215   0.0000       1.308114        35.5956 
 216   0.0000       1.318263        35.8718 
 217   0.0000       1.327636        36.1268 
 218   0.0000       1.335429        36.3389 
 219   0.0000       1.345929        36.6246 
 220   0.0000       1.347383        36.6642 
 221   0.0000       1.372187        37.3391 
 222   0.0000       1.383889        37.6575 
 223   0.0000       1.388437        37.7813 
 224   0.0000       1.399279        38.0763 
 225   0.0000       1.409069        38.3427 
 226   0.0000       1.417314        38.5671 
 227   0.0000       1.424979        38.7756 
 228   0.0000       1.426448        38.8156 
 229   0.0000       1.428566        38.8733 
 230   0.0000       1.445924        39.3456 
 231   0.0000       1.452264        39.5181 
 232   0.0000       1.462231        39.7893 
 233   0.0000       1.468907        39.9710 
 234   0.0000       1.471410        40.0391 
 235   0.0000       1.483812        40.3766 
 236   0.0000       1.494297        40.6619 
 237   0.0000       1.520390        41.3719 
 238   0.0000       1.532209        41.6935 
 239   0.0000       1.537146        41.8279 
 240   0.0000       1.557059        42.3697 
 241   0.0000       1.558597        42.4116 
 242   0.0000       1.582848        43.0715 
 243   0.0000       1.585543        43.1448 
 244   0.0000       1.586258        43.1643 
 245   0.0000       1.601124        43.5688 
 246   0.0000       1.616633        43.9908 
 247   0.0000       1.622181        44.1418 
 248   0.0000       1.627852        44.2961 
 249   0.0000       1.630115        44.3577 
 250   0.0000       1.632994        44.4360 
 251   0.0000       1.639671        44.6177 
 252   0.0000       1.645740        44.7828 
 253   0.0000       1.651279        44.9336 
 254   0.0000       1.651634        44.9432 
 255   0.0000       1.660670        45.1891 
 256   0.0000       1.668762        45.4093 
 257   0.0000       1.671796        45.4919 
 258   0.0000       1.675727        45.5989 
 259   0.0000       1.685881        45.8752 
 260   0.0000       1.686447        45.8906 
 261   0.0000       1.694960        46.1222 
 262   0.0000       1.698789        46.2264 
 263   0.0000       1.702430        46.3255 
 264   0.0000       1.704108        46.3711 
 265   0.0000       1.710666        46.5496 
 266   0.0000       1.716928        46.7200 
 267   0.0000       1.725362        46.9495 
 268   0.0000       1.741902        47.3996 
 269   0.0000       1.752028        47.6751 
 270   0.0000       1.756022        47.7838 
 271   0.0000       1.762309        47.9549 
 272   0.0000       1.780636        48.4536 
 273   0.0000       1.783136        48.5216 
 274   0.0000       1.790090        48.7108 
 275   0.0000       1.796202        48.8771 
 276   0.0000       1.802459        49.0474 
 277   0.0000       1.813986        49.3611 
 278   0.0000       1.819539        49.5122 
 279   0.0000       1.822341        49.5884 
 280   0.0000       1.830342        49.8061 
 281   0.0000       1.857427        50.5432 
 282   0.0000       1.870109        50.8883 
 283   0.0000       1.879677        51.1486 
 284   0.0000       1.889126        51.4057 
 285   0.0000       1.896969        51.6191 
 286   0.0000       1.911864        52.0245 
 287   0.0000       1.915170        52.1144 
 288   0.0000       1.922028        52.3010 
 289   0.0000       1.929328        52.4997 
 290   0.0000       1.952775        53.1377 
 291   0.0000       1.975678        53.7609 
 292   0.0000       1.992247        54.2118 
 293   0.0000       1.996384        54.3244 
 294   0.0000       2.011785        54.7434 
 295   0.0000       2.024511        55.0897 
 296   0.0000       2.044695        55.6390 
 297   0.0000       2.050724        55.8030 
 298   0.0000       2.068044        56.2743 
 299   0.0000       2.075193        56.4689 
 300   0.0000       2.076755        56.5114 
 301   0.0000       2.085988        56.7626 
 302   0.0000       2.111640        57.4606 
 303   0.0000       2.126159        57.8557 
 304   0.0000       2.128144        57.9097 
 305   0.0000       2.128926        57.9310 
 306   0.0000       2.151657        58.5496 
 307   0.0000       2.155822        58.6629 
 308   0.0000       2.188952        59.5644 
 309   0.0000       2.199052        59.8393 
 310   0.0000       2.209879        60.1339 
 311   0.0000       2.212699        60.2106 
 312   0.0000       2.218627        60.3719 
 313   0.0000       2.227227        60.6059 
 314   0.0000       2.253151        61.3114 
 315   0.0000       2.260957        61.5238 
 316   0.0000       2.280992        62.0690 
 317   0.0000       2.291848        62.3644 
 318   0.0000       2.296900        62.5018 
 319   0.0000       2.301835        62.6361 
 320   0.0000       2.319751        63.1236 
 321   0.0000       2.326511        63.3076 
 322   0.0000       2.329425        63.3869 
 323   0.0000       2.334744        63.5316 
 324   0.0000       2.375159        64.6314 
 325   0.0000       2.382913        64.8424 
 326   0.0000       2.407484        65.5110 
 327   0.0000       2.410980        65.6061 
 328   0.0000       2.412229        65.6401 
 329   0.0000       2.413291        65.6690 
 330   0.0000       2.422122        65.9093 
 331   0.0000       2.424527        65.9747 
 332   0.0000       2.440750        66.4162 
 333   0.0000       2.484149        67.5971 
 334   0.0000       2.498782        67.9953 
 335   0.0000       2.502297        68.0910 
 336   0.0000       2.535424        68.9924 
 337   0.0000       2.545569        69.2685 
 338   0.0000       2.558617        69.6235 
 339   0.0000       2.592761        70.5526 
 340   0.0000       2.601330        70.7858 
 341   0.0000       2.625512        71.4438 
 342   0.0000       2.641787        71.8867 
 343   0.0000       2.661200        72.4149 
 344   0.0000       2.680476        72.9395 
 345   0.0000       2.713646        73.8421 
 346   0.0000       2.722286        74.0772 
 347   0.0000       2.754008        74.9404 
 348   0.0000       2.776777        75.5599 
 349   0.0000       2.823091        76.8202 
 350   0.0000       2.845107        77.4193 
 351   0.0000       2.871213        78.1297 
 352   0.0000       2.927766        79.6686 
 353   0.0000       3.006868        81.8210 
 354   0.0000       3.191107        86.8344 
 355   0.0000       3.202576        87.1465 
 356   0.0000       3.395979        92.4093 

                 SPIN DOWN ORBITALS
  NO   OCC          E(Eh)            E(eV) 
   0   1.0000     -10.215032      -277.9651 
   1   1.0000     -10.212058      -277.8842 
   2   1.0000     -10.202503      -277.6242 
   3   1.0000     -10.200623      -277.5731 
   4   1.0000     -10.193497      -277.3791 
   5   1.0000     -10.193326      -277.3745 
   6   1.0000     -10.192382      -277.3488 
   7   1.0000     -10.191741      -277.3314 
   8   1.0000     -10.189631      -277.2740 
   9   1.0000     -10.188077      -277.2317 
  10   1.0000     -10.187650      -277.2200 
  11   1.0000     -10.185327      -277.1568 
  12   1.0000     -10.184295      -277.1288 
  13   1.0000     -10.183621      -277.1104 
  14   1.0000     -10.182170      -277.0709 
  15   1.0000     -10.181855      -277.0624 
  16   1.0000     -10.177438      -276.9422 
  17   1.0000     -10.175691      -276.8946 
  18   1.0000      -0.872184       -23.7333 
  19   1.0000      -0.816057       -22.2061 
  20   1.0000      -0.795793       -21.6546 
  21   1.0000      -0.794982       -21.6326 
  22   1.0000      -0.766982       -20.8707 
  23   1.0000      -0.751911       -20.4605 
  24   1.0000      -0.727642       -19.8001 
  25   1.0000      -0.719936       -19.5905 
  26   1.0000      -0.696395       -18.9499 
  27   1.0000      -0.654521       -17.8104 
  28   1.0000      -0.638236       -17.3673 
  29   1.0000      -0.612403       -16.6643 
  30   1.0000      -0.593695       -16.1553 
  31   1.0000      -0.579289       -15.7632 
  32   1.0000      -0.560774       -15.2594 
  33   1.0000      -0.540931       -14.7195 
  34   1.0000      -0.522037       -14.2054 
  35   1.0000      -0.497251       -13.5309 
  36   1.0000      -0.485451       -13.2098 
  37   1.0000      -0.477119       -12.9831 
  38   1.0000      -0.470147       -12.7934 
  39   1.0000      -0.459312       -12.4985 
  40   1.0000      -0.432153       -11.7595 
  41   1.0000      -0.429157       -11.6779 
  42   1.0000      -0.425515       -11.5789 
  43   1.0000      -0.419683       -11.4202 
  44   1.0000      -0.412074       -11.2131 
  45   1.0000      -0.397414       -10.8142 
  46   1.0000      -0.391225       -10.6458 
  47   1.0000      -0.377445       -10.2708 
  48   1.0000      -0.377171       -10.2633 
  49   1.0000      -0.364788        -9.9264 
  50   1.0000      -0.357123        -9.7178 
  51   1.0000      -0.351749        -9.5716 
  52   1.0000      -0.338791        -9.2190 
  53   1.0000      -0.332769        -9.0551 
  54   1.0000      -0.330024        -8.9804 
  55   1.0000      -0.328653        -8.9431 
  56   1.0000      -0.327804        -8.9200 
  57   1.0000      -0.324321        -8.8252 
  58   1.0000      -0.320680        -8.7261 
  59   1.0000      -0.280074        -7.6212 
  60   1.0000      -0.276469        -7.5231 
  61   1.0000      -0.274227        -7.4621 
  62   1.0000      -0.258862        -7.0440 
  63   1.0000      -0.223112        -6.0712 
  64   0.0000      -0.084271        -2.2931 
  65   0.0000      -0.039281        -1.0689 
  66   0.0000       0.027037         0.7357 
  67   0.0000       0.040896         1.1128 
  68   0.0000       0.049706         1.3526 
  69   0.0000       0.059200         1.6109 
  70   0.0000       0.062729         1.7069 
  71   0.0000       0.064104         1.7443 
  72   0.0000       0.082658         2.2492 
  73   0.0000       0.086159         2.3445 
  74   0.0000       0.089284         2.4295 
  75   0.0000       0.091379         2.4866 
  76   0.0000       0.095008         2.5853 
  77   0.0000       0.095740         2.6052 
  78   0.0000       0.101813         2.7705 
  79   0.0000       0.104126         2.8334 
  80   0.0000       0.120278         3.2729 
  81   0.0000       0.126149         3.4327 
  82   0.0000       0.130162         3.5419 
  83   0.0000       0.145487         3.9589 
  84   0.0000       0.148857         4.0506 
  85   0.0000       0.152537         4.1507 
  86   0.0000       0.160656         4.3717 
  87   0.0000       0.160918         4.3788 
  88   0.0000       0.162356         4.4179 
  89   0.0000       0.170810         4.6480 
  90   0.0000       0.170984         4.6527 
  91   0.0000       0.181064         4.9270 
  92   0.0000       0.203307         5.5323 
  93   0.0000       0.205122         5.5817 
  94   0.0000       0.213510         5.8099 
  95   0.0000       0.218542         5.9468 
  96   0.0000       0.223764         6.0889 
  97   0.0000       0.244102         6.6424 
  98   0.0000       0.249757         6.7962 
  99   0.0000       0.263065         7.1584 
 100   0.0000       0.270633         7.3643 
 101   0.0000       0.292208         7.9514 
 102   0.0000       0.310064         8.4373 
 103   0.0000       0.326132         8.8745 
 104   0.0000       0.328136         8.9290 
 105   0.0000       0.349238         9.5032 
 106   0.0000       0.361825         9.8457 
 107   0.0000       0.367279         9.9942 
 108   0.0000       0.391941        10.6653 
 109   0.0000       0.409958        11.1555 
 110   0.0000       0.411945        11.2096 
 111   0.0000       0.413484        11.2515 
 112   0.0000       0.419548        11.4165 
 113   0.0000       0.425007        11.5650 
 114   0.0000       0.438643        11.9361 
 115   0.0000       0.444431        12.0936 
 116   0.0000       0.453867        12.3503 
 117   0.0000       0.464736        12.6461 
 118   0.0000       0.468048        12.7362 
 119   0.0000       0.471752        12.8370 
 120   0.0000       0.479429        13.0459 
 121   0.0000       0.483275        13.1506 
 122   0.0000       0.490013        13.3339 
 123   0.0000       0.504485        13.7277 
 124   0.0000       0.505462        13.7543 
 125   0.0000       0.506410        13.7801 
 126   0.0000       0.520346        14.1593 
 127   0.0000       0.525877        14.3098 
 128   0.0000       0.531010        14.4495 
 129   0.0000       0.541823        14.7438 
 130   0.0000       0.551845        15.0165 
 131   0.0000       0.552921        15.0457 
 132   0.0000       0.561591        15.2817 
 133   0.0000       0.569019        15.4838 
 134   0.0000       0.590340        16.0640 
 135   0.0000       0.590744        16.0749 
 136   0.0000       0.598454        16.2848 
 137   0.0000       0.604987        16.4625 
 138   0.0000       0.607080        16.5195 
 139   0.0000       0.608445        16.5566 
 140   0.0000       0.618983        16.8434 
 141   0.0000       0.628018        17.0892 
 142   0.0000       0.639452        17.4004 
 143   0.0000       0.641865        17.4660 
 144   0.0000       0.645706        17.5706 
 145   0.0000       0.646707        17.5978 
 146   0.0000       0.652364        17.7517 
 147   0.0000       0.654801        17.8180 
 148   0.0000       0.657488        17.8911 
 149   0.0000       0.660660        17.9775 
 150   0.0000       0.662327        18.0228 
 151   0.0000       0.665612        18.1122 
 152   0.0000       0.668748        18.1976 
 153   0.0000       0.669577        18.2201 
 154   0.0000       0.681766        18.5518 
 155   0.0000       0.683319        18.5941 
 156   0.0000       0.688343        18.7308 
 157   0.0000       0.690996        18.8030 
 158   0.0000       0.692309        18.8387 
 159   0.0000       0.698268        19.0008 
 160   0.0000       0.707552        19.2535 
 161   0.0000       0.720077        19.5943 
 162   0.0000       0.720848        19.6153 
 163   0.0000       0.729593        19.8532 
 164   0.0000       0.736728        20.0474 
 165   0.0000       0.738580        20.0978 
 166   0.0000       0.740256        20.1434 
 167   0.0000       0.748664        20.3722 
 168   0.0000       0.758853        20.6494 
 169   0.0000       0.769549        20.9405 
 170   0.0000       0.778558        21.1856 
 171   0.0000       0.783572        21.3221 
 172   0.0000       0.802733        21.8435 
 173   0.0000       0.820519        22.3274 
 174   0.0000       0.833288        22.6749 
 175   0.0000       0.835200        22.7270 
 176   0.0000       0.841807        22.9067 
 177   0.0000       0.853423        23.2228 
 178   0.0000       0.875350        23.8195 
 179   0.0000       0.880666        23.9641 
 180   0.0000       0.887534        24.1510 
 181   0.0000       0.917325        24.9617 
 182   0.0000       0.929926        25.3046 
 183   0.0000       0.947123        25.7725 
 184   0.0000       0.954860        25.9831 
 185   0.0000       0.985102        26.8060 
 186   0.0000       0.986567        26.8459 
 187   0.0000       0.992060        26.9953 
 188   0.0000       1.001156        27.2429 
 189   0.0000       1.014711        27.6117 
 190   0.0000       1.038844        28.2684 
 191   0.0000       1.047620        28.5072 
 192   0.0000       1.049623        28.5617 
 193   0.0000       1.050590        28.5880 
 194   0.0000       1.055389        28.7186 
 195   0.0000       1.066417        29.0187 
 196   0.0000       1.083371        29.4800 
 197   0.0000       1.086398        29.5624 
 198   0.0000       1.101193        29.9650 
 199   0.0000       1.145496        31.1705 
 200   0.0000       1.157438        31.4955 
 201   0.0000       1.166433        31.7403 
 202   0.0000       1.193903        32.4878 
 203   0.0000       1.204511        32.7764 
 204   0.0000       1.207810        32.8662 
 205   0.0000       1.209311        32.9070 
 206   0.0000       1.215545        33.0767 
 207   0.0000       1.219527        33.1850 
 208   0.0000       1.222959        33.2784 
 209   0.0000       1.229767        33.4637 
 210   0.0000       1.236853        33.6565 
 211   0.0000       1.258614        34.2486 
 212   0.0000       1.284966        34.9657 
 213   0.0000       1.289451        35.0877 
 214   0.0000       1.305641        35.5283 
 215   0.0000       1.309062        35.6214 
 216   0.0000       1.324577        36.0436 
 217   0.0000       1.329210        36.1696 
 218   0.0000       1.335966        36.3535 
 219   0.0000       1.347443        36.6658 
 220   0.0000       1.356850        36.9218 
 221   0.0000       1.374317        37.3971 
 222   0.0000       1.384303        37.6688 
 223   0.0000       1.393910        37.9302 
 224   0.0000       1.402885        38.1744 
 225   0.0000       1.410705        38.3872 
 226   0.0000       1.418657        38.6036 
 227   0.0000       1.425044        38.7774 
 228   0.0000       1.426462        38.8160 
 229   0.0000       1.430635        38.9295 
 230   0.0000       1.452667        39.5291 
 231   0.0000       1.454672        39.5836 
 232   0.0000       1.463934        39.8357 
 233   0.0000       1.469485        39.9867 
 234   0.0000       1.473818        40.1046 
 235   0.0000       1.484822        40.4041 
 236   0.0000       1.495154        40.6852 
 237   0.0000       1.522414        41.4270 
 238   0.0000       1.533248        41.7218 
 239   0.0000       1.538195        41.8564 
 240   0.0000       1.559511        42.4365 
 241   0.0000       1.562072        42.5061 
 242   0.0000       1.583034        43.0765 
 243   0.0000       1.587310        43.1929 
 244   0.0000       1.588007        43.2119 
 245   0.0000       1.602001        43.5926 
 246   0.0000       1.617545        44.0156 
 247   0.0000       1.622914        44.1617 
 248   0.0000       1.628703        44.3193 
 249   0.0000       1.630342        44.3639 
 250   0.0000       1.634405        44.4744 
 251   0.0000       1.639891        44.6237 
 252   0.0000       1.646339        44.7992 
 253   0.0000       1.652331        44.9622 
 254   0.0000       1.653055        44.9819 
 255   0.0000       1.661393        45.2088 
 256   0.0000       1.671800        45.4920 
 257   0.0000       1.675012        45.5794 
 258   0.0000       1.676330        45.6153 
 259   0.0000       1.686951        45.9043 
 260   0.0000       1.688463        45.9454 
 261   0.0000       1.697029        46.1785 
 262   0.0000       1.699546        46.2470 
 263   0.0000       1.703435        46.3528 
 264   0.0000       1.705502        46.4091 
 265   0.0000       1.711135        46.5624 
 266   0.0000       1.717858        46.7453 
 267   0.0000       1.726486        46.9801 
 268   0.0000       1.745851        47.5070 
 269   0.0000       1.754632        47.7460 
 270   0.0000       1.756306        47.7915 
 271   0.0000       1.764202        48.0064 
 272   0.0000       1.783491        48.5313 
 273   0.0000       1.786436        48.6114 
 274   0.0000       1.791810        48.7576 
 275   0.0000       1.797237        48.9053 
 276   0.0000       1.805802        49.1384 
 277   0.0000       1.819330        49.5065 
 278   0.0000       1.822828        49.6017 
 279   0.0000       1.824159        49.6379 
 280   0.0000       1.831803        49.8459 
 281   0.0000       1.858227        50.5649 
 282   0.0000       1.876697        51.0675 
 283   0.0000       1.881499        51.1982 
 284   0.0000       1.890195        51.4348 
 285   0.0000       1.897440        51.6320 
 286   0.0000       1.915843        52.1327 
 287   0.0000       1.916411        52.1482 
 288   0.0000       1.925031        52.3828 
 289   0.0000       1.930277        52.5255 
 290   0.0000       1.953533        53.1583 
 291   0.0000       1.976282        53.7774 
 292   0.0000       1.996547        54.3288 
 293   0.0000       1.998468        54.3811 
 294   0.0000       2.012406        54.7603 
 295   0.0000       2.025414        55.1143 
 296   0.0000       2.045420        55.6587 
 297   0.0000       2.054689        55.9109 
 298   0.0000       2.071481        56.3679 
 299   0.0000       2.077767        56.5389 
 300   0.0000       2.081506        56.6407 
 301   0.0000       2.086934        56.7884 
 302   0.0000       2.111571        57.4588 
 303   0.0000       2.128742        57.9260 
 304   0.0000       2.130404        57.9712 
 305   0.0000       2.131189        57.9926 
 306   0.0000       2.157759        58.7156 
 307   0.0000       2.158979        58.7488 
 308   0.0000       2.189630        59.5829 
 309   0.0000       2.200046        59.8663 
 310   0.0000       2.211145        60.1683 
 311   0.0000       2.213833        60.2415 
 312   0.0000       2.220387        60.4198 
 313   0.0000       2.229415        60.6655 
 314   0.0000       2.254238        61.3409 
 315   0.0000       2.261962        61.5511 
 316   0.0000       2.283089        62.1260 
 317   0.0000       2.292481        62.3816 
 318   0.0000       2.298109        62.5347 
 319   0.0000       2.305800        62.7440 
 320   0.0000       2.320242        63.1370 
 321   0.0000       2.328516        63.3621 
 322   0.0000       2.332008        63.4572 
 323   0.0000       2.336682        63.5844 
 324   0.0000       2.377391        64.6921 
 325   0.0000       2.385260        64.9062 
 326   0.0000       2.409069        65.5541 
 327   0.0000       2.411360        65.6164 
 328   0.0000       2.412936        65.6593 
 329   0.0000       2.413475        65.6740 
 330   0.0000       2.423868        65.9568 
 331   0.0000       2.425290        65.9955 
 332   0.0000       2.442926        66.4754 
 333   0.0000       2.486050        67.6489 
 334   0.0000       2.501274        68.0631 
 335   0.0000       2.503444        68.1222 
 336   0.0000       2.536092        69.0106 
 337   0.0000       2.546746        69.3005 
 338   0.0000       2.559597        69.6502 
 339   0.0000       2.593617        70.5759 
 340   0.0000       2.601713        70.7962 
 341   0.0000       2.626507        71.4709 
 342   0.0000       2.643201        71.9251 
 343   0.0000       2.663532        72.4784 
 344   0.0000       2.682391        72.9916 
 345   0.0000       2.713919        73.8495 
 346   0.0000       2.722856        74.0927 
 347   0.0000       2.754688        74.9589 
 348   0.0000       2.777679        75.5845 
 349   0.0000       2.824747        76.8653 
 350   0.0000       2.845626        77.4334 
 351   0.0000       2.873915        78.2032 
 352   0.0000       2.928605        79.6914 
 353   0.0000       3.009252        81.8859 
 354   0.0000       3.190669        86.8225 
 355   0.0000       3.203968        87.1844 
 356   0.0000       3.397575        92.4527 

                    ********************************
                    * MULLIKEN POPULATION ANALYSIS *
                    ********************************

--------------------------------------------
MULLIKEN ATOMIC CHARGES AND SPIN POPULATIONS
--------------------------------------------
   0 C :   -0.600424    0.101678
   1 C :    0.631357   -0.060426
   2 C :    0.624513    0.028809
   3 C :   -0.049311    0.228309
   4 C :    0.081100   -0.167085
   5 C :   -0.012539    0.219508
   6 C :   -0.022383   -0.110344
   7 C :   -0.076633    0.237476
   8 C :    0.025552   -0.118778
   9 H :   -0.048887   -0.009114
  10 H :   -0.049792    0.004312
  11 C :   -0.098625    0.705646
  12 H :   -0.021191   -0.030046
  13 C :    0.032694   -0.048379
  14 H :    0.029588    0.031766
  15 H :    0.029613    0.031645
  16 C :   -0.038828    0.002287
  17 H :    0.013199    0.000472
  18 H :    0.013219    0.000457
  19 C :    0.005400   -0.000180
  20 H :    0.017715    0.000155
  21 H :    0.017733    0.000154
  22 C :    0.042902   -0.018782
[...]
 A(DIA)          0.0006              -0.0004              -0.0002    A(PC) =   0.0000
             ----------           ----------           ----------
 A(Tot)         -2.3469              -7.8926             -10.8344    A(iso)=   -7.0246
 Orientation: 
  X          -0.9922957           -0.0175456            0.1226433
  Y           0.1226088            0.0030336            0.9924504
  Z          -0.0177852            0.9998415           -0.0008590

Notes:  (1) The A matrix conforms to the "SAI" spin Hamiltonian convention.
        (2) Tensor is right-handed.

 -----------------------------------------------------------
 Nucleus  36H : A:ISTP=    1 I=  0.5 P=533.5514 MHz/au**3
                Q:ISTP=    2 I=  1.0 Q=  0.0029 barn     
 -----------------------------------------------------------
 Solving for nuclear perturbation:
Forming RHS of the CP-SCF equations         ... 
Calc. nucleus orbit integrals (SHARK)       ... done

------------------------------------------------------------------------------
                           ORCA CP-SCF CALCULATION
------------------------------------------------------------------------------

Input orbitals are from        ... cc-pVDZ_i.gbw
Input Perturbation             ... cc-pVDZ_i.pin.tmp
Wavefunction output            ... cc-pVDZ_i.pout.tmp
Perturbation mode              ... Imaginary perturbation
Solver                         ... POPLE
Max. number of iterations      ... 64
Convergence tolerance          ... 1.000e-03
Integral handling              ... Direct
DFT GridXC                     ... 1
COSX GridX                     ... 1
COSX IntAccX                   ... 3.067
COSX Algorithm                 ... Auto
Number of perturbations        ... 3
Number of operators            ... 2
Orbital ranges used for CP-SCF:
 Operator 0:  Orbitals   0... 64  to  65...356
 Operator 1:  Orbitals   0... 63  to  64...356
Variables per perturbation     ... 37732
DFT calculation                         ... on
XC functional terms                     ... off
Hybrid DFT                              ... on
   Exchange mixing (SCF)                ...  0.200
   Exchange mixing (CP-SCF)             ...  0.200
   GGA exch. scaling(SCF)               ...  0.720
   GGA exch. scaling (CP-SCF)           ...  0.720
   GGA corr. scaling (SCF)              ...  0.810
   GGA corr. scaling (CP-SCF)           ...  0.810

CP-SCF GRID
-----------

General Integration Accuracy     IntAcc      ... 3.467
Radial Grid Type                 RadialGrid  ... OptM3 with GC (2021)
Angular Grid (max. ang.)         AngularGrid ... 1 (Lebedev-50)
Angular grid pruning method      GridPruning ... 4 (adaptive)
Weight generation scheme         WeightScheme... Becke
Basis function cutoff            BFCut       ... 1.0000e-10
Integration weight cutoff        WCut        ... 1.0000e-14
Angular grids for H and He will be reduced by one unit
Partially contracted basis set               ... off
Rotationally invariant grid construction     ... off

Total number of grid points                  ...    24800
Total number of batches                      ...      406
Average number of points per batch           ...       61
Average number of grid points per atom       ...      636

CP-SCF GRIDX
------------

General Integration Accuracy     IntAcc      ... 3.067
Radial Grid Type                 RadialGrid  ... OptM3 with GC (2021)
Angular Grid (max. ang.)         AngularGrid ... 1 (Lebedev-50)
Angular grid pruning method      GridPruning ... 4 (adaptive)
Weight generation scheme         WeightScheme... Becke
Basis function cutoff            BFCut       ... 1.0000e-10
Integration weight cutoff        WCut        ... 1.0000e-14
Angular grids for H and He will be reduced by one unit
Partially contracted basis set               ... on
Rotationally invariant grid construction     ... off

Total number of grid points                  ...    11665
Total number of batches                      ...      205
Average number of points per batch           ...       56
Average number of grid points per atom       ...      299

Memory available               ... 907.1 MB
Memory needed per perturbation ...   8.1 MB
Perturbations treated per batch... 3
Number of batches              ... 1
     CP-SCF ITERATION   0:   1.0063e-01 (   1.2 sec   0/  3 done)
     CP-SCF ITERATION   1:   1.5336e-03 (   1.1 sec   2/  3 done)
     CP-SCF ITERATION   2:   9.5172e-05 (   0.8 sec   3/  3 done)
                    *** THE CP-SCF HAS CONVERGED ***

Forming final perturbed densities           ... done
Transforming perturbed density to AO basis  ... done

 Raw HFC matrix (all values in MHz): 
 -----------------------------------
                 2.0920               0.1623              -0.0170
                 0.1623               4.6672              -0.0013
                -0.0170              -0.0013               3.1074

 A(FC)           3.2891               3.2891               3.2891
 A(SD)          -1.2075              -0.1815               1.3891
 A(ORB+DIA)     -0.0001               0.0001              -0.0008    A(PC) =  -0.0003
 A(ORB)          0.0000              -0.0001              -0.0010    A(PC) =  -0.0004
 A(DIA)         -0.0002               0.0002               0.0001    A(PC) =   0.0001
             ----------           ----------           ----------
 A(Tot)          2.0815               3.1077               4.6774    A(iso)=    3.2889
 Orientation: 
  X           0.9978998           -0.0163586           -0.0626768
  Y          -0.0626437            0.0025285           -0.9980328
  Z           0.0164849            0.9998630            0.0014984

Notes:  (1) The A matrix conforms to the "SAI" spin Hamiltonian convention.
        (2) Tensor is right-handed.

 -----------------------------------------------------------
 Nucleus  37H : A:ISTP=    1 I=  0.5 P=533.5514 MHz/au**3
                Q:ISTP=    2 I=  1.0 Q=  0.0029 barn     
 -----------------------------------------------------------
 Solving for nuclear perturbation:
Forming RHS of the CP-SCF equations         ... 
Calc. nucleus orbit integrals (SHARK)       ... done

------------------------------------------------------------------------------
                           ORCA CP-SCF CALCULATION
------------------------------------------------------------------------------

Input orbitals are from        ... cc-pVDZ_i.gbw
Input Perturbation             ... cc-pVDZ_i.pin.tmp
Wavefunction output            ... cc-pVDZ_i.pout.tmp
Perturbation mode              ... Imaginary perturbation
Solver                         ... POPLE
Max. number of iterations      ... 64
Convergence tolerance          ... 1.000e-03
Integral handling              ... Direct
DFT GridXC                     ... 1
COSX GridX                     ... 1
COSX IntAccX                   ... 3.067
COSX Algorithm                 ... Auto
Number of perturbations        ... 3
Number of operators            ... 2
Orbital ranges used for CP-SCF:
 Operator 0:  Orbitals   0... 64  to  65...356
 Operator 1:  Orbitals   0... 63  to  64...356
Variables per perturbation     ... 37732
DFT calculation                         ... on
XC functional terms                     ... off
Hybrid DFT                              ... on
   Exchange mixing (SCF)                ...  0.200
   Exchange mixing (CP-SCF)             ...  0.200
   GGA exch. scaling(SCF)               ...  0.720
   GGA exch. scaling (CP-SCF)           ...  0.720
   GGA corr. scaling (SCF)              ...  0.810
   GGA corr. scaling (CP-SCF)           ...  0.810

CP-SCF GRID
-----------

General Integration Accuracy     IntAcc      ... 3.467
Radial Grid Type                 RadialGrid  ... OptM3 with GC (2021)
Angular Grid (max. ang.)         AngularGrid ... 1 (Lebedev-50)
Angular grid pruning method      GridPruning ... 4 (adaptive)
Weight generation scheme         WeightScheme... Becke
Basis function cutoff            BFCut       ... 1.0000e-10
Integration weight cutoff        WCut        ... 1.0000e-14
Angular grids for H and He will be reduced by one unit
Partially contracted basis set               ... off
Rotationally invariant grid construction     ... off

Total number of grid points                  ...    24800
Total number of batches                      ...      406
Average number of points per batch           ...       61
Average number of grid points per atom       ...      636

CP-SCF GRIDX
------------

General Integration Accuracy     IntAcc      ... 3.067
Radial Grid Type                 RadialGrid  ... OptM3 with GC (2021)
Angular Grid (max. ang.)         AngularGrid ... 1 (Lebedev-50)
Angular grid pruning method      GridPruning ... 4 (adaptive)
Weight generation scheme         WeightScheme... Becke
Basis function cutoff            BFCut       ... 1.0000e-10
Integration weight cutoff        WCut        ... 1.0000e-14
Angular grids for H and He will be reduced by one unit
Partially contracted basis set               ... on
Rotationally invariant grid construction     ... off

Total number of grid points                  ...    11665
Total number of batches                      ...      205
Average number of points per batch           ...       56
Average number of grid points per atom       ...      299

Memory available               ... 906.7 MB
Memory needed per perturbation ...   8.1 MB
Perturbations treated per batch... 3
Number of batches              ... 1
     CP-SCF ITERATION   0:   3.6581e-02 (   1.1 sec   0/  3 done)
     CP-SCF ITERATION   1:   6.4723e-04 (   1.1 sec   3/  3 done)
                    *** THE CP-SCF HAS CONVERGED ***

Forming final perturbed densities           ... done
Transforming perturbed density to AO basis  ... done

 Raw HFC matrix (all values in MHz): 
 -----------------------------------
                -0.7775               0.2397               0.0004
                 0.2396               0.7242               0.0017
                 0.0004               0.0017              -0.7943

 A(FC)          -0.2826              -0.2826              -0.2826
 A(SD)           1.0437              -0.5116              -0.5321
 A(ORB+DIA)      0.0005              -0.0001              -0.0001    A(PC) =   0.0001
 A(ORB)          0.0004               0.0000              -0.0001    A(PC) =   0.0001
 A(DIA)          0.0001              -0.0001              -0.0001    A(PC) =  -0.0000
             ----------           ----------           ----------
 A(Tot)          0.7615              -0.7943              -0.8148    A(iso)=   -0.2825
 Orientation: 
  X          -0.1538691           -0.0046981            0.9880801
  Y          -0.9880906            0.0018658           -0.1538619
  Z          -0.0011207           -0.9999872           -0.0049292

Notes:  (1) The A matrix conforms to the "SAI" spin Hamiltonian convention.
        (2) Tensor is right-handed.

 -----------------------------------------------------------
 Nucleus  38H : A:ISTP=    1 I=  0.5 P=533.5514 MHz/au**3
                Q:ISTP=    2 I=  1.0 Q=  0.0029 barn     
 -----------------------------------------------------------
 Solving for nuclear perturbation:
Forming RHS of the CP-SCF equations         ... 
Calc. nucleus orbit integrals (SHARK)       ... done

------------------------------------------------------------------------------
                           ORCA CP-SCF CALCULATION
------------------------------------------------------------------------------

Input orbitals are from        ... cc-pVDZ_i.gbw
Input Perturbation             ... cc-pVDZ_i.pin.tmp
Wavefunction output            ... cc-pVDZ_i.pout.tmp
Perturbation mode              ... Imaginary perturbation
Solver                         ... POPLE
Max. number of iterations      ... 64
Convergence tolerance          ... 1.000e-03
Integral handling              ... Direct
DFT GridXC                     ... 1
COSX GridX                     ... 1
COSX IntAccX                   ... 3.067
COSX Algorithm                 ... Auto
Number of perturbations        ... 3
Number of operators            ... 2
Orbital ranges used for CP-SCF:
 Operator 0:  Orbitals   0... 64  to  65...356
 Operator 1:  Orbitals   0... 63  to  64...356
Variables per perturbation     ... 37732
DFT calculation                         ... on
XC functional terms                     ... off
Hybrid DFT                              ... on
   Exchange mixing (SCF)                ...  0.200
   Exchange mixing (CP-SCF)             ...  0.200
   GGA exch. scaling(SCF)               ...  0.720
   GGA exch. scaling (CP-SCF)           ...  0.720
   GGA corr. scaling (SCF)              ...  0.810
   GGA corr. scaling (CP-SCF)           ...  0.810

CP-SCF GRID
-----------

General Integration Accuracy     IntAcc      ... 3.467
Radial Grid Type                 RadialGrid  ... OptM3 with GC (2021)
Angular Grid (max. ang.)         AngularGrid ... 1 (Lebedev-50)
Angular grid pruning method      GridPruning ... 4 (adaptive)
Weight generation scheme         WeightScheme... Becke
Basis function cutoff            BFCut       ... 1.0000e-10
Integration weight cutoff        WCut        ... 1.0000e-14
Angular grids for H and He will be reduced by one unit
Partially contracted basis set               ... off
Rotationally invariant grid construction     ... off

Total number of grid points                  ...    24800
Total number of batches                      ...      406
Average number of points per batch           ...       61
Average number of grid points per atom       ...      636

CP-SCF GRIDX
------------

General Integration Accuracy     IntAcc      ... 3.067
Radial Grid Type                 RadialGrid  ... OptM3 with GC (2021)
Angular Grid (max. ang.)         AngularGrid ... 1 (Lebedev-50)
Angular grid pruning method      GridPruning ... 4 (adaptive)
Weight generation scheme         WeightScheme... Becke
Basis function cutoff            BFCut       ... 1.0000e-10
Integration weight cutoff        WCut        ... 1.0000e-14
Angular grids for H and He will be reduced by one unit
Partially contracted basis set               ... on
Rotationally invariant grid construction     ... off

Total number of grid points                  ...    11665
Total number of batches                      ...      205
Average number of points per batch           ...       56
Average number of grid points per atom       ...      299

Memory available               ... 906.3 MB
Memory needed per perturbation ...   8.1 MB
Perturbations treated per batch... 3
Number of batches              ... 1
     CP-SCF ITERATION   0:   3.6631e-02 (   1.1 sec   0/  3 done)
     CP-SCF ITERATION   1:   6.5691e-04 (   1.1 sec   3/  3 done)
                    *** THE CP-SCF HAS CONVERGED ***

Forming final perturbed densities           ... done
Transforming perturbed density to AO basis  ... done

 Raw HFC matrix (all values in MHz): 
 -----------------------------------
                -0.1193               0.0642               0.0000
                 0.0642               0.2305               0.0002
                 0.0000               0.0002              -0.1308

 A(FC)          -0.0066              -0.0066              -0.0066
 A(SD)          -0.1242              -0.1243               0.2484
 A(ORB+DIA)      0.0000               0.0000               0.0001    A(PC) =   0.0000
 A(ORB)         -0.0000               0.0000               0.0001    A(PC) =   0.0000
 A(DIA)          0.0000               0.0000               0.0000    A(PC) =   0.0000
             ----------           ----------           ----------
 A(Tot)         -0.1307              -0.1308               0.2419    A(iso)=   -0.0066
 Orientation: 
  X           0.9845518           -0.0050992            0.1750190
  Y          -0.1750132            0.0015800            0.9845648
  Z          -0.0052971           -0.9999858            0.0006631

Notes:  (1) The A matrix conforms to the "SAI" spin Hamiltonian convention.
        (2) Tensor is right-handed.


--------------------------------------------------------------------------------
----------------------------------------------------------------------------
                           ORCA EULER ANGLE PROGRAM
----------------------------------------------------------------------------

Only g-tensor available        -->  using g-tensor as reference tensor

Reference tensor               ...  g

g-tensor ordering              ...  |g_min> --> |gx>
                                    |g_mid> --> |gy>
                                    |g_max> --> |gz>

A- and EFG-tensor ordering     ...  the axes |Ax>, |Qx>, |Ay>, etc. are assigned
                                    such that the Euler rotation is minimal. You
                                    can find the respective eigenvalues as Ax,
                                    EFGx, Ay, etc. in the tables below.
                                    The relation of |Ax>, |Ay>,  etc. to Amin, Amid, etc.
                                    (as printed in the ORCA EPR/NMR CALCULATION Output)
                                    is obtained in the detailed printout.

Euler rotation around          ...  z - y - z
   First rotation              -->  by alpha around z
   Second rotation             -->  by beta around y'
   Third rotation              -->  by gamma around z''
   Positive / Negative angle   -->  clockwise / counterclockwise rotation

Plot EFG-tensors                    (-)
Plot HFC-tensors                    (-)
Detailed Printout                   (-)

-------------------------------------------------------------------------
          Euler rotation of hyperfine tensor to g-tensor
-------------------------------------------------------------------------

-------------------------------------------------------------------
 Atom  |   Alpha    Beta    Gamma   |   Ax       Ay       Az 
       |          [degrees]         |           [MHz]         
-------------------------------------------------------------------
  9H      -90.9      3.2     90.9     -16.03    -7.00   -19.50
 10H      -89.9      6.1     90.0       4.04     4.70     9.54
 12H      -90.0     43.7     90.0     -46.39   -71.35   -17.34
 14H      -16.0     12.5     -2.0      57.51    67.13    58.81
 15H     -164.0     12.2   -178.2      57.24    66.87    58.56
 17H       24.9     31.3    -55.9      -3.17    -3.03     3.18
 18H      152.7     28.5   -121.2      -3.19    -3.03     3.19
 20H     -129.9     47.4    153.1      -0.10     2.26     0.02
 21H      -49.9     47.7     26.6      -0.10     2.25     0.02
 23H     -141.4     17.5   -176.0      20.50    21.08    24.22
 24H      -38.7     17.4     -3.7      20.40    20.97    24.11
 26H      -84.0     29.9     97.4      -0.98     0.99    -0.86
 27H      -96.4     30.0     83.2      -0.98     0.99    -0.86
 29H       69.0     30.0   -107.4      -0.10    -0.15     0.81
 30H      111.0     29.9    -72.4      -0.10    -0.15     0.81
 32H      -94.6     42.7     86.3      -0.13     0.38    -0.10
 33H      -85.5     42.7     94.1      -0.13     0.38    -0.10
 35H       89.6     40.5    -90.0      -7.89    -2.35   -10.83
 36H       89.7     43.9    -90.0       3.11     2.08     4.68
 37H       90.8     38.7    -89.9      -0.79    -0.81     0.76
 38H       90.9     37.4    -89.9      -0.13    -0.13     0.24
-------------------------------------------------------------------


Maximum memory used throughout the entire EPRNMR-calculation: 163.0 MB

Timings for individual modules:

Sum of individual times         ...     1905.301 sec (=  31.755 min)
GTO integral calculation        ...        3.967 sec (=   0.066 min)   0.2 %
Spin-Orbit-Coupling Matrices    ...        6.595 sec (=   0.110 min)   0.3 %
SCF iterations                  ...       20.738 sec (=   0.346 min)   1.1 %
EPR/NMR calculation             ...     1874.000 sec (=  31.233 min)  98.4 %
                             ****ORCA TERMINATED NORMALLY****
TOTAL RUN TIME: 0 days 0 hours 31 minutes 49 seconds 395 msec
