
                                 *****************
                                 * O   R   C   A *
                                 *****************

                                            #,                                       
                                            ###                                      
                                            ####                                     
                                            #####                                    
                                            ######                                   
                                           ########,                                 
                                     ,,################,,,,,                         
                               ,,#################################,,                 
                          ,,##########################################,,             
                       ,#########################################, ''#####,          
                    ,#############################################,,   '####,        
                  ,##################################################,,,,####,       
                ,###########''''           ''''###############################       
              ,#####''   ,,,,##########,,,,          '''####'''          '####       
            ,##' ,,,,###########################,,,                        '##       
           ' ,,###''''                  '''############,,,                           
         ,,##''                                '''############,,,,        ,,,,,,###''
      ,#''                                            '''#######################'''  
     '                                                          ''''####''''         
             ,#######,   #######,   ,#######,      ##                                
            ,#'     '#,  ##    ##  ,#'     '#,    #''#        ######   ,####,        
            ##       ##  ##   ,#'  ##            #'  '#       #        #'  '#        
            ##       ##  #######   ##           ,######,      #####,   #    #        
            '#,     ,#'  ##    ##  '#,     ,#' ,#      #,         ##   #,  ,#        
             '#######'   ##     ##  '#######'  #'      '#     #####' # '####'        



                  #######################################################
                  #                        -***-                        #
                  #          Department of theory and spectroscopy      #
                  #    Directorship and core code : Frank Neese         #
                  #        Max Planck Institute fuer Kohlenforschung    #
                  #                Kaiser Wilhelm Platz 1               #
                  #                 D-45470 Muelheim/Ruhr               #
                  #                      Germany                        #
                  #                                                     #
                  #                  All rights reserved                #
                  #                        -***-                        #
                  #######################################################


                         Program Version 5.0.4 -  RELEASE  -


 With contributions from (in alphabetic order):
   Daniel Aravena         : Magnetic Suceptibility
   Michael Atanasov       : Ab Initio Ligand Field Theory (pilot matlab implementation)
   Alexander A. Auer      : GIAO ZORA, VPT2 properties, NMR spectrum
   Ute Becker             : Parallelization
   Giovanni Bistoni       : ED, misc. LED, open-shell LED, HFLD
   Martin Brehm           : Molecular dynamics
   Dmytro Bykov           : SCF Hessian
   Vijay G. Chilkuri      : MRCI spin determinant printing, contributions to CSF-ICE
   Dipayan Datta          : RHF DLPNO-CCSD density
   Achintya Kumar Dutta   : EOM-CC, STEOM-CC
   Dmitry Ganyushin       : Spin-Orbit,Spin-Spin,Magnetic field MRCI
   Miquel Garcia          : C-PCM and meta-GGA Hessian, CC/C-PCM, Gaussian charge scheme
   Yang Guo               : DLPNO-NEVPT2, F12-NEVPT2, CIM, IAO-localization
   Andreas Hansen         : Spin unrestricted coupled pair/coupled cluster methods
   Benjamin Helmich-Paris : MC-RPA, TRAH-SCF, COSX integrals
   Lee Huntington         : MR-EOM, pCC
   Robert Izsak           : Overlap fitted RIJCOSX, COSX-SCS-MP3, EOM
   Marcus Kettner         : VPT2
   Christian Kollmar      : KDIIS, OOCD, Brueckner-CCSD(T), CCSD density, CASPT2, CASPT2-K
   Simone Kossmann        : Meta GGA functionals, TD-DFT gradient, OOMP2, MP2 Hessian
   Martin Krupicka        : Initial AUTO-CI
   Lucas Lang             : DCDCAS
   Marvin Lechner         : AUTO-CI (C++ implementation), FIC-MRCC
   Dagmar Lenk            : GEPOL surface, SMD
   Dimitrios Liakos       : Extrapolation schemes; Compound Job, initial MDCI parallelization
   Dimitrios Manganas     : Further ROCIS development; embedding schemes
   Dimitrios Pantazis     : SARC Basis sets
   Anastasios Papadopoulos: AUTO-CI, single reference methods and gradients
   Taras Petrenko         : DFT Hessian,TD-DFT gradient, ASA, ECA, R-Raman, ABS, FL, XAS/XES, NRVS
   Peter Pinski           : DLPNO-MP2, DLPNO-MP2 Gradient
   Christoph Reimann      : Effective Core Potentials
   Marius Retegan         : Local ZFS, SOC
   Christoph Riplinger    : Optimizer, TS searches, QM/MM, DLPNO-CCSD(T), (RO)-DLPNO pert. Triples
   Tobias Risthaus        : Range-separated hybrids, TD-DFT gradient, RPA, STAB
   Michael Roemelt        : Original ROCIS implementation
   Masaaki Saitow         : Open-shell DLPNO-CCSD energy and density
   Barbara Sandhoefer     : DKH picture change effects
   Avijit Sen             : IP-ROCIS
   Kantharuban Sivalingam : CASSCF convergence, NEVPT2, FIC-MRCI
   Bernardo de Souza      : ESD, SOC TD-DFT
   Georgi Stoychev        : AutoAux, RI-MP2 NMR, DLPNO-MP2 response
   Willem Van den Heuvel  : Paramagnetic NMR
   Boris Wezisla          : Elementary symmetry handling
   Frank Wennmohs         : Technical directorship


 We gratefully acknowledge several colleagues who have allowed us to
 interface, adapt or use parts of their codes:
   Stefan Grimme, W. Hujo, H. Kruse, P. Pracht,  : VdW corrections, initial TS optimization,
                  C. Bannwarth, S. Ehlert          DFT functionals, gCP, sTDA/sTD-DF
   Ed Valeev, F. Pavosevic, A. Kumar             : LibInt (2-el integral package), F12 methods
   Garnet Chan, S. Sharma, J. Yang, R. Olivares  : DMRG
   Ulf Ekstrom                                   : XCFun DFT Library
   Mihaly Kallay                                 : mrcc  (arbitrary order and MRCC methods)
   Jiri Pittner, Ondrej Demel                    : Mk-CCSD
   Frank Weinhold                                : gennbo (NPA and NBO analysis)
   Christopher J. Cramer and Donald G. Truhlar   : smd solvation model
   Lars Goerigk                                  : TD-DFT with DH, B97 family of functionals
   V. Asgeirsson, H. Jonsson                     : NEB implementation
   FAccTs GmbH                                   : IRC, NEB, NEB-TS, DLPNO-Multilevel, CI-OPT
                                                   MM, QMMM, 2- and 3-layer-ONIOM, Crystal-QMMM,
                                                   LR-CPCM, SF, NACMEs, symmetry and pop. for TD-DFT,
                                                   nearIR, NL-DFT gradient (VV10), updates on ESD,
                                                   ML-optimized integration grids
   S Lehtola, MJT Oliveira, MAL Marques          : LibXC Library
   Liviu Ungur et al                             : ANISO software


 Your calculation uses the libint2 library for the computation of 2-el integrals
 For citations please refer to: http://libint.valeyev.net

 Your ORCA version has been built with support for libXC version: 5.1.0
 For citations please refer to: https://tddft.org/programs/libxc/

 This ORCA versions uses:
   CBLAS   interface :  Fast vector & matrix operations
   LAPACKE interface :  Fast linear algebra routines
   SCALAPACK package :  Parallel linear algebra routines
   Shared memory     :  Shared parallel matrices
   BLAS/LAPACK       :  OpenBLAS 0.3.15  USE64BITINT DYNAMIC_ARCH NO_AFFINITY SkylakeX SINGLE_THREADED
        Core in use  :  SkylakeX
   Copyright (c) 2011-2014, The OpenBLAS Project




***************************************
The coordinates will be read from file: opt.xyz
***************************************


================================================================================

----- Orbital basis set information -----
Your calculation utilizes the basis: cc-pVDZ 
       H, B-Ne : Obtained from the ccRepo (grant-hill.group.shef.ac.uk/ccrepo) Feb. 2017
                 T. H. Dunning, Jr., J. Chem. Phys. 90, 1007 (1989)
            He : Obtained from the ccRepo (grant-hill.group.shef.ac.uk/ccrepo) Feb. 2017
                 D. E. Woon, T. H. Dunning, Jr., J. Chem. Phys. 100, 2975 (1994)
  Li-Be, Na-Mg : Obtained from the ccRepo (grant-hill.group.shef.ac.uk/ccrepo) Feb. 2017
                 B. P. Prascher, D. E. Woon, K. A. Peterson, T. H. Dunning, Jr., A. K. Wilson, Theor. Chem. Acc. 128, 69 (2011)
         Al-Ar : Obtained from the ccRepo (grant-hill.group.shef.ac.uk/ccrepo) Feb. 2017
                 D. E. Woon, T. H. Dunning, Jr., J. Chem. Phys. 98, 1358 (1993)
            Ca : Obtained from the Peterson Research Group Website (tyr0.chem.wsu.edu/~kipeters) Feb. 2017
                 J. Koput, K. A. Peterson, J. Phys. Chem. 106, 9595 (2002)
         Sc-Zn : Obtained from the ccRepo (grant-hill.group.shef.ac.uk/ccrepo) Feb. 2017
                 N. B. Balabanov, K. A. Peterson, J. Chem. Phys. 123, 064107 (2005)
                 N. B. Balabanov, K. A. Peterson, J. Chem. Phys. 125, 074110 (2006)
         Ga-Kr : Obtained from the ccRepo (grant-hill.group.shef.ac.uk/ccrepo) Feb. 2017
                 A. K. Wilson, D. E. Woon, K. A. Peterson, T. H. Dunning, Jr., J. Chem. Phys. 110, 7667 (1999)

----- AuxJ basis set information -----
Your calculation utilizes the AutoAux generation procedure.
  G. L. Stoychev, A. A. Auer, F. Neese, J. Chem. Theory Comput. 13, 554 (2017)

----- AuxC basis set information -----
Your calculation utilizes the AutoAux generation procedure.
  G. L. Stoychev, A. A. Auer, F. Neese, J. Chem. Theory Comput. 13, 554 (2017)

----- AuxJK basis set information -----
Your calculation utilizes the AutoAux generation procedure.
  G. L. Stoychev, A. A. Auer, F. Neese, J. Chem. Theory Comput. 13, 554 (2017)

================================================================================
                                        WARNINGS
                       Please study these warnings very carefully!
================================================================================

WARNING: Old DensityContainer found on disk!
         Will remove this file - 
         If you want to keep old densities, please start your calculation with a different basename. 


WARNING: your system is open-shell and RHF/RKS was chosen
  ===> : WILL SWITCH to UHF/UKS


INFO   : the flag for use of the SHARK integral package has been found!

================================================================================
                                       INPUT FILE
================================================================================
NAME = cc-pVDZ.inp
|  1> ! B3LYP cc-pVDZ AUTOAUX
|  2> %pal nprocs 16 end
|  3> *XYZFile 0 2 opt.xyz
|  4> %EPRNMR
|  5>         GTENSOR   TRUE
|  6>         NUCLEI    = ALL H {SHIFT, AISO, ADIP, AORB}
|  7>         ORI       CenterOfElCharge
|  8> END
|  9> 
| 10>                          ****END OF INPUT****
================================================================================

                       ****************************
                       * Single Point Calculation *
                       ****************************

---------------------------------
CARTESIAN COORDINATES (ANGSTROEM)
---------------------------------
  C      3.991788   -0.049240    0.058108
  C      2.775740    0.000818    0.040924
  C     -2.904926    0.001969   -0.021065
  C      1.348501    0.035970    0.024651
  C      0.635243    1.290110    0.014122
  C     -0.786025    1.210124   -0.000914
  C     -1.471080   -0.005896   -0.005830
  C     -0.755051   -1.242724    0.004473
  C      0.640732   -1.178015    0.019328
  H     -1.371296    2.129824   -0.008865
  H      1.223342   -2.098995    0.027465
  C      1.310813    2.530858    0.018832
  H      2.403663    2.505003    0.030818
  C      0.641084    3.872285    0.008661
  H     -0.020408    3.959192   -0.878174
  H     -0.042671    3.961660    0.878176
  C      1.626345    5.048246    0.019383
  H      2.275422    4.965813    0.910219
  H      2.296697    4.963937   -0.855394
  C      0.933467    6.412041    0.009601
  H      0.280768    6.536675    0.890987
  H      0.302265    6.534793   -0.887575
  C     -1.517430   -2.551443   -0.000599
  H     -2.203439   -2.555198    0.867109
  H     -2.188523   -2.557024   -0.879837
  C     -0.686654   -3.837261    0.007762
  H     -0.015119   -3.856287   -0.870392
  H     -0.031197   -3.855470    0.897992
  C     -1.555555   -5.100742    0.000739
  H     -2.229365   -5.083796    0.877444
  H     -2.214538   -5.084219   -0.887176
  C     -0.737137   -6.394159    0.007906
  H     -0.093627   -6.456407    0.902512
  H     -0.079125   -6.457034   -0.876030
  C     -4.120621    0.011732   -0.035488
  H      5.062776   -0.099657    0.078803
  H     -5.192882    0.026348   -0.050615
  H      1.665288    7.235733    0.017560
  H     -1.387506   -7.283908    0.002941

----------------------------
CARTESIAN COORDINATES (A.U.)
----------------------------
  NO LB      ZA    FRAG     MASS         X           Y           Z
   0 C     6.0000    0    12.011    7.543387   -0.093050    0.109809
   1 C     6.0000    0    12.011    5.245389    0.001546    0.077335
   2 C     6.0000    0    12.011   -5.489514    0.003722   -0.039807
   3 C     6.0000    0    12.011    2.548298    0.067973    0.046584
   4 C     6.0000    0    12.011    1.200436    2.437954    0.026687
   5 C     6.0000    0    12.011   -1.485371    2.286804   -0.001728
   6 C     6.0000    0    12.011   -2.779939   -0.011142   -0.011018
   7 C     6.0000    0    12.011   -1.426839   -2.348407    0.008453
   8 C     6.0000    0    12.011    1.210808   -2.226125    0.036525
   9 H     1.0000    0     1.008   -2.591374    4.024784   -0.016753
  10 H     1.0000    0     1.008    2.311781   -3.966526    0.051902
  11 C     6.0000    0    12.011    2.477077    4.782628    0.035587
  12 H     1.0000    0     1.008    4.542265    4.733770    0.058237
  13 C     6.0000    0    12.011    1.211473    7.317559    0.016367
  14 H     1.0000    0     1.008   -0.038565    7.481789   -1.659508
  15 H     1.0000    0     1.008   -0.080636    7.486452    1.659512
  16 C     6.0000    0    12.011    3.073346    9.539803    0.036628
  17 H     1.0000    0     1.008    4.299925    9.384027    1.720066
  18 H     1.0000    0     1.008    4.340129    9.380481   -1.616460
  19 C     6.0000    0    12.011    1.763996   12.117001    0.018144
  20 H     1.0000    0     1.008    0.530575   12.352525    1.683722
  21 H     1.0000    0     1.008    0.571197   12.348970   -1.677274
  22 C     6.0000    0    12.011   -2.867527   -4.821529   -0.001132
  23 H     1.0000    0     1.008   -4.163895   -4.828624    1.638599
  24 H     1.0000    0     1.008   -4.135709   -4.832075   -1.662650
  25 C     6.0000    0    12.011   -1.297588   -7.251373    0.014668
  26 H     1.0000    0     1.008   -0.028571   -7.287325   -1.644802
  27 H     1.0000    0     1.008   -0.058953   -7.285783    1.696960
  28 C     6.0000    0    12.011   -2.939572   -9.639005    0.001397
  29 H     1.0000    0     1.008   -4.212890   -9.606983    1.658129
  30 H     1.0000    0     1.008   -4.184870   -9.607782   -1.676520
  31 C     6.0000    0    12.011   -1.392986  -12.083209    0.014940
  32 H     1.0000    0     1.008   -0.176929  -12.200840    1.705500
  33 H     1.0000    0     1.008   -0.149525  -12.202026   -1.655456
  34 C     6.0000    0    12.011   -7.786844    0.022171   -0.067063
  35 H     1.0000    0     1.008    9.567261   -0.188325    0.148916
  36 H     1.0000    0     1.008   -9.813124    0.049791   -0.095648
  37 H     1.0000    0     1.008    3.146937   13.673554    0.033183
  38 H     1.0000    0     1.008   -2.622006  -13.764592    0.005558

--------------------------------
INTERNAL COORDINATES (ANGSTROEM)
--------------------------------
 C      0   0   0     0.000000000000     0.00000000     0.00000000
 C      1   0   0     1.217198970430     0.00000000     0.00000000
 C      2   1   0     5.681004601816   177.64740133     0.00000000
 C      2   1   3     1.427764709600   179.04098789     4.88395755
 C      4   2   1     1.442814618264   121.04115943   170.73551055
 C      5   4   2     1.423596374880   116.40940875   180.04250256
 C      6   5   4     1.395719002335   122.61642772     0.00000000
 C      7   6   5     1.429176852768   120.53451430     0.00000000
 C      8   7   6     1.397360852263   117.41574141     0.00000000
 H      6   5   4     1.090161686004   119.25290446   179.97372195
 H      9   8   7     1.089819105179   119.66547878   180.00401020
 C      5   4   2     1.412753188159   121.80168353     0.02653600
 H     12   5   4     1.093222111356   117.21282872     0.00000000
 C     12   5   4     1.499356079612   124.89824281   180.00328768
 H     14  12   5     1.109774899194   109.98224078   302.52491495
 H     14  12   5     1.109758438535   109.99562980    57.25191299
 C     14  12   5     1.534189837895   113.50703085   179.89831305
 H     17  14  12     1.105299665650   109.00159080   302.38291560
 H     17  14  12     1.105312042978   108.99511489    57.67838119
 C     17  14  12     1.529742060448   113.10575114   180.02885686
 H     20  17  14     1.103807064559   111.30839233    59.86338153
 H     20  17  14     1.103815962708   111.30588770   300.13928564
 C      8   7   6     1.514593813755   119.70734801   179.97863328
 H     23   8   7     1.106137308186   108.20869318   303.63256908
 H     23   8   7     1.106099383299   108.20498756    56.10248812
 C     23   8   7     1.530877907707   116.90901800   179.86322827
 H     26  23   8     1.105655588828   109.85973483   301.79885745
 H     26  23   8     1.105651982388   109.87342160    58.29631173
 C     26  23   8     1.533434330866   112.61459569   180.04061859
 H     29  26  23     1.105857029927   109.20818453   302.29266698
 H     29  26  23     1.105859668289   109.20968051    57.61940548
 C     29  26  23     1.530616666740   113.15782013   179.95573414
 H     32  29  26     1.103765994710   111.29604661    59.83705599
 H     32  29  26     1.103754258905   111.29386646   300.13043542
 C      3   2   1     1.215819505462   179.54822432   182.44144594
 H      1   2   4     1.072374000531   179.55017476   328.05163120
 H     35   3   7     1.072467397770   179.65444167   355.85773913
 H     20  17  14     1.101859419311   111.44324752   180.00312326
 H     32  29  26     1.102115761963   111.50913426   179.98299719

---------------------------
INTERNAL COORDINATES (A.U.)
---------------------------
 C      0   0   0     0.000000000000     0.00000000     0.00000000
 C      1   0   0     2.300172704604     0.00000000     0.00000000
 C      2   1   0    10.735542862978   177.64740133     0.00000000
 C      2   1   3     2.698084284822   179.04098789     4.88395755
 C      4   2   1     2.726524490537   121.04115943   170.73551055
 C      5   4   2     2.690207273767   116.40940875   180.04250256
 C      6   5   4     2.637526674323   122.61642772     0.00000000
 C      7   6   5     2.700752848671   120.53451430     0.00000000
 C      8   7   6     2.640629321039   117.41574141     0.00000000
 H      6   5   4     2.060107028241   119.25290446   179.97372195
 H      9   8   7     2.059459644304   119.66547878   180.00401020
 C      5   4   2     2.669716620445   121.80168353     0.02653600
 H     12   5   4     2.065890394010   117.21282872     0.00000000
 C     12   5   4     2.833372367697   124.89824281   180.00328768
 H     14  12   5     2.097170629776   109.98224078   302.52491495
 H     14  12   5     2.097139523638   109.99562980    57.25191299
 C     14  12   5     2.899198631066   113.50703085   179.89831305
 H     17  14  12     2.088713663994   109.00159080   302.38291560
 H     17  14  12     2.088737053754   108.99511489    57.67838119
 C     17  14  12     2.890793549788   113.10575114   180.02885686
 H     20  17  14     2.085893056704   111.30839233    59.86338153
 H     20  17  14     2.085909871769   111.30588770   300.13928564
 C      8   7   6     2.862167512128   119.70734801   179.97863328
 H     23   8   7     2.090296578984   108.20869318   303.63256908
 H     23   8   7     2.090224911335   108.20498756    56.10248812
 C     23   8   7     2.892939990037   116.90901800   179.86322827
 H     26  23   8     2.089386261324   109.85973483   301.79885745
 H     26  23   8     2.089379446140   109.87342160    58.29631173
 C     26  23   8     2.897770929690   112.61459569   180.04061859
 H     29  26  23     2.089766929834   109.20818453   302.29266698
 H     29  26  23     2.089771915615   109.20968051    57.61940548
 C     29  26  23     2.892446316155   113.15782013   179.95573414
 H     32  29  26     2.085815445937   111.29604661    59.83705599
 H     32  29  26     2.085793268480   111.29386646   300.13043542
 C      3   2   1     2.297565893602   179.54822432   182.44144594
 H      1   2   4     2.026493174142   179.55017476   328.05163120
 H     35   3   7     2.026669669345   179.65444167   355.85773913
 H     20  17  14     2.082212540579   111.44324752   180.00312326
 H     32  29  26     2.082696957988   111.50913426   179.98299719

---------------------
BASIS SET INFORMATION
---------------------
There are 2 groups of distinct atoms

 Group   1 Type C   : 17s4p1d contracted to 3s2p1d pattern {881/31/1}
 Group   2 Type H   : 4s1p contracted to 2s1p pattern {31/1}

Atom   0C    basis set group =>   1
Atom   1C    basis set group =>   1
Atom   2C    basis set group =>   1
Atom   3C    basis set group =>   1
Atom   4C    basis set group =>   1
Atom   5C    basis set group =>   1
Atom   6C    basis set group =>   1
Atom   7C    basis set group =>   1
Atom   8C    basis set group =>   1
Atom   9H    basis set group =>   2
Atom  10H    basis set group =>   2
Atom  11C    basis set group =>   1
Atom  12H    basis set group =>   2
Atom  13C    basis set group =>   1
Atom  14H    basis set group =>   2
Atom  15H    basis set group =>   2
Atom  16C    basis set group =>   1
Atom  17H    basis set group =>   2
Atom  18H    basis set group =>   2
Atom  19C    basis set group =>   1
Atom  20H    basis set group =>   2
Atom  21H    basis set group =>   2
Atom  22C    basis set group =>   1
Atom  23H    basis set group =>   2
Atom  24H    basis set group =>   2
Atom  25C    basis set group =>   1
Atom  26H    basis set group =>   2
Atom  27H    basis set group =>   2
Atom  28C    basis set group =>   1
Atom  29H    basis set group =>   2
Atom  30H    basis set group =>   2
Atom  31C    basis set group =>   1
Atom  32H    basis set group =>   2
Atom  33H    basis set group =>   2
Atom  34C    basis set group =>   1
Atom  35H    basis set group =>   2
Atom  36H    basis set group =>   2
Atom  37H    basis set group =>   2
Atom  38H    basis set group =>   2
---------------------------------
AUXILIARY/J BASIS SET INFORMATION
---------------------------------
There are 2 groups of distinct atoms

 Group   1 Type C   : 14s11p10d2f contracted to 14s11p10d2f pattern {11111111111111/11111111111/1111111111/11}
 Group   2 Type H   : 9s2p1d contracted to 9s2p1d pattern {111111111/11/1}

Atom   0C    basis set group =>   1
Atom   1C    basis set group =>   1
Atom   2C    basis set group =>   1
Atom   3C    basis set group =>   1
Atom   4C    basis set group =>   1
Atom   5C    basis set group =>   1
Atom   6C    basis set group =>   1
Atom   7C    basis set group =>   1
Atom   8C    basis set group =>   1
Atom   9H    basis set group =>   2
Atom  10H    basis set group =>   2
Atom  11C    basis set group =>   1
Atom  12H    basis set group =>   2
Atom  13C    basis set group =>   1
Atom  14H    basis set group =>   2
Atom  15H    basis set group =>   2
Atom  16C    basis set group =>   1
Atom  17H    basis set group =>   2
Atom  18H    basis set group =>   2
Atom  19C    basis set group =>   1
Atom  20H    basis set group =>   2
Atom  21H    basis set group =>   2
Atom  22C    basis set group =>   1
Atom  23H    basis set group =>   2
Atom  24H    basis set group =>   2
Atom  25C    basis set group =>   1
Atom  26H    basis set group =>   2
Atom  27H    basis set group =>   2
Atom  28C    basis set group =>   1
Atom  29H    basis set group =>   2
Atom  30H    basis set group =>   2
Atom  31C    basis set group =>   1
Atom  32H    basis set group =>   2
Atom  33H    basis set group =>   2
Atom  34C    basis set group =>   1
Atom  35H    basis set group =>   2
Atom  36H    basis set group =>   2
Atom  37H    basis set group =>   2
Atom  38H    basis set group =>   2
---------------------------------
AUXILIARY/C BASIS SET INFORMATION
---------------------------------
There are 2 groups of distinct atoms

 Group   1 Type C   : 14s11p10d2f contracted to 14s11p10d2f pattern {11111111111111/11111111111/1111111111/11}
 Group   2 Type H   : 9s2p1d contracted to 9s2p1d pattern {111111111/11/1}

Atom   0C    basis set group =>   1
Atom   1C    basis set group =>   1
Atom   2C    basis set group =>   1
Atom   3C    basis set group =>   1
Atom   4C    basis set group =>   1
Atom   5C    basis set group =>   1
Atom   6C    basis set group =>   1
Atom   7C    basis set group =>   1
Atom   8C    basis set group =>   1
Atom   9H    basis set group =>   2
Atom  10H    basis set group =>   2
Atom  11C    basis set group =>   1
Atom  12H    basis set group =>   2
Atom  13C    basis set group =>   1
Atom  14H    basis set group =>   2
Atom  15H    basis set group =>   2
Atom  16C    basis set group =>   1
Atom  17H    basis set group =>   2
Atom  18H    basis set group =>   2
Atom  19C    basis set group =>   1
Atom  20H    basis set group =>   2
Atom  21H    basis set group =>   2
Atom  22C    basis set group =>   1
Atom  23H    basis set group =>   2
Atom  24H    basis set group =>   2
Atom  25C    basis set group =>   1
Atom  26H    basis set group =>   2
Atom  27H    basis set group =>   2
Atom  28C    basis set group =>   1
Atom  29H    basis set group =>   2
Atom  30H    basis set group =>   2
Atom  31C    basis set group =>   1
Atom  32H    basis set group =>   2
Atom  33H    basis set group =>   2
Atom  34C    basis set group =>   1
Atom  35H    basis set group =>   2
Atom  36H    basis set group =>   2
Atom  37H    basis set group =>   2
Atom  38H    basis set group =>   2
----------------------------------
AUXILIARY/JK BASIS SET INFORMATION
----------------------------------
There are 2 groups of distinct atoms

 Group   1 Type C   : 14s11p10d2f contracted to 14s11p10d2f pattern {11111111111111/11111111111/1111111111/11}
 Group   2 Type H   : 9s2p1d contracted to 9s2p1d pattern {111111111/11/1}

Atom   0C    basis set group =>   1
Atom   1C    basis set group =>   1
Atom   2C    basis set group =>   1
Atom   3C    basis set group =>   1
Atom   4C    basis set group =>   1
Atom   5C    basis set group =>   1
Atom   6C    basis set group =>   1
Atom   7C    basis set group =>   1
Atom   8C    basis set group =>   1
Atom   9H    basis set group =>   2
Atom  10H    basis set group =>   2
Atom  11C    basis set group =>   1
Atom  12H    basis set group =>   2
Atom  13C    basis set group =>   1
Atom  14H    basis set group =>   2
Atom  15H    basis set group =>   2
Atom  16C    basis set group =>   1
Atom  17H    basis set group =>   2
Atom  18H    basis set group =>   2
Atom  19C    basis set group =>   1
Atom  20H    basis set group =>   2
Atom  21H    basis set group =>   2
Atom  22C    basis set group =>   1
Atom  23H    basis set group =>   2
Atom  24H    basis set group =>   2
Atom  25C    basis set group =>   1
Atom  26H    basis set group =>   2
Atom  27H    basis set group =>   2
Atom  28C    basis set group =>   1
Atom  29H    basis set group =>   2
Atom  30H    basis set group =>   2
Atom  31C    basis set group =>   1
Atom  32H    basis set group =>   2
Atom  33H    basis set group =>   2
Atom  34C    basis set group =>   1
Atom  35H    basis set group =>   2
Atom  36H    basis set group =>   2
Atom  37H    basis set group =>   2
Atom  38H    basis set group =>   2

Checking for AutoStart:
The File: cc-pVDZ.gbw exists
Trying to determine its content:
     ... Fine, the file contains calculation information
     ... Fine, the calculation information was read
     ... Fine, the file contains a basis set
     ... Fine, the basis set was read
     ... Fine, the file contains a geometry
     ... Fine, the geometry was read
     ... Fine, the file contains a set of orbitals
     ... Fine, the orbitals can be read
     => possible old guess file was deleted
     => GBW file was renamed to GES file
     => GES file is set as startup file
     => Guess is set to MORead
     ... now leaving AutoStart



           ************************************************************
           *        Program running with 16 parallel MPI-processes    *
           *              working on a common directory               *
           ************************************************************
------------------------------------------------------------------------------
                           ORCA GTO INTEGRAL CALCULATION
                           -- RI-GTO INTEGRALS CHOSEN --
------------------------------------------------------------------------------
------------------------------------------------------------------------------
                   ___                                                        
                  /   \      - P O W E R E D   B Y -                         
                 /     \                                                     
                 |  |  |   _    _      __       _____    __    __             
                 |  |  |  | |  | |    /  \     |  _  \  |  |  /  |          
                  \  \/   | |  | |   /    \    | | | |  |  | /  /          
                 / \  \   | |__| |  /  /\  \   | |_| |  |  |/  /          
                |  |  |   |  __  | /  /__\  \  |    /   |      \           
                |  |  |   | |  | | |   __   |  |    \   |  |\   \          
                \     /   | |  | | |  |  |  |  | |\  \  |  | \   \       
                 \___/    |_|  |_| |__|  |__|  |_| \__\ |__|  \__/        
                                                                              
                      - O R C A' S   B I G   F R I E N D -                    
                                      &                                       
                       - I N T E G R A L  F E E D E R -                       
                                                                              
 v1 FN, 2020, v2 2021                                                         
------------------------------------------------------------------------------


Reading SHARK input file cc-pVDZ.SHARKINP.tmp ... ok
----------------------
SHARK INTEGRAL PACKAGE
----------------------

Number of atoms                             ...     39
Number of basis functions                   ...    465
Number of shells                            ...    279
Maximum angular momentum                    ...      2
Integral batch strategy                     ... SHARK/LIBINT Hybrid
RI-J (if used) integral strategy            ... SPLIT-RIJ (Revised 2003 algorithm where possible)
Printlevel                                  ...      1
Contraction scheme used                     ... PARTIAL GENERAL contraction
Coulomb Range Separation                    ... NOT USED
Exchange Range Separation                   ... NOT USED
Finite Nucleus Model                        ... NOT USED
Auxiliary Coulomb fitting basis             ... AVAILABLE
   # of basis functions in Aux-J            ...   2418
   # of shells in Aux-J                     ...    918
   Maximum angular momentum in Aux-J        ...      3
Auxiliary J/K fitting basis                 ... AVAILABLE
   # of basis functions in Aux-JK           ...   2418
   # of shells in Aux-JK                    ...    918
   Maximum angular momentum in Aux-JK       ...      3
Auxiliary Correlation fitting basis         ... AVAILABLE
   # of basis functions in Aux-C            ...   2418
   # of shells in Aux-C                     ...    918
   Maximum angular momentum in Aux-C        ...      3
Auxiliary 'external' fitting basis          ... NOT available
Integral threshold                          ...     1.000000e-10
Primitive cut-off                           ...     1.000000e-11
Primitive pair pre-selection threshold      ...     1.000000e-11

Calculating pre-screening integrals         ... done (  0.0 sec) Dimension = 279
Calculating pre-screening integrals (ORCA)  ... done (  0.1 sec) Dimension = 171
Organizing shell pair data                  ... done (  0.1 sec)
Shell pair information
Total number of shell pairs                 ...     39060
Shell pairs after pre-screening             ...     18669
Total number of primitive shell pairs       ...     64020
Primitive shell pairs kept                  ...     25583
          la=0 lb=0:   8177 shell pairs
          la=1 lb=0:   6564 shell pairs
          la=1 lb=1:   1149 shell pairs
          la=2 lb=0:   1960 shell pairs
          la=2 lb=1:    698 shell pairs
          la=2 lb=2:    121 shell pairs

Calculating one electron integrals          ... done (  0.0 sec)
Calculating RI/J V-Matrix + Cholesky decomp.... done (  0.5 sec)
Calculating RI/JK V-Matrix + Cholesky decomp... done (  0.4 sec)
Calculating RI/C V-Matrix + Cholesky decomp.... done (  0.4 sec)
Calculating Nuclear repulsion               ... done (  0.0 sec) ENN=   1144.886103824135 Eh

SHARK setup successfully completed in   2.2 seconds

Maximum memory used throughout the entire GTOINT-calculation: 28.4 MB


           ************************************************************
           *        Program running with 16 parallel MPI-processes    *
           *              working on a common directory               *
           ************************************************************
-------------------------------------------------------------------------------
                                 ORCA SCF
-------------------------------------------------------------------------------

------------
SCF SETTINGS
------------
Hamiltonian:
 Density Functional     Method          .... DFT(GTOs)
 Exchange Functional    Exchange        .... B88
   X-Alpha parameter    XAlpha          ....  0.666667
   Becke's b parameter  XBeta           ....  0.004200
 Correlation Functional Correlation     .... LYP
 LDA part of GGA corr.  LDAOpt          .... VWN-5
 Gradients option       PostSCFGGA      .... off
 Hybrid DFT is turned on
   Fraction HF Exchange ScalHFX         ....  0.200000
   Scaling of DF-GGA-X  ScalDFX         ....  0.720000
   Scaling of DF-GGA-C  ScalDFC         ....  0.810000
   Scaling of DF-LDA-C  ScalLDAC        ....  1.000000
   Perturbative correction              ....  0.000000
   Density functional embedding theory  .... OFF
   NL short-range parameter             ....  4.800000
 RI-approximation to the Coulomb term is turned on
   Number of AuxJ basis functions       .... 2418
   RIJ-COSX (HFX calculated with COS-X)).... on


General Settings:
 Integral files         IntName         .... cc-pVDZ
 Hartree-Fock type      HFTyp           .... UHF
 Total Charge           Charge          ....    0
 Multiplicity           Mult            ....    2
 Number of Electrons    NEL             ....  129
 Basis Dimension        Dim             ....  357
 Nuclear Repulsion      ENuc            ....   1144.8861038241 Eh

Convergence Acceleration:
 DIIS                   CNVDIIS         .... on
   Start iteration      DIISMaxIt       ....    12
   Startup error        DIISStart       ....  0.200000
   # of expansion vecs  DIISMaxEq       ....     5
   Bias factor          DIISBfac        ....   1.050
   Max. coefficient     DIISMaxC        ....  10.000
 Trust-Rad. Augm. Hess. CNVTRAH         .... auto
   Auto Start mean grad. ratio tolernc. ....  1.125000
   Auto Start start iteration           ....     1
   Auto Start num. interpolation iter.  ....    10
   Max. Number of Micro iterations      ....    16
   Max. Number of Macro iterations      .... Maxiter - #DIIS iter
   Number of Davidson start vectors     ....     2
   Converg. threshold I  (grad. norm)   ....   5.000e-05
   Converg. threshold II (energy diff.) ....   1.000e-06
   Grad. Scal. Fac. for Micro threshold ....   0.100
   Minimum threshold for Micro iter.    ....   0.010
   NR start threshold (gradient norm)   ....   0.001
   Initial trust radius                 ....   0.400
   Minimum AH scaling param. (alpha)    ....   1.000
   Maximum AH scaling param. (alpha)    .... 1000.000
   Orbital update algorithm             .... Taylor
   White noise on init. David. guess    .... on
   Maximum white noise                  ....   0.010
   Quad. conv. algorithm                .... NR
 SOSCF                  CNVSOSCF        .... off
 Level Shifting         CNVShift        .... on
   Level shift para.    LevelShift      ....    0.2500
   Turn off err/grad.   ShiftErr        ....    0.0010
 Zerner damping         CNVZerner       .... off
 Static damping         CNVDamp         .... on
   Fraction old density DampFac         ....    0.7000
   Max. Damping (<1)    DampMax         ....    0.9800
   Min. Damping (>=0)   DampMin         ....    0.0000
   Turn off err/grad.   DampErr         ....    0.1000
 Fernandez-Rico         CNVRico         .... off

SCF Procedure:
 Maximum # iterations   MaxIter         ....   125
 SCF integral mode      SCFMode         .... Direct
   Integral package                     .... SHARK and LIBINT hybrid scheme
 Reset frequency        DirectResetFreq ....    20
 Integral Threshold     Thresh          ....  1.000e-10 Eh
 Primitive CutOff       TCut            ....  1.000e-11 Eh

Convergence Tolerance:
 Convergence Check Mode ConvCheckMode   .... Total+1el-Energy
 Convergence forced     ConvForced      .... 0
 Energy Change          TolE            ....  1.000e-06 Eh
 1-El. energy change                    ....  1.000e-03 Eh
 DIIS Error             TolErr          ....  1.000e-06


Diagonalization of the overlap matrix:
Smallest eigenvalue                        ... 1.275e-04
Time for diagonalization                   ...    0.031 sec
Threshold for overlap eigenvalues          ... 1.000e-08
Number of eigenvalues below threshold      ... 0
Time for construction of square roots      ...    0.033 sec
Total time needed                          ...    0.066 sec

---------------------
INITIAL GUESS: MOREAD
---------------------
Guess MOs are being read from file: cc-pVDZ.ges
Input Geometry matches current geometry (good)
Input basis set matches current basis set (good)
MOs were renormalized
MOs were reorthogonalized (Cholesky)
                      ------------------
                      INITIAL GUESS DONE (   0.1 sec)
                      ------------------
-------------------
DFT GRID GENERATION
-------------------

General Integration Accuracy     IntAcc      ... 4.388
Radial Grid Type                 RadialGrid  ... OptM3 with GC (2021)
Angular Grid (max. ang.)         AngularGrid ... 4 (Lebedev-302)
Angular grid pruning method      GridPruning ... 4 (adaptive)
Weight generation scheme         WeightScheme... Becke
Basis function cutoff            BFCut       ... 1.0000e-10
Integration weight cutoff        WCut        ... 1.0000e-14
Angular grids for H and He will be reduced by one unit
Partially contracted basis set               ... off
Rotationally invariant grid construction     ... off

Total number of grid points                  ...   174685
Total number of batches                      ...     2747
Average number of points per batch           ...       63
Average number of grid points per atom       ...     4479
Time for grid setup =    0.936 sec

--------------------
COSX GRID GENERATION
--------------------

GRIDX 1
-------
General Integration Accuracy     IntAcc      ... 3.816
Radial Grid Type                 RadialGrid  ... OptM3 with GC (2021)
Angular Grid (max. ang.)         AngularGrid ... 1 (Lebedev-50)
Angular grid pruning method      GridPruning ... 4 (adaptive)
Weight generation scheme         WeightScheme... Becke
Basis function cutoff            BFCut       ... 1.0000e-10
Integration weight cutoff        WCut        ... 1.0000e-14
Angular grids for H and He will be reduced by one unit
Partially contracted basis set               ... on
Rotationally invariant grid construction     ... off

Total number of grid points                  ...    22264
Total number of batches                      ...      371
Average number of points per batch           ...       60
Average number of grid points per atom       ...      571
UseSFitting                                  ... on

GRIDX 2
-------
General Integration Accuracy     IntAcc      ... 4.020
Radial Grid Type                 RadialGrid  ... OptM3 with GC (2021)
Angular Grid (max. ang.)         AngularGrid ... 2 (Lebedev-110)
Angular grid pruning method      GridPruning ... 4 (adaptive)
Weight generation scheme         WeightScheme... Becke
Basis function cutoff            BFCut       ... 1.0000e-10
Integration weight cutoff        WCut        ... 1.0000e-14
Angular grids for H and He will be reduced by one unit
Partially contracted basis set               ... on
Rotationally invariant grid construction     ... off

Total number of grid points                  ...    47311
Total number of batches                      ...      761
Average number of points per batch           ...       62
Average number of grid points per atom       ...     1213
UseSFitting                                  ... on

GRIDX 3
-------
General Integration Accuracy     IntAcc      ... 4.338
Radial Grid Type                 RadialGrid  ... OptM3 with GC (2021)
Angular Grid (max. ang.)         AngularGrid ... 3 (Lebedev-194)
Angular grid pruning method      GridPruning ... 4 (adaptive)
Weight generation scheme         WeightScheme... Becke
Basis function cutoff            BFCut       ... 1.0000e-10
Integration weight cutoff        WCut        ... 1.0000e-14
Angular grids for H and He will be reduced by one unit
Partially contracted basis set               ... on
Rotationally invariant grid construction     ... off

Total number of grid points                  ...   103513
Total number of batches                      ...     1637
Average number of points per batch           ...       63
Average number of grid points per atom       ...     2654
UseSFitting                                  ... on

Time for X-Grid setup             =    1.922 sec

 re-compute Schwartz prescreening matrix in partically contracted basis (1) ...done (   0.117 sec)
--------------
SCF ITERATIONS
--------------
ITER       Energy         Delta-E        Max-DP      RMS-DP      [F,P]     Damp
               ***  Starting incremental Fock matrix formation  ***
  0   -697.9671689550   0.000000000000 0.00001858  0.00000022  0.0000621 0.7000
                 **** Energy Check signals convergence ****

               *****************************************************
               *                     SUCCESS                       *
               *           SCF CONVERGED AFTER   1 CYCLES          *
               *****************************************************

Old exchange energy                            =    -20.130532049 Eh
New exchange energy                            =    -20.130633665 Eh
Exchange energy change after final integration =     -0.000101617 Eh
Total energy after final integration           =   -697.967270579 Eh
Final COS-X integration done in                =     4.528 sec

----------------
TOTAL SCF ENERGY
----------------

Total Energy       :         -697.96727058 Eh          -18992.65500 eV

Components:
Nuclear Repulsion  :         1144.88610382 Eh           31153.93472 eV
Electronic Energy  :        -1842.85337440 Eh          -50146.58972 eV
One Electron Energy:        -3212.88494880 Eh          -87427.04416 eV
Two Electron Energy:         1370.03157440 Eh           37280.45444 eV
Max COSX asymmetry :            0.00000051 Eh               0.00001 eV

Virial components:
Potential Energy   :        -1390.99868630 Eh          -37850.99856 eV
Kinetic Energy     :          693.03141572 Eh           18858.34356 eV
Virial Ratio       :            2.00712212


DFT components:
N(Alpha)           :       65.000136013217 electrons
N(Beta)            :       64.000126412031 electrons
N(Total)           :      129.000262425248 electrons
E(X)               :      -79.826039725935 Eh       
E(C)               :       -4.989832056599 Eh       
E(XC)              :      -84.815871782534 Eh       
DFET-embed. en.    :        0.000000000000 Eh       

---------------
SCF CONVERGENCE
---------------

  Last Energy change         ...   -7.1097e-09  Tolerance :   1.0000e-06
  Last MAX-Density change    ...    6.3519e-06  Tolerance :   1.0000e-05
  Last RMS-Density change    ...    7.7831e-08  Tolerance :   1.0000e-06
  Last DIIS Error            ...    3.0327e-05  Tolerance :   1.0000e-06

             **** THE GBW FILE WAS UPDATED (cc-pVDZ.gbw) ****
             **** DENSITY cc-pVDZ.scfp WAS UPDATED ****
             **** ENERGY FILE WAS UPDATED (cc-pVDZ.en.tmp) ****
----------------------
UHF SPIN CONTAMINATION
----------------------

Warning: in a DFT calculation there is little theoretical justification to 
         calculate <S**2> as in Hartree-Fock theory. We will do it anyways
         but you should keep in mind that the values have only limited relevance

Expectation value of <S**2>     :     0.785765
Ideal value S*(S+1) for S=0.5   :     0.750000
Deviation                       :     0.035765

             **** THE GBW FILE WAS UPDATED (cc-pVDZ.gbw) ****
             **** DENSITY cc-pVDZ.scfp WAS UPDATED ****
----------------
ORBITAL ENERGIES
----------------
                 SPIN UP ORBITALS
  NO   OCC          E(Eh)            E(eV) 
   0   1.0000     -10.215483      -277.9774 
   1   1.0000     -10.213413      -277.9211 
   2   1.0000     -10.204088      -277.6673 
   3   1.0000     -10.200054      -277.5576 
   4   1.0000     -10.196592      -277.4634 
   5   1.0000     -10.193629      -277.3827 
   6   1.0000     -10.192761      -277.3591 
   7   1.0000     -10.191727      -277.3310 
   8   1.0000     -10.190971      -277.3104 
   9   1.0000     -10.188937      -277.2551 
  10   1.0000     -10.187470      -277.2152 
  11   1.0000     -10.187434      -277.2142 
  12   1.0000     -10.186621      -277.1920 
  13   1.0000     -10.184336      -277.1299 
  14   1.0000     -10.182161      -277.0707 
  15   1.0000     -10.181861      -277.0625 
  16   1.0000     -10.177436      -276.9421 
  17   1.0000     -10.175686      -276.8945 
  18   1.0000      -0.875616       -23.8267 
  19   1.0000      -0.821125       -22.3440 
  20   1.0000      -0.798437       -21.7266 
  21   1.0000      -0.796390       -21.6709 
  22   1.0000      -0.769041       -20.9267 
  23   1.0000      -0.752779       -20.4842 
  24   1.0000      -0.731756       -19.9121 
  25   1.0000      -0.721403       -19.6304 
  26   1.0000      -0.698767       -19.0144 
  27   1.0000      -0.657578       -17.8936 
  28   1.0000      -0.640115       -17.4184 
  29   1.0000      -0.617999       -16.8166 
  30   1.0000      -0.594659       -16.1815 
  31   1.0000      -0.580849       -15.8057 
  32   1.0000      -0.563297       -15.3281 
  33   1.0000      -0.542226       -14.7547 
  34   1.0000      -0.524586       -14.2747 
  35   1.0000      -0.499449       -13.5907 
  36   1.0000      -0.486884       -13.2488 
  37   1.0000      -0.478510       -13.0209 
  38   1.0000      -0.471026       -12.8173 
  39   1.0000      -0.462831       -12.5943 
  40   1.0000      -0.434235       -11.8161 
  41   1.0000      -0.430619       -11.7177 
  42   1.0000      -0.426763       -11.6128 
  43   1.0000      -0.422393       -11.4939 
  44   1.0000      -0.412561       -11.2264 
  45   1.0000      -0.399074       -10.8593 
  46   1.0000      -0.398515       -10.8442 
  47   1.0000      -0.381050       -10.3689 
  48   1.0000      -0.379746       -10.3334 
  49   1.0000      -0.365968        -9.9585 
  50   1.0000      -0.358139        -9.7455 
  51   1.0000      -0.354909        -9.6576 
  52   1.0000      -0.341099        -9.2818 
  53   1.0000      -0.333280        -9.0690 
  54   1.0000      -0.331652        -9.0247 
  55   1.0000      -0.331051        -9.0084 
  56   1.0000      -0.328139        -8.9291 
  57   1.0000      -0.325086        -8.8460 
  58   1.0000      -0.321400        -8.7457 
  59   1.0000      -0.285598        -7.7715 
  60   1.0000      -0.276510        -7.5242 
  61   1.0000      -0.274883        -7.4800 
  62   1.0000      -0.271266        -7.3815 
  63   1.0000      -0.231114        -6.2889 
  64   1.0000      -0.174652        -4.7525 
  65   0.0000      -0.048341        -1.3154 
  66   0.0000       0.010944         0.2978 
  67   0.0000       0.040497         1.1020 
  68   0.0000       0.049396         1.3441 
  69   0.0000       0.052824         1.4374 
  70   0.0000       0.062601         1.7035 
  71   0.0000       0.063657         1.7322 
  72   0.0000       0.082240         2.2379 
  73   0.0000       0.085693         2.3318 
  74   0.0000       0.088698         2.4136 
  75   0.0000       0.091184         2.4813 
  76   0.0000       0.094690         2.5766 
  77   0.0000       0.095726         2.6048 
  78   0.0000       0.100954         2.7471 
  79   0.0000       0.102737         2.7956 
  80   0.0000       0.118044         3.2121 
  81   0.0000       0.125643         3.4189 
  82   0.0000       0.129977         3.5369 
  83   0.0000       0.144653         3.9362 
  84   0.0000       0.146886         3.9970 
  85   0.0000       0.151484         4.1221 
  86   0.0000       0.160061         4.3555 
  87   0.0000       0.160155         4.3580 
  88   0.0000       0.162044         4.4095 
  89   0.0000       0.168580         4.5873 
  90   0.0000       0.170388         4.6365 
  91   0.0000       0.178738         4.8637 
  92   0.0000       0.195892         5.3305 
  93   0.0000       0.204110         5.5541 
  94   0.0000       0.212257         5.7758 
  95   0.0000       0.217217         5.9108 
  96   0.0000       0.222620         6.0578 
  97   0.0000       0.242835         6.6079 
  98   0.0000       0.248316         6.7570 
  99   0.0000       0.260811         7.0970 
 100   0.0000       0.268475         7.3056 
 101   0.0000       0.290739         7.9114 
 102   0.0000       0.308287         8.3889 
 103   0.0000       0.323245         8.7960 
 104   0.0000       0.327168         8.9027 
 105   0.0000       0.348736         9.4896 
 106   0.0000       0.361052         9.8247 
 107   0.0000       0.366067         9.9612 
 108   0.0000       0.390502        10.6261 
 109   0.0000       0.409464        11.1421 
 110   0.0000       0.411485        11.1971 
 111   0.0000       0.412980        11.2378 
 112   0.0000       0.419192        11.4068 
 113   0.0000       0.423928        11.5357 
 114   0.0000       0.435735        11.8570 
 115   0.0000       0.439888        11.9700 
 116   0.0000       0.442288        12.0353 
 117   0.0000       0.461363        12.5543 
 118   0.0000       0.463115        12.6020 
 119   0.0000       0.470716        12.8088 
 120   0.0000       0.476309        12.9610 
 121   0.0000       0.478757        13.0276 
 122   0.0000       0.487701        13.2710 
 123   0.0000       0.502602        13.6765 
 124   0.0000       0.503757        13.7079 
 125   0.0000       0.505300        13.7499 
 126   0.0000       0.515987        14.0407 
 127   0.0000       0.522590        14.2204 
 128   0.0000       0.528363        14.3775 
 129   0.0000       0.540905        14.7188 
 130   0.0000       0.543320        14.7845 
 131   0.0000       0.551446        15.0056 
 132   0.0000       0.558095        15.1865 
 133   0.0000       0.560074        15.2404 
 134   0.0000       0.587168        15.9776 
 135   0.0000       0.588421        16.0118 
 136   0.0000       0.596329        16.2269 
 137   0.0000       0.604164        16.4401 
 138   0.0000       0.605564        16.4782 
 139   0.0000       0.607635        16.5346 
 140   0.0000       0.618525        16.8309 
 141   0.0000       0.624065        16.9817 
 142   0.0000       0.638973        17.3873 
 143   0.0000       0.641624        17.4595 
 144   0.0000       0.643810        17.5190 
 145   0.0000       0.644676        17.5425 
 146   0.0000       0.651760        17.7353 
 147   0.0000       0.654658        17.8142 
 148   0.0000       0.656446        17.8628 
 149   0.0000       0.659529        17.9467 
 150   0.0000       0.661772        18.0077 
 151   0.0000       0.662636        18.0312 
 152   0.0000       0.667981        18.1767 
 153   0.0000       0.668224        18.1833 
 154   0.0000       0.680229        18.5100 
 155   0.0000       0.681602        18.5473 
 156   0.0000       0.687242        18.7008 
 157   0.0000       0.690003        18.7759 
 158   0.0000       0.691795        18.8247 
 159   0.0000       0.697807        18.9883 
 160   0.0000       0.707397        19.2493 
 161   0.0000       0.718889        19.5620 
 162   0.0000       0.719526        19.5793 
 163   0.0000       0.728781        19.8311 
 164   0.0000       0.733319        19.9546 
 165   0.0000       0.735494        20.0138 
 166   0.0000       0.738178        20.0868 
 167   0.0000       0.747248        20.3336 
 168   0.0000       0.756776        20.5929 
 169   0.0000       0.768705        20.9175 
 170   0.0000       0.773605        21.0509 
 171   0.0000       0.781070        21.2540 
 172   0.0000       0.801910        21.8211 
 173   0.0000       0.818729        22.2787 
 174   0.0000       0.832039        22.6409 
 175   0.0000       0.832920        22.6649 
 176   0.0000       0.840994        22.8846 
 177   0.0000       0.852686        23.2028 
 178   0.0000       0.872488        23.7416 
 179   0.0000       0.879247        23.9255 
 180   0.0000       0.884499        24.0685 
 181   0.0000       0.912966        24.8431 
 182   0.0000       0.929342        25.2887 
 183   0.0000       0.938671        25.5425 
 184   0.0000       0.951633        25.8952 
 185   0.0000       0.978808        26.6347 
 186   0.0000       0.984275        26.7835 
 187   0.0000       0.990542        26.9540 
 188   0.0000       0.996602        27.1189 
 189   0.0000       1.014088        27.5947 
 190   0.0000       1.037435        28.2300 
 191   0.0000       1.042275        28.3617 
 192   0.0000       1.048034        28.5184 
 193   0.0000       1.049412        28.5560 
 194   0.0000       1.053753        28.6741 
 195   0.0000       1.065175        28.9849 
 196   0.0000       1.080665        29.4064 
 197   0.0000       1.084021        29.4977 
 198   0.0000       1.099598        29.9216 
 199   0.0000       1.144097        31.1325 
 200   0.0000       1.156753        31.4769 
 201   0.0000       1.165560        31.7165 
 202   0.0000       1.192819        32.4583 
 203   0.0000       1.204189        32.7676 
 204   0.0000       1.207187        32.8492 
 205   0.0000       1.208708        32.8906 
 206   0.0000       1.215311        33.0703 
 207   0.0000       1.218095        33.1460 
 208   0.0000       1.222593        33.2684 
 209   0.0000       1.227627        33.4054 
 210   0.0000       1.235981        33.6328 
 211   0.0000       1.257471        34.2175 
 212   0.0000       1.282844        34.9080 
 213   0.0000       1.288296        35.0563 
 214   0.0000       1.303909        35.4812 
 215   0.0000       1.308113        35.5956 
 216   0.0000       1.318265        35.8718 
 217   0.0000       1.327622        36.1264 
 218   0.0000       1.335407        36.3383 
 219   0.0000       1.345894        36.6236 
 220   0.0000       1.347418        36.6651 
 221   0.0000       1.372223        37.3401 
 222   0.0000       1.383853        37.6565 
 223   0.0000       1.388432        37.7812 
 224   0.0000       1.399276        38.0762 
 225   0.0000       1.409053        38.3423 
 226   0.0000       1.417298        38.5666 
 227   0.0000       1.424979        38.7756 
 228   0.0000       1.426481        38.8165 
 229   0.0000       1.428593        38.8740 
 230   0.0000       1.445937        39.3459 
 231   0.0000       1.452256        39.5179 
 232   0.0000       1.462240        39.7896 
 233   0.0000       1.468914        39.9712 
 234   0.0000       1.471403        40.0389 
 235   0.0000       1.483805        40.3764 
 236   0.0000       1.494292        40.6618 
 237   0.0000       1.520383        41.3717 
 238   0.0000       1.532221        41.6938 
 239   0.0000       1.537117        41.8271 
 240   0.0000       1.557045        42.3693 
 241   0.0000       1.558621        42.4122 
 242   0.0000       1.582848        43.0715 
 243   0.0000       1.585521        43.1442 
 244   0.0000       1.586286        43.1650 
 245   0.0000       1.601124        43.5688 
 246   0.0000       1.616673        43.9919 
 247   0.0000       1.622221        44.1429 
 248   0.0000       1.627858        44.2963 
 249   0.0000       1.630120        44.3578 
 250   0.0000       1.633021        44.4368 
 251   0.0000       1.639682        44.6180 
 252   0.0000       1.645743        44.7830 
 253   0.0000       1.651274        44.9334 
 254   0.0000       1.651631        44.9432 
 255   0.0000       1.660657        45.1888 
 256   0.0000       1.668761        45.4093 
 257   0.0000       1.671805        45.4921 
 258   0.0000       1.675740        45.5992 
 259   0.0000       1.685881        45.8751 
 260   0.0000       1.686450        45.8906 
 261   0.0000       1.694947        46.1218 
 262   0.0000       1.698856        46.2282 
 263   0.0000       1.702435        46.3256 
 264   0.0000       1.704141        46.3720 
 265   0.0000       1.710705        46.5507 
 266   0.0000       1.716938        46.7203 
 267   0.0000       1.725373        46.9498 
 268   0.0000       1.741895        47.3994 
 269   0.0000       1.752022        47.6749 
 270   0.0000       1.756070        47.7851 
 271   0.0000       1.762308        47.9548 
 272   0.0000       1.780615        48.4530 
 273   0.0000       1.783114        48.5210 
 274   0.0000       1.790105        48.7112 
 275   0.0000       1.796232        48.8779 
 276   0.0000       1.802447        49.0471 
 277   0.0000       1.814003        49.3615 
 278   0.0000       1.819518        49.5116 
 279   0.0000       1.822351        49.5887 
 280   0.0000       1.830342        49.8061 
 281   0.0000       1.857419        50.5429 
 282   0.0000       1.870076        50.8874 
 283   0.0000       1.879652        51.1479 
 284   0.0000       1.889138        51.4061 
 285   0.0000       1.896962        51.6190 
 286   0.0000       1.911873        52.0247 
 287   0.0000       1.915140        52.1136 
 288   0.0000       1.922028        52.3010 
 289   0.0000       1.929337        52.4999 
 290   0.0000       1.952838        53.1394 
 291   0.0000       1.975691        53.7613 
 292   0.0000       1.992230        54.2113 
 293   0.0000       1.996373        54.3241 
 294   0.0000       2.011809        54.7441 
 295   0.0000       2.024464        55.0885 
 296   0.0000       2.044703        55.6392 
 297   0.0000       2.050723        55.8030 
 298   0.0000       2.068038        56.2742 
 299   0.0000       2.075163        56.4680 
 300   0.0000       2.076803        56.5127 
 301   0.0000       2.085991        56.7627 
 302   0.0000       2.111641        57.4607 
 303   0.0000       2.126207        57.8570 
 304   0.0000       2.128127        57.9093 
 305   0.0000       2.128921        57.9309 
 306   0.0000       2.151720        58.5513 
 307   0.0000       2.155823        58.6629 
 308   0.0000       2.188958        59.5646 
 309   0.0000       2.199053        59.8393 
 310   0.0000       2.209881        60.1339 
 311   0.0000       2.212677        60.2100 
 312   0.0000       2.218635        60.3721 
 313   0.0000       2.227225        60.6059 
 314   0.0000       2.253189        61.3124 
 315   0.0000       2.260939        61.5233 
 316   0.0000       2.280983        62.0687 
 317   0.0000       2.291809        62.3633 
 318   0.0000       2.296916        62.5023 
 319   0.0000       2.301858        62.6367 
 320   0.0000       2.319737        63.1233 
 321   0.0000       2.326534        63.3082 
 322   0.0000       2.329459        63.3878 
 323   0.0000       2.334747        63.5317 
 324   0.0000       2.375149        64.6311 
 325   0.0000       2.382910        64.8423 
 326   0.0000       2.407463        65.5104 
 327   0.0000       2.410976        65.6060 
 328   0.0000       2.412205        65.6394 
 329   0.0000       2.413248        65.6678 
 330   0.0000       2.422109        65.9089 
 331   0.0000       2.424543        65.9752 
 332   0.0000       2.440773        66.4168 
 333   0.0000       2.484170        67.5977 
 334   0.0000       2.498760        67.9947 
 335   0.0000       2.502295        68.0909 
 336   0.0000       2.535446        68.9930 
 337   0.0000       2.545595        69.2692 
 338   0.0000       2.558618        69.6235 
 339   0.0000       2.592765        70.5527 
 340   0.0000       2.601381        70.7872 
 341   0.0000       2.625558        71.4451 
 342   0.0000       2.641804        71.8871 
 343   0.0000       2.661209        72.4152 
 344   0.0000       2.680471        72.9393 
 345   0.0000       2.713679        73.8430 
 346   0.0000       2.722316        74.0780 
 347   0.0000       2.754003        74.9402 
 348   0.0000       2.776775        75.5599 
 349   0.0000       2.823019        76.8182 
 350   0.0000       2.845091        77.4189 
 351   0.0000       2.871191        78.1291 
 352   0.0000       2.927822        79.6701 
 353   0.0000       3.006886        81.8215 
 354   0.0000       3.191110        86.8345 
 355   0.0000       3.202570        87.1464 
 356   0.0000       3.396010        92.4101 

                 SPIN DOWN ORBITALS
  NO   OCC          E(Eh)            E(eV) 
   0   1.0000     -10.215038      -277.9653 
   1   1.0000     -10.212060      -277.8843 
   2   1.0000     -10.202505      -277.6243 
   3   1.0000     -10.200626      -277.5732 
   4   1.0000     -10.193503      -277.3793 
   5   1.0000     -10.193326      -277.3745 
   6   1.0000     -10.192384      -277.3489 
   7   1.0000     -10.191744      -277.3315 
   8   1.0000     -10.189618      -277.2736 
   9   1.0000     -10.188079      -277.2317 
  10   1.0000     -10.187638      -277.2197 
  11   1.0000     -10.185332      -277.1570 
  12   1.0000     -10.184297      -277.1288 
  13   1.0000     -10.183611      -277.1102 
  14   1.0000     -10.182157      -277.0706 
  15   1.0000     -10.181861      -277.0625 
  16   1.0000     -10.177443      -276.9423 
  17   1.0000     -10.175688      -276.8945 
  18   1.0000      -0.872188       -23.7334 
  19   1.0000      -0.816054       -22.2060 
  20   1.0000      -0.795799       -21.6548 
  21   1.0000      -0.794994       -21.6329 
  22   1.0000      -0.766993       -20.8709 
  23   1.0000      -0.751913       -20.4606 
  24   1.0000      -0.727645       -19.8002 
  25   1.0000      -0.719940       -19.5906 
  26   1.0000      -0.696398       -18.9500 
  27   1.0000      -0.654511       -17.8102 
  28   1.0000      -0.638240       -17.3674 
  29   1.0000      -0.612407       -16.6644 
  30   1.0000      -0.593699       -16.1554 
  31   1.0000      -0.579275       -15.7629 
  32   1.0000      -0.560764       -15.2592 
  33   1.0000      -0.540934       -14.7196 
  34   1.0000      -0.522042       -14.2055 
  35   1.0000      -0.497255       -13.5310 
  36   1.0000      -0.485443       -13.2096 
  37   1.0000      -0.477131       -12.9834 
  38   1.0000      -0.470149       -12.7934 
  39   1.0000      -0.459319       -12.4987 
  40   1.0000      -0.432156       -11.7596 
  41   1.0000      -0.429158       -11.6780 
  42   1.0000      -0.425526       -11.5791 
  43   1.0000      -0.419682       -11.4201 
  44   1.0000      -0.412082       -11.2133 
  45   1.0000      -0.397412       -10.8141 
  46   1.0000      -0.391217       -10.6455 
  47   1.0000      -0.377452       -10.2710 
  48   1.0000      -0.377162       -10.2631 
  49   1.0000      -0.364796        -9.9266 
  50   1.0000      -0.357137        -9.7182 
  51   1.0000      -0.351741        -9.5714 
  52   1.0000      -0.338793        -9.2190 
  53   1.0000      -0.332766        -9.0550 
  54   1.0000      -0.330022        -8.9804 
  55   1.0000      -0.328649        -8.9430 
  56   1.0000      -0.327795        -8.9198 
  57   1.0000      -0.324327        -8.8254 
  58   1.0000      -0.320666        -8.7258 
  59   1.0000      -0.280075        -7.6212 
  60   1.0000      -0.276470        -7.5231 
  61   1.0000      -0.274229        -7.4622 
  62   1.0000      -0.258860        -7.0440 
  63   1.0000      -0.223116        -6.0713 
  64   0.0000      -0.084264        -2.2929 
  65   0.0000      -0.039287        -1.0691 
  66   0.0000       0.027032         0.7356 
  67   0.0000       0.040898         1.1129 
  68   0.0000       0.049701         1.3524 
  69   0.0000       0.059196         1.6108 
  70   0.0000       0.062732         1.7070 
  71   0.0000       0.064103         1.7443 
  72   0.0000       0.082664         2.2494 
  73   0.0000       0.086159         2.3445 
  74   0.0000       0.089287         2.4296 
  75   0.0000       0.091380         2.4866 
  76   0.0000       0.095006         2.5852 
  77   0.0000       0.095747         2.6054 
  78   0.0000       0.101806         2.7703 
  79   0.0000       0.104129         2.8335 
  80   0.0000       0.120274         3.2728 
  81   0.0000       0.126150         3.4327 
  82   0.0000       0.130162         3.5419 
  83   0.0000       0.145479         3.9587 
  84   0.0000       0.148847         4.0503 
  85   0.0000       0.152538         4.1508 
  86   0.0000       0.160655         4.3717 
  87   0.0000       0.160924         4.3790 
  88   0.0000       0.162348         4.4177 
  89   0.0000       0.170826         4.6484 
  90   0.0000       0.170984         4.6527 
  91   0.0000       0.181059         4.9269 
  92   0.0000       0.203306         5.5322 
  93   0.0000       0.205121         5.5816 
  94   0.0000       0.213497         5.8095 
  95   0.0000       0.218564         5.9474 
  96   0.0000       0.223778         6.0893 
  97   0.0000       0.244134         6.6432 
  98   0.0000       0.249780         6.7969 
  99   0.0000       0.263081         7.1588 
 100   0.0000       0.270620         7.3640 
 101   0.0000       0.292194         7.9510 
 102   0.0000       0.310064         8.4373 
 103   0.0000       0.326118         8.8741 
 104   0.0000       0.328129         8.9288 
 105   0.0000       0.349243         9.5034 
 106   0.0000       0.361825         9.8458 
 107   0.0000       0.367271         9.9940 
 108   0.0000       0.391918        10.6646 
 109   0.0000       0.409945        11.1552 
 110   0.0000       0.411954        11.2098 
 111   0.0000       0.413489        11.2516 
 112   0.0000       0.419562        11.4169 
 113   0.0000       0.425014        11.5652 
 114   0.0000       0.438635        11.9359 
 115   0.0000       0.444435        12.0937 
 116   0.0000       0.453867        12.3503 
 117   0.0000       0.464730        12.6460 
 118   0.0000       0.468043        12.7361 
 119   0.0000       0.471755        12.8371 
 120   0.0000       0.479431        13.0460 
 121   0.0000       0.483290        13.1510 
 122   0.0000       0.490001        13.3336 
 123   0.0000       0.504482        13.7277 
 124   0.0000       0.505455        13.7541 
 125   0.0000       0.506406        13.7800 
 126   0.0000       0.520351        14.1595 
 127   0.0000       0.525878        14.3099 
 128   0.0000       0.531001        14.4493 
 129   0.0000       0.541820        14.7437 
 130   0.0000       0.551839        15.0163 
 131   0.0000       0.552945        15.0464 
 132   0.0000       0.561613        15.2823 
 133   0.0000       0.569016        15.4837 
 134   0.0000       0.590354        16.0644 
 135   0.0000       0.590741        16.0749 
 136   0.0000       0.598460        16.2849 
 137   0.0000       0.604999        16.4629 
 138   0.0000       0.607058        16.5189 
 139   0.0000       0.608468        16.5573 
 140   0.0000       0.618989        16.8435 
 141   0.0000       0.628016        17.0892 
 142   0.0000       0.639447        17.4002 
 143   0.0000       0.641882        17.4665 
 144   0.0000       0.645719        17.5709 
 145   0.0000       0.646703        17.5977 
 146   0.0000       0.652366        17.7518 
 147   0.0000       0.654796        17.8179 
 148   0.0000       0.657498        17.8914 
 149   0.0000       0.660658        17.9774 
 150   0.0000       0.662339        18.0232 
 151   0.0000       0.665612        18.1122 
 152   0.0000       0.668734        18.1972 
 153   0.0000       0.669581        18.2202 
 154   0.0000       0.681752        18.5514 
 155   0.0000       0.683325        18.5942 
 156   0.0000       0.688327        18.7303 
 157   0.0000       0.691002        18.8031 
 158   0.0000       0.692311        18.8387 
 159   0.0000       0.698262        19.0007 
 160   0.0000       0.707553        19.2535 
 161   0.0000       0.720070        19.5941 
 162   0.0000       0.720846        19.6152 
 163   0.0000       0.729602        19.8535 
 164   0.0000       0.736719        20.0471 
 165   0.0000       0.738600        20.0983 
 166   0.0000       0.740236        20.1428 
 167   0.0000       0.748629        20.3712 
 168   0.0000       0.758890        20.6504 
 169   0.0000       0.769556        20.9407 
 170   0.0000       0.778548        21.1854 
 171   0.0000       0.783551        21.3215 
 172   0.0000       0.802714        21.8429 
 173   0.0000       0.820539        22.3280 
 174   0.0000       0.833302        22.6753 
 175   0.0000       0.835190        22.7267 
 176   0.0000       0.841806        22.9067 
 177   0.0000       0.853445        23.2234 
 178   0.0000       0.875349        23.8195 
 179   0.0000       0.880639        23.9634 
 180   0.0000       0.887541        24.1512 
 181   0.0000       0.917331        24.9618 
 182   0.0000       0.929911        25.3042 
 183   0.0000       0.947112        25.7722 
 184   0.0000       0.954888        25.9838 
 185   0.0000       0.985124        26.8066 
 186   0.0000       0.986563        26.8457 
 187   0.0000       0.992094        26.9963 
 188   0.0000       1.001155        27.2428 
 189   0.0000       1.014722        27.6120 
 190   0.0000       1.038852        28.2686 
 191   0.0000       1.047618        28.5071 
 192   0.0000       1.049616        28.5615 
 193   0.0000       1.050591        28.5880 
 194   0.0000       1.055387        28.7185 
 195   0.0000       1.066422        29.0188 
 196   0.0000       1.083361        29.4797 
 197   0.0000       1.086395        29.5623 
 198   0.0000       1.101167        29.9643 
 199   0.0000       1.145470        31.1698 
 200   0.0000       1.157415        31.4949 
 201   0.0000       1.166441        31.7405 
 202   0.0000       1.193925        32.4883 
 203   0.0000       1.204538        32.7771 
 204   0.0000       1.207848        32.8672 
 205   0.0000       1.209323        32.9074 
 206   0.0000       1.215578        33.0776 
 207   0.0000       1.219568        33.1861 
 208   0.0000       1.222988        33.2792 
 209   0.0000       1.229772        33.4638 
 210   0.0000       1.236814        33.6554 
 211   0.0000       1.258577        34.2476 
 212   0.0000       1.284948        34.9652 
 213   0.0000       1.289438        35.0874 
 214   0.0000       1.305619        35.5277 
 215   0.0000       1.309063        35.6214 
 216   0.0000       1.324569        36.0434 
 217   0.0000       1.329198        36.1693 
 218   0.0000       1.335946        36.3530 
 219   0.0000       1.347442        36.6658 
 220   0.0000       1.356854        36.9219 
 221   0.0000       1.374354        37.3981 
 222   0.0000       1.384267        37.6678 
 223   0.0000       1.393910        37.9302 
 224   0.0000       1.402881        38.1743 
 225   0.0000       1.410687        38.3867 
 226   0.0000       1.418642        38.6032 
 227   0.0000       1.425044        38.7774 
 228   0.0000       1.426495        38.8169 
 229   0.0000       1.430662        38.9303 
 230   0.0000       1.452678        39.5294 
 231   0.0000       1.454666        39.5835 
 232   0.0000       1.463943        39.8359 
 233   0.0000       1.469490        39.9869 
 234   0.0000       1.473811        40.1044 
 235   0.0000       1.484815        40.4039 
 236   0.0000       1.495149        40.6851 
 237   0.0000       1.522406        41.4268 
 238   0.0000       1.533259        41.7221 
 239   0.0000       1.538168        41.8557 
 240   0.0000       1.559500        42.4362 
 241   0.0000       1.562088        42.5066 
 242   0.0000       1.583035        43.0766 
 243   0.0000       1.587333        43.1935 
 244   0.0000       1.587991        43.2114 
 245   0.0000       1.602001        43.5927 
 246   0.0000       1.617585        44.0167 
 247   0.0000       1.622955        44.1629 
 248   0.0000       1.628707        44.3194 
 249   0.0000       1.630347        44.3640 
 250   0.0000       1.634433        44.4752 
 251   0.0000       1.639902        44.6240 
 252   0.0000       1.646344        44.7993 
 253   0.0000       1.652306        44.9615 
 254   0.0000       1.653074        44.9824 
 255   0.0000       1.661379        45.2084 
 256   0.0000       1.671802        45.4921 
 257   0.0000       1.675019        45.5796 
 258   0.0000       1.676336        45.6154 
 259   0.0000       1.686955        45.9044 
 260   0.0000       1.688467        45.9455 
 261   0.0000       1.697017        46.1782 
 262   0.0000       1.699613        46.2488 
 263   0.0000       1.703437        46.3529 
 264   0.0000       1.705535        46.4100 
 265   0.0000       1.711175        46.5634 
 266   0.0000       1.717867        46.7455 
 267   0.0000       1.726496        46.9803 
 268   0.0000       1.745844        47.5068 
 269   0.0000       1.754625        47.7458 
 270   0.0000       1.756354        47.7928 
 271   0.0000       1.764201        48.0064 
 272   0.0000       1.783470        48.5307 
 273   0.0000       1.786420        48.6109 
 274   0.0000       1.791812        48.7577 
 275   0.0000       1.797268        48.9062 
 276   0.0000       1.805790        49.1380 
 277   0.0000       1.819355        49.5072 
 278   0.0000       1.822807        49.6011 
 279   0.0000       1.824155        49.6378 
 280   0.0000       1.831812        49.8461 
 281   0.0000       1.858219        50.5647 
 282   0.0000       1.876665        51.0667 
 283   0.0000       1.881472        51.1974 
 284   0.0000       1.890207        51.4352 
 285   0.0000       1.897436        51.6319 
 286   0.0000       1.915801        52.1316 
 287   0.0000       1.916435        52.1488 
 288   0.0000       1.925030        52.3827 
 289   0.0000       1.930286        52.5258 
 290   0.0000       1.953595        53.1600 
 291   0.0000       1.976296        53.7777 
 292   0.0000       1.996529        54.3283 
 293   0.0000       1.998459        54.3808 
 294   0.0000       2.012429        54.7610 
 295   0.0000       2.025368        55.1131 
 296   0.0000       2.045427        55.6589 
 297   0.0000       2.054692        55.9110 
 298   0.0000       2.071479        56.3678 
 299   0.0000       2.077813        56.5402 
 300   0.0000       2.081478        56.6399 
 301   0.0000       2.086929        56.7882 
 302   0.0000       2.111570        57.4587 
 303   0.0000       2.128800        57.9276 
 304   0.0000       2.130387        57.9708 
 305   0.0000       2.131178        57.9923 
 306   0.0000       2.157826        58.7174 
 307   0.0000       2.158977        58.7487 
 308   0.0000       2.189636        59.5830 
 309   0.0000       2.200048        59.8663 
 310   0.0000       2.211146        60.1683 
 311   0.0000       2.213811        60.2409 
 312   0.0000       2.220394        60.4200 
 313   0.0000       2.229413        60.6654 
 314   0.0000       2.254274        61.3419 
 315   0.0000       2.261946        61.5507 
 316   0.0000       2.283079        62.1258 
 317   0.0000       2.292441        62.3805 
 318   0.0000       2.298125        62.5352 
 319   0.0000       2.305825        62.7447 
 320   0.0000       2.320231        63.1367 
 321   0.0000       2.328530        63.3625 
 322   0.0000       2.332053        63.4584 
 323   0.0000       2.336683        63.5844 
 324   0.0000       2.377375        64.6917 
 325   0.0000       2.385259        64.9062 
 326   0.0000       2.409046        65.5535 
 327   0.0000       2.411356        65.6163 
 328   0.0000       2.412916        65.6588 
 329   0.0000       2.413433        65.6728 
 330   0.0000       2.423854        65.9564 
 331   0.0000       2.425307        65.9960 
 332   0.0000       2.442949        66.4760 
 333   0.0000       2.486070        67.6494 
 334   0.0000       2.501251        68.0625 
 335   0.0000       2.503442        68.1221 
 336   0.0000       2.536113        69.0112 
 337   0.0000       2.546773        69.3012 
 338   0.0000       2.559599        69.6502 
 339   0.0000       2.593620        70.5760 
 340   0.0000       2.601765        70.7976 
 341   0.0000       2.626552        71.4721 
 342   0.0000       2.643217        71.9256 
 343   0.0000       2.663541        72.4786 
 344   0.0000       2.682386        72.9914 
 345   0.0000       2.713951        73.8504 
 346   0.0000       2.722887        74.0935 
 347   0.0000       2.754683        74.9587 
 348   0.0000       2.777677        75.5844 
 349   0.0000       2.824675        76.8633 
 350   0.0000       2.845610        77.4330 
 351   0.0000       2.873891        78.2025 
 352   0.0000       2.928662        79.6929 
 353   0.0000       3.009270        81.8864 
 354   0.0000       3.190673        86.8226 
 355   0.0000       3.203962        87.1842 
 356   0.0000       3.397606        92.4536 

                    ********************************
                    * MULLIKEN POPULATION ANALYSIS *
                    ********************************

--------------------------------------------
MULLIKEN ATOMIC CHARGES AND SPIN POPULATIONS
--------------------------------------------
   0 C :   -0.600421    0.101673
   1 C :    0.631360   -0.060426
   2 C :    0.624526    0.028809
   3 C :   -0.049295    0.228296
   4 C :    0.081066   -0.167082
   5 C :   -0.012507    0.219499
   6 C :   -0.022378   -0.110344
   7 C :   -0.076671    0.237470
   8 C :    0.025555   -0.118779
   9 H :   -0.048885   -0.009113
  10 H :   -0.049796    0.004312
  11 C :   -0.098592    0.705668
  12 H :   -0.021199   -0.030047
  13 C :    0.032648   -0.048379
  14 H :    0.029588    0.031767
  15 H :    0.029611    0.031655
  16 C :   -0.038787    0.002288
  17 H :    0.013202    0.000470
  18 H :    0.013216    0.000458
  19 C :    0.005394   -0.000180
  20 H :    0.017714    0.000155
  21 H :    0.017727    0.000154
  22 C :    0.042936   -0.018782
  23 H :    0.032200    0.010182
  24 H :    0.032174    0.010121
[...]
 A(DIA)          0.0006              -0.0004              -0.0002    A(PC) =   0.0000
             ----------           ----------           ----------
 A(Tot)         -2.3467              -7.8924             -10.8346    A(iso)=   -7.0246
 Orientation: 
  X          -0.9922179           -0.0179400            0.1232144
  Y           0.1231802            0.0030003            0.9923798
  Z          -0.0181730            0.9998346           -0.0007671

Notes:  (1) The A matrix conforms to the "SAI" spin Hamiltonian convention.
        (2) Tensor is right-handed.

 -----------------------------------------------------------
 Nucleus  36H : A:ISTP=    1 I=  0.5 P=533.5514 MHz/au**3
                Q:ISTP=    2 I=  1.0 Q=  0.0029 barn     
 -----------------------------------------------------------
 Solving for nuclear perturbation:
Forming RHS of the CP-SCF equations         ... 
Calc. nucleus orbit integrals (SHARK)       ... done

------------------------------------------------------------------------------
                           ORCA CP-SCF CALCULATION
------------------------------------------------------------------------------

Input orbitals are from        ... cc-pVDZ.gbw
Input Perturbation             ... cc-pVDZ.pin.tmp
Wavefunction output            ... cc-pVDZ.pout.tmp
Perturbation mode              ... Imaginary perturbation
Solver                         ... POPLE
Max. number of iterations      ... 64
Convergence tolerance          ... 1.000e-03
Integral handling              ... Direct
DFT GridXC                     ... 1
COSX GridX                     ... 1
COSX IntAccX                   ... 3.067
COSX Algorithm                 ... Auto
Number of perturbations        ... 3
Number of operators            ... 2
Orbital ranges used for CP-SCF:
 Operator 0:  Orbitals   0... 64  to  65...356
 Operator 1:  Orbitals   0... 63  to  64...356
Variables per perturbation     ... 37732
DFT calculation                         ... on
XC functional terms                     ... off
Hybrid DFT                              ... on
   Exchange mixing (SCF)                ...  0.200
   Exchange mixing (CP-SCF)             ...  0.200
   GGA exch. scaling(SCF)               ...  0.720
   GGA exch. scaling (CP-SCF)           ...  0.720
   GGA corr. scaling (SCF)              ...  0.810
   GGA corr. scaling (CP-SCF)           ...  0.810

CP-SCF GRID
-----------

General Integration Accuracy     IntAcc      ... 3.467
Radial Grid Type                 RadialGrid  ... OptM3 with GC (2021)
Angular Grid (max. ang.)         AngularGrid ... 1 (Lebedev-50)
Angular grid pruning method      GridPruning ... 4 (adaptive)
Weight generation scheme         WeightScheme... Becke
Basis function cutoff            BFCut       ... 1.0000e-10
Integration weight cutoff        WCut        ... 1.0000e-14
Angular grids for H and He will be reduced by one unit
Partially contracted basis set               ... off
Rotationally invariant grid construction     ... off

Total number of grid points                  ...    24798
Total number of batches                      ...      406
Average number of points per batch           ...       61
Average number of grid points per atom       ...      636

CP-SCF GRIDX
------------

General Integration Accuracy     IntAcc      ... 3.067
Radial Grid Type                 RadialGrid  ... OptM3 with GC (2021)
Angular Grid (max. ang.)         AngularGrid ... 1 (Lebedev-50)
Angular grid pruning method      GridPruning ... 4 (adaptive)
Weight generation scheme         WeightScheme... Becke
Basis function cutoff            BFCut       ... 1.0000e-10
Integration weight cutoff        WCut        ... 1.0000e-14
Angular grids for H and He will be reduced by one unit
Partially contracted basis set               ... on
Rotationally invariant grid construction     ... off

Total number of grid points                  ...    11665
Total number of batches                      ...      205
Average number of points per batch           ...       56
Average number of grid points per atom       ...      299

Memory available               ... 907.4 MB
Memory needed per perturbation ...   8.1 MB
Perturbations treated per batch... 3
Number of batches              ... 1
     CP-SCF ITERATION   0:   1.0063e-01 (   1.1 sec   0/  3 done)
     CP-SCF ITERATION   1:   1.5338e-03 (   1.1 sec   2/  3 done)
     CP-SCF ITERATION   2:   9.5177e-05 (   0.8 sec   3/  3 done)
                    *** THE CP-SCF HAS CONVERGED ***

Forming final perturbed densities           ... done
Transforming perturbed density to AO basis  ... done

 Raw HFC matrix (all values in MHz): 
 -----------------------------------
                 2.0920               0.1633              -0.0171
                 0.1633               4.6671              -0.0013
                -0.0171              -0.0013               3.1074

 A(FC)           3.2891               3.2891               3.2891
 A(SD)          -1.2076              -0.1815               1.3891
 A(ORB+DIA)     -0.0001               0.0001              -0.0008    A(PC) =  -0.0003
 A(ORB)          0.0000              -0.0001              -0.0010    A(PC) =  -0.0004
 A(DIA)         -0.0002               0.0002               0.0001    A(PC) =   0.0001
             ----------           ----------           ----------
 A(Tot)          2.0814               3.1077               4.6774    A(iso)=    3.2888
 Orientation: 
  X           0.9978741           -0.0164375           -0.0630642
  Y          -0.0630309            0.0025367           -0.9980083
  Z           0.0165648            0.9998617            0.0014952

Notes:  (1) The A matrix conforms to the "SAI" spin Hamiltonian convention.
        (2) Tensor is right-handed.

 -----------------------------------------------------------
 Nucleus  37H : A:ISTP=    1 I=  0.5 P=533.5514 MHz/au**3
                Q:ISTP=    2 I=  1.0 Q=  0.0029 barn     
 -----------------------------------------------------------
 Solving for nuclear perturbation:
Forming RHS of the CP-SCF equations         ... 
Calc. nucleus orbit integrals (SHARK)       ... done

------------------------------------------------------------------------------
                           ORCA CP-SCF CALCULATION
------------------------------------------------------------------------------

Input orbitals are from        ... cc-pVDZ.gbw
Input Perturbation             ... cc-pVDZ.pin.tmp
Wavefunction output            ... cc-pVDZ.pout.tmp
Perturbation mode              ... Imaginary perturbation
Solver                         ... POPLE
Max. number of iterations      ... 64
Convergence tolerance          ... 1.000e-03
Integral handling              ... Direct
DFT GridXC                     ... 1
COSX GridX                     ... 1
COSX IntAccX                   ... 3.067
COSX Algorithm                 ... Auto
Number of perturbations        ... 3
Number of operators            ... 2
Orbital ranges used for CP-SCF:
 Operator 0:  Orbitals   0... 64  to  65...356
 Operator 1:  Orbitals   0... 63  to  64...356
Variables per perturbation     ... 37732
DFT calculation                         ... on
XC functional terms                     ... off
Hybrid DFT                              ... on
   Exchange mixing (SCF)                ...  0.200
   Exchange mixing (CP-SCF)             ...  0.200
   GGA exch. scaling(SCF)               ...  0.720
   GGA exch. scaling (CP-SCF)           ...  0.720
   GGA corr. scaling (SCF)              ...  0.810
   GGA corr. scaling (CP-SCF)           ...  0.810

CP-SCF GRID
-----------

General Integration Accuracy     IntAcc      ... 3.467
Radial Grid Type                 RadialGrid  ... OptM3 with GC (2021)
Angular Grid (max. ang.)         AngularGrid ... 1 (Lebedev-50)
Angular grid pruning method      GridPruning ... 4 (adaptive)
Weight generation scheme         WeightScheme... Becke
Basis function cutoff            BFCut       ... 1.0000e-10
Integration weight cutoff        WCut        ... 1.0000e-14
Angular grids for H and He will be reduced by one unit
Partially contracted basis set               ... off
Rotationally invariant grid construction     ... off

Total number of grid points                  ...    24798
Total number of batches                      ...      406
Average number of points per batch           ...       61
Average number of grid points per atom       ...      636

CP-SCF GRIDX
------------

General Integration Accuracy     IntAcc      ... 3.067
Radial Grid Type                 RadialGrid  ... OptM3 with GC (2021)
Angular Grid (max. ang.)         AngularGrid ... 1 (Lebedev-50)
Angular grid pruning method      GridPruning ... 4 (adaptive)
Weight generation scheme         WeightScheme... Becke
Basis function cutoff            BFCut       ... 1.0000e-10
Integration weight cutoff        WCut        ... 1.0000e-14
Angular grids for H and He will be reduced by one unit
Partially contracted basis set               ... on
Rotationally invariant grid construction     ... off

Total number of grid points                  ...    11665
Total number of batches                      ...      205
Average number of points per batch           ...       56
Average number of grid points per atom       ...      299

Memory available               ... 907.0 MB
Memory needed per perturbation ...   8.1 MB
Perturbations treated per batch... 3
Number of batches              ... 1
     CP-SCF ITERATION   0:   3.6581e-02 (   1.1 sec   0/  3 done)
     CP-SCF ITERATION   1:   6.4721e-04 (   1.1 sec   3/  3 done)
                    *** THE CP-SCF HAS CONVERGED ***

Forming final perturbed densities           ... done
Transforming perturbed density to AO basis  ... done

 Raw HFC matrix (all values in MHz): 
 -----------------------------------
                -0.7777               0.2394               0.0002
                 0.2394               0.7243               0.0010
                 0.0002               0.0010              -0.7943

 A(FC)          -0.2826              -0.2826              -0.2826
 A(SD)           1.0437              -0.5116              -0.5321
 A(ORB+DIA)      0.0005              -0.0001              -0.0001    A(PC) =   0.0001
 A(ORB)          0.0004               0.0000              -0.0001    A(PC) =   0.0001
 A(DIA)          0.0001              -0.0001              -0.0001    A(PC) =  -0.0000
             ----------           ----------           ----------
 A(Tot)          0.7616              -0.7943              -0.8149    A(iso)=   -0.2825
 Orientation: 
  X          -0.1537120           -0.0043225            0.9881062
  Y          -0.9881155            0.0013188           -0.1537077
  Z          -0.0006387           -0.9999898           -0.0044739

Notes:  (1) The A matrix conforms to the "SAI" spin Hamiltonian convention.
        (2) Tensor is right-handed.

 -----------------------------------------------------------
 Nucleus  38H : A:ISTP=    1 I=  0.5 P=533.5514 MHz/au**3
                Q:ISTP=    2 I=  1.0 Q=  0.0029 barn     
 -----------------------------------------------------------
 Solving for nuclear perturbation:
Forming RHS of the CP-SCF equations         ... 
Calc. nucleus orbit integrals (SHARK)       ... done

------------------------------------------------------------------------------
                           ORCA CP-SCF CALCULATION
------------------------------------------------------------------------------

Input orbitals are from        ... cc-pVDZ.gbw
Input Perturbation             ... cc-pVDZ.pin.tmp
Wavefunction output            ... cc-pVDZ.pout.tmp
Perturbation mode              ... Imaginary perturbation
Solver                         ... POPLE
Max. number of iterations      ... 64
Convergence tolerance          ... 1.000e-03
Integral handling              ... Direct
DFT GridXC                     ... 1
COSX GridX                     ... 1
COSX IntAccX                   ... 3.067
COSX Algorithm                 ... Auto
Number of perturbations        ... 3
Number of operators            ... 2
Orbital ranges used for CP-SCF:
 Operator 0:  Orbitals   0... 64  to  65...356
 Operator 1:  Orbitals   0... 63  to  64...356
Variables per perturbation     ... 37732
DFT calculation                         ... on
XC functional terms                     ... off
Hybrid DFT                              ... on
   Exchange mixing (SCF)                ...  0.200
   Exchange mixing (CP-SCF)             ...  0.200
   GGA exch. scaling(SCF)               ...  0.720
   GGA exch. scaling (CP-SCF)           ...  0.720
   GGA corr. scaling (SCF)              ...  0.810
   GGA corr. scaling (CP-SCF)           ...  0.810

CP-SCF GRID
-----------

General Integration Accuracy     IntAcc      ... 3.467
Radial Grid Type                 RadialGrid  ... OptM3 with GC (2021)
Angular Grid (max. ang.)         AngularGrid ... 1 (Lebedev-50)
Angular grid pruning method      GridPruning ... 4 (adaptive)
Weight generation scheme         WeightScheme... Becke
Basis function cutoff            BFCut       ... 1.0000e-10
Integration weight cutoff        WCut        ... 1.0000e-14
Angular grids for H and He will be reduced by one unit
Partially contracted basis set               ... off
Rotationally invariant grid construction     ... off

Total number of grid points                  ...    24798
Total number of batches                      ...      406
Average number of points per batch           ...       61
Average number of grid points per atom       ...      636

CP-SCF GRIDX
------------

General Integration Accuracy     IntAcc      ... 3.067
Radial Grid Type                 RadialGrid  ... OptM3 with GC (2021)
Angular Grid (max. ang.)         AngularGrid ... 1 (Lebedev-50)
Angular grid pruning method      GridPruning ... 4 (adaptive)
Weight generation scheme         WeightScheme... Becke
Basis function cutoff            BFCut       ... 1.0000e-10
Integration weight cutoff        WCut        ... 1.0000e-14
Angular grids for H and He will be reduced by one unit
Partially contracted basis set               ... on
Rotationally invariant grid construction     ... off

Total number of grid points                  ...    11665
Total number of batches                      ...      205
Average number of points per batch           ...       56
Average number of grid points per atom       ...      299

Memory available               ... 906.6 MB
Memory needed per perturbation ...   8.1 MB
Perturbations treated per batch... 3
Number of batches              ... 1
     CP-SCF ITERATION   0:   3.6631e-02 (   1.1 sec   0/  3 done)
     CP-SCF ITERATION   1:   6.5693e-04 (   1.1 sec   3/  3 done)
                    *** THE CP-SCF HAS CONVERGED ***

Forming final perturbed densities           ... done
Transforming perturbed density to AO basis  ... done

 Raw HFC matrix (all values in MHz): 
 -----------------------------------
                -0.1193               0.0642               0.0001
                 0.0642               0.2305               0.0003
                 0.0001               0.0003              -0.1308

 A(FC)          -0.0066              -0.0066              -0.0066
 A(SD)          -0.1241              -0.1243               0.2484
 A(ORB+DIA)      0.0000               0.0000               0.0001    A(PC) =   0.0000
 A(ORB)         -0.0000               0.0000               0.0001    A(PC) =   0.0000
 A(DIA)          0.0000               0.0000               0.0000    A(PC) =   0.0000
             ----------           ----------           ----------
 A(Tot)         -0.1307              -0.1308               0.2419    A(iso)=   -0.0066
 Orientation: 
  X           0.9844309           -0.0172167            0.1749269
  Y          -0.1748833            0.0040189            0.9845810
  Z          -0.0176542           -0.9998437            0.0009455

Notes:  (1) The A matrix conforms to the "SAI" spin Hamiltonian convention.
        (2) Tensor is right-handed.


--------------------------------------------------------------------------------
----------------------------------------------------------------------------
                           ORCA EULER ANGLE PROGRAM
----------------------------------------------------------------------------

Only g-tensor available        -->  using g-tensor as reference tensor

Reference tensor               ...  g

g-tensor ordering              ...  |g_min> --> |gx>
                                    |g_mid> --> |gy>
                                    |g_max> --> |gz>

A- and EFG-tensor ordering     ...  the axes |Ax>, |Qx>, |Ay>, etc. are assigned
                                    such that the Euler rotation is minimal. You
                                    can find the respective eigenvalues as Ax,
                                    EFGx, Ay, etc. in the tables below.
                                    The relation of |Ax>, |Ay>,  etc. to Amin, Amid, etc.
                                    (as printed in the ORCA EPR/NMR CALCULATION Output)
                                    is obtained in the detailed printout.

Euler rotation around          ...  z - y - z
   First rotation              -->  by alpha around z
   Second rotation             -->  by beta around y'
   Third rotation              -->  by gamma around z''
   Positive / Negative angle   -->  clockwise / counterclockwise rotation

Plot EFG-tensors                    (-)
Plot HFC-tensors                    (-)
Detailed Printout                   (-)

-------------------------------------------------------------------------
          Euler rotation of hyperfine tensor to g-tensor
-------------------------------------------------------------------------

-------------------------------------------------------------------
 Atom  |   Alpha    Beta    Gamma   |   Ax       Ay       Az 
       |          [degrees]         |           [MHz]         
-------------------------------------------------------------------
  9H      -90.1     25.5     90.1     -16.03    -7.00   -19.50
 10H      -90.0     28.4     90.0       4.04     4.70     9.54
 12H       90.0     24.0    -90.0     -46.40   -17.34   -71.35
 14H      -79.7     25.0     59.2      57.50    67.13    58.81
 15H      -99.9     24.9    120.1      57.27    66.89    58.58
 17H      -50.3      7.7     16.5      -3.06    -3.03     3.06
 18H     -156.0     14.6   -169.7      -3.19    -3.03     3.19
 20H      116.8     34.1    -72.0      -0.10     0.02     2.26
 21H      152.9     34.0   -107.9       0.02    -0.10     2.25
 23H     -175.1     27.1    131.2      21.08    20.50    24.22
 24H       -5.0     27.1     49.1      20.96    20.39    24.10
 26H       78.0     38.9    -70.1      -0.99    -0.86     0.99
 27H      102.2     38.9   -109.8      -0.98    -0.86     0.99
 29H      106.4     10.8   -143.1      -0.10    -0.15     0.81
 30H       73.3     10.8    -36.4      -0.10    -0.15     0.81
 32H      103.0     25.7   -107.1      -0.13    -0.10     0.38
 33H       77.0     25.7    -72.6      -0.13    -0.10     0.38
 35H       89.7     18.2    -90.1      -7.89    -2.35   -10.83
 36H       89.7     21.6    -90.1       3.11     2.08     4.68
 37H       90.8     16.4    -89.9      -0.79    -0.81     0.76
 38H       91.5     15.2    -89.8      -0.13    -0.13     0.24
-------------------------------------------------------------------


Maximum memory used throughout the entire EPRNMR-calculation: 162.8 MB

Timings for individual modules:

Sum of individual times         ...     1879.640 sec (=  31.327 min)
GTO integral calculation        ...        4.744 sec (=   0.079 min)   0.3 %
Spin-Orbit-Coupling Matrices    ...        6.568 sec (=   0.109 min)   0.3 %
SCF iterations                  ...       21.355 sec (=   0.356 min)   1.1 %
EPR/NMR calculation             ...     1846.973 sec (=  30.783 min)  98.3 %
                             ****ORCA TERMINATED NORMALLY****
TOTAL RUN TIME: 0 days 0 hours 31 minutes 24 seconds 283 msec
