
                                 *****************
                                 * O   R   C   A *
                                 *****************

                                            #,                                       
                                            ###                                      
                                            ####                                     
                                            #####                                    
                                            ######                                   
                                           ########,                                 
                                     ,,################,,,,,                         
                               ,,#################################,,                 
                          ,,##########################################,,             
                       ,#########################################, ''#####,          
                    ,#############################################,,   '####,        
                  ,##################################################,,,,####,       
                ,###########''''           ''''###############################       
              ,#####''   ,,,,##########,,,,          '''####'''          '####       
            ,##' ,,,,###########################,,,                        '##       
           ' ,,###''''                  '''############,,,                           
         ,,##''                                '''############,,,,        ,,,,,,###''
      ,#''                                            '''#######################'''  
     '                                                          ''''####''''         
             ,#######,   #######,   ,#######,      ##                                
            ,#'     '#,  ##    ##  ,#'     '#,    #''#        ######   ,####,        
            ##       ##  ##   ,#'  ##            #'  '#       #        #'  '#        
            ##       ##  #######   ##           ,######,      #####,   #    #        
            '#,     ,#'  ##    ##  '#,     ,#' ,#      #,         ##   #,  ,#        
             '#######'   ##     ##  '#######'  #'      '#     #####' # '####'        



                  #######################################################
                  #                        -***-                        #
                  #          Department of theory and spectroscopy      #
                  #    Directorship and core code : Frank Neese         #
                  #        Max Planck Institute fuer Kohlenforschung    #
                  #                Kaiser Wilhelm Platz 1               #
                  #                 D-45470 Muelheim/Ruhr               #
                  #                      Germany                        #
                  #                                                     #
                  #                  All rights reserved                #
                  #                        -***-                        #
                  #######################################################


                         Program Version 5.0.4 -  RELEASE  -


 With contributions from (in alphabetic order):
   Daniel Aravena         : Magnetic Suceptibility
   Michael Atanasov       : Ab Initio Ligand Field Theory (pilot matlab implementation)
   Alexander A. Auer      : GIAO ZORA, VPT2 properties, NMR spectrum
   Ute Becker             : Parallelization
   Giovanni Bistoni       : ED, misc. LED, open-shell LED, HFLD
   Martin Brehm           : Molecular dynamics
   Dmytro Bykov           : SCF Hessian
   Vijay G. Chilkuri      : MRCI spin determinant printing, contributions to CSF-ICE
   Dipayan Datta          : RHF DLPNO-CCSD density
   Achintya Kumar Dutta   : EOM-CC, STEOM-CC
   Dmitry Ganyushin       : Spin-Orbit,Spin-Spin,Magnetic field MRCI
   Miquel Garcia          : C-PCM and meta-GGA Hessian, CC/C-PCM, Gaussian charge scheme
   Yang Guo               : DLPNO-NEVPT2, F12-NEVPT2, CIM, IAO-localization
   Andreas Hansen         : Spin unrestricted coupled pair/coupled cluster methods
   Benjamin Helmich-Paris : MC-RPA, TRAH-SCF, COSX integrals
   Lee Huntington         : MR-EOM, pCC
   Robert Izsak           : Overlap fitted RIJCOSX, COSX-SCS-MP3, EOM
   Marcus Kettner         : VPT2
   Christian Kollmar      : KDIIS, OOCD, Brueckner-CCSD(T), CCSD density, CASPT2, CASPT2-K
   Simone Kossmann        : Meta GGA functionals, TD-DFT gradient, OOMP2, MP2 Hessian
   Martin Krupicka        : Initial AUTO-CI
   Lucas Lang             : DCDCAS
   Marvin Lechner         : AUTO-CI (C++ implementation), FIC-MRCC
   Dagmar Lenk            : GEPOL surface, SMD
   Dimitrios Liakos       : Extrapolation schemes; Compound Job, initial MDCI parallelization
   Dimitrios Manganas     : Further ROCIS development; embedding schemes
   Dimitrios Pantazis     : SARC Basis sets
   Anastasios Papadopoulos: AUTO-CI, single reference methods and gradients
   Taras Petrenko         : DFT Hessian,TD-DFT gradient, ASA, ECA, R-Raman, ABS, FL, XAS/XES, NRVS
   Peter Pinski           : DLPNO-MP2, DLPNO-MP2 Gradient
   Christoph Reimann      : Effective Core Potentials
   Marius Retegan         : Local ZFS, SOC
   Christoph Riplinger    : Optimizer, TS searches, QM/MM, DLPNO-CCSD(T), (RO)-DLPNO pert. Triples
   Tobias Risthaus        : Range-separated hybrids, TD-DFT gradient, RPA, STAB
   Michael Roemelt        : Original ROCIS implementation
   Masaaki Saitow         : Open-shell DLPNO-CCSD energy and density
   Barbara Sandhoefer     : DKH picture change effects
   Avijit Sen             : IP-ROCIS
   Kantharuban Sivalingam : CASSCF convergence, NEVPT2, FIC-MRCI
   Bernardo de Souza      : ESD, SOC TD-DFT
   Georgi Stoychev        : AutoAux, RI-MP2 NMR, DLPNO-MP2 response
   Willem Van den Heuvel  : Paramagnetic NMR
   Boris Wezisla          : Elementary symmetry handling
   Frank Wennmohs         : Technical directorship


 We gratefully acknowledge several colleagues who have allowed us to
 interface, adapt or use parts of their codes:
   Stefan Grimme, W. Hujo, H. Kruse, P. Pracht,  : VdW corrections, initial TS optimization,
                  C. Bannwarth, S. Ehlert          DFT functionals, gCP, sTDA/sTD-DF
   Ed Valeev, F. Pavosevic, A. Kumar             : LibInt (2-el integral package), F12 methods
   Garnet Chan, S. Sharma, J. Yang, R. Olivares  : DMRG
   Ulf Ekstrom                                   : XCFun DFT Library
   Mihaly Kallay                                 : mrcc  (arbitrary order and MRCC methods)
   Jiri Pittner, Ondrej Demel                    : Mk-CCSD
   Frank Weinhold                                : gennbo (NPA and NBO analysis)
   Christopher J. Cramer and Donald G. Truhlar   : smd solvation model
   Lars Goerigk                                  : TD-DFT with DH, B97 family of functionals
   V. Asgeirsson, H. Jonsson                     : NEB implementation
   FAccTs GmbH                                   : IRC, NEB, NEB-TS, DLPNO-Multilevel, CI-OPT
                                                   MM, QMMM, 2- and 3-layer-ONIOM, Crystal-QMMM,
                                                   LR-CPCM, SF, NACMEs, symmetry and pop. for TD-DFT,
                                                   nearIR, NL-DFT gradient (VV10), updates on ESD,
                                                   ML-optimized integration grids
   S Lehtola, MJT Oliveira, MAL Marques          : LibXC Library
   Liviu Ungur et al                             : ANISO software


 Your calculation uses the libint2 library for the computation of 2-el integrals
 For citations please refer to: http://libint.valeyev.net

 Your ORCA version has been built with support for libXC version: 5.1.0
 For citations please refer to: https://tddft.org/programs/libxc/

 This ORCA versions uses:
   CBLAS   interface :  Fast vector & matrix operations
   LAPACKE interface :  Fast linear algebra routines
   SCALAPACK package :  Parallel linear algebra routines
   Shared memory     :  Shared parallel matrices
   BLAS/LAPACK       :  OpenBLAS 0.3.15  USE64BITINT DYNAMIC_ARCH NO_AFFINITY SkylakeX SINGLE_THREADED
        Core in use  :  SkylakeX
   Copyright (c) 2011-2014, The OpenBLAS Project




***************************************
The coordinates will be read from file: opt.xyz
***************************************


================================================================================

----- Orbital basis set information -----
Your calculation utilizes the basis: cc-pVDZ 
       H, B-Ne : Obtained from the ccRepo (grant-hill.group.shef.ac.uk/ccrepo) Feb. 2017
                 T. H. Dunning, Jr., J. Chem. Phys. 90, 1007 (1989)
            He : Obtained from the ccRepo (grant-hill.group.shef.ac.uk/ccrepo) Feb. 2017
                 D. E. Woon, T. H. Dunning, Jr., J. Chem. Phys. 100, 2975 (1994)
  Li-Be, Na-Mg : Obtained from the ccRepo (grant-hill.group.shef.ac.uk/ccrepo) Feb. 2017
                 B. P. Prascher, D. E. Woon, K. A. Peterson, T. H. Dunning, Jr., A. K. Wilson, Theor. Chem. Acc. 128, 69 (2011)
         Al-Ar : Obtained from the ccRepo (grant-hill.group.shef.ac.uk/ccrepo) Feb. 2017
                 D. E. Woon, T. H. Dunning, Jr., J. Chem. Phys. 98, 1358 (1993)
            Ca : Obtained from the Peterson Research Group Website (tyr0.chem.wsu.edu/~kipeters) Feb. 2017
                 J. Koput, K. A. Peterson, J. Phys. Chem. 106, 9595 (2002)
         Sc-Zn : Obtained from the ccRepo (grant-hill.group.shef.ac.uk/ccrepo) Feb. 2017
                 N. B. Balabanov, K. A. Peterson, J. Chem. Phys. 123, 064107 (2005)
                 N. B. Balabanov, K. A. Peterson, J. Chem. Phys. 125, 074110 (2006)
         Ga-Kr : Obtained from the ccRepo (grant-hill.group.shef.ac.uk/ccrepo) Feb. 2017
                 A. K. Wilson, D. E. Woon, K. A. Peterson, T. H. Dunning, Jr., J. Chem. Phys. 110, 7667 (1999)

----- AuxJ basis set information -----
Your calculation utilizes the AutoAux generation procedure.
  G. L. Stoychev, A. A. Auer, F. Neese, J. Chem. Theory Comput. 13, 554 (2017)

----- AuxC basis set information -----
Your calculation utilizes the AutoAux generation procedure.
  G. L. Stoychev, A. A. Auer, F. Neese, J. Chem. Theory Comput. 13, 554 (2017)

----- AuxJK basis set information -----
Your calculation utilizes the AutoAux generation procedure.
  G. L. Stoychev, A. A. Auer, F. Neese, J. Chem. Theory Comput. 13, 554 (2017)

================================================================================
                                        WARNINGS
                       Please study these warnings very carefully!
================================================================================


WARNING: your system is open-shell and RHF/RKS was chosen
  ===> : WILL SWITCH to UHF/UKS


INFO   : the flag for use of the SHARK integral package has been found!

================================================================================
                                       INPUT FILE
================================================================================
NAME = cc-pVDZ_i.inp
|  1> ! B3LYP cc-pVDZ AUTOAUX
|  2> %pal nprocs 16 end
|  3> *XYZFile 0 2 opt.xyz
|  4> %EPRNMR
|  5>         GTENSOR   TRUE
|  6>         NUCLEI    = ALL H {SHIFT, AISO, ADIP, AORB}
|  7>         ORI       GIAO
|  8> END
|  9> 
| 10>                          ****END OF INPUT****
================================================================================

                       ****************************
                       * Single Point Calculation *
                       ****************************

---------------------------------
CARTESIAN COORDINATES (ANGSTROEM)
---------------------------------
  C      3.991788   -0.049240    0.058108
  C      2.775740    0.000818    0.040924
  C     -2.904926    0.001969   -0.021065
  C      1.348501    0.035970    0.024651
  C      0.635243    1.290110    0.014122
  C     -0.786025    1.210124   -0.000914
  C     -1.471080   -0.005896   -0.005830
  C     -0.755051   -1.242724    0.004473
  C      0.640732   -1.178015    0.019328
  H     -1.371296    2.129824   -0.008865
  H      1.223342   -2.098995    0.027465
  C      1.310813    2.530858    0.018832
  H      2.403663    2.505003    0.030818
  C      0.641084    3.872285    0.008661
  H     -0.020408    3.959192   -0.878174
  H     -0.042671    3.961660    0.878176
  C      1.626345    5.048246    0.019383
  H      2.275422    4.965813    0.910219
  H      2.296697    4.963937   -0.855394
  C      0.933467    6.412041    0.009601
  H      0.280768    6.536675    0.890987
  H      0.302265    6.534793   -0.887575
  C     -1.517430   -2.551443   -0.000599
  H     -2.203439   -2.555198    0.867109
  H     -2.188523   -2.557024   -0.879837
  C     -0.686654   -3.837261    0.007762
  H     -0.015119   -3.856287   -0.870392
  H     -0.031197   -3.855470    0.897992
  C     -1.555555   -5.100742    0.000739
  H     -2.229365   -5.083796    0.877444
  H     -2.214538   -5.084219   -0.887176
  C     -0.737137   -6.394159    0.007906
  H     -0.093627   -6.456407    0.902512
  H     -0.079125   -6.457034   -0.876030
  C     -4.120621    0.011732   -0.035488
  H      5.062776   -0.099657    0.078803
  H     -5.192882    0.026348   -0.050615
  H      1.665288    7.235733    0.017560
  H     -1.387506   -7.283908    0.002941

----------------------------
CARTESIAN COORDINATES (A.U.)
----------------------------
  NO LB      ZA    FRAG     MASS         X           Y           Z
   0 C     6.0000    0    12.011    7.543387   -0.093050    0.109809
   1 C     6.0000    0    12.011    5.245389    0.001546    0.077335
   2 C     6.0000    0    12.011   -5.489514    0.003722   -0.039807
   3 C     6.0000    0    12.011    2.548298    0.067973    0.046584
   4 C     6.0000    0    12.011    1.200436    2.437954    0.026687
   5 C     6.0000    0    12.011   -1.485371    2.286804   -0.001728
   6 C     6.0000    0    12.011   -2.779939   -0.011142   -0.011018
   7 C     6.0000    0    12.011   -1.426839   -2.348407    0.008453
   8 C     6.0000    0    12.011    1.210808   -2.226125    0.036525
   9 H     1.0000    0     1.008   -2.591374    4.024784   -0.016753
  10 H     1.0000    0     1.008    2.311781   -3.966526    0.051902
  11 C     6.0000    0    12.011    2.477077    4.782628    0.035587
  12 H     1.0000    0     1.008    4.542265    4.733770    0.058237
  13 C     6.0000    0    12.011    1.211473    7.317559    0.016367
  14 H     1.0000    0     1.008   -0.038565    7.481789   -1.659508
  15 H     1.0000    0     1.008   -0.080636    7.486452    1.659512
  16 C     6.0000    0    12.011    3.073346    9.539803    0.036628
  17 H     1.0000    0     1.008    4.299925    9.384027    1.720066
  18 H     1.0000    0     1.008    4.340129    9.380481   -1.616460
  19 C     6.0000    0    12.011    1.763996   12.117001    0.018144
  20 H     1.0000    0     1.008    0.530575   12.352525    1.683722
  21 H     1.0000    0     1.008    0.571197   12.348970   -1.677274
  22 C     6.0000    0    12.011   -2.867527   -4.821529   -0.001132
  23 H     1.0000    0     1.008   -4.163895   -4.828624    1.638599
  24 H     1.0000    0     1.008   -4.135709   -4.832075   -1.662650
  25 C     6.0000    0    12.011   -1.297588   -7.251373    0.014668
  26 H     1.0000    0     1.008   -0.028571   -7.287325   -1.644802
  27 H     1.0000    0     1.008   -0.058953   -7.285783    1.696960
  28 C     6.0000    0    12.011   -2.939572   -9.639005    0.001397
  29 H     1.0000    0     1.008   -4.212890   -9.606983    1.658129
  30 H     1.0000    0     1.008   -4.184870   -9.607782   -1.676520
  31 C     6.0000    0    12.011   -1.392986  -12.083209    0.014940
  32 H     1.0000    0     1.008   -0.176929  -12.200840    1.705500
  33 H     1.0000    0     1.008   -0.149525  -12.202026   -1.655456
  34 C     6.0000    0    12.011   -7.786844    0.022171   -0.067063
  35 H     1.0000    0     1.008    9.567261   -0.188325    0.148916
  36 H     1.0000    0     1.008   -9.813124    0.049791   -0.095648
  37 H     1.0000    0     1.008    3.146937   13.673554    0.033183
  38 H     1.0000    0     1.008   -2.622006  -13.764592    0.005558

--------------------------------
INTERNAL COORDINATES (ANGSTROEM)
--------------------------------
 C      0   0   0     0.000000000000     0.00000000     0.00000000
 C      1   0   0     1.217198970430     0.00000000     0.00000000
 C      2   1   0     5.681004601816   177.64740133     0.00000000
 C      2   1   3     1.427764709600   179.04098789     4.88395755
 C      4   2   1     1.442814618264   121.04115943   170.73551055
 C      5   4   2     1.423596374880   116.40940875   180.04250256
 C      6   5   4     1.395719002335   122.61642772     0.00000000
 C      7   6   5     1.429176852768   120.53451430     0.00000000
 C      8   7   6     1.397360852263   117.41574141     0.00000000
 H      6   5   4     1.090161686004   119.25290446   179.97372195
 H      9   8   7     1.089819105179   119.66547878   180.00401020
 C      5   4   2     1.412753188159   121.80168353     0.02653600
 H     12   5   4     1.093222111356   117.21282872     0.00000000
 C     12   5   4     1.499356079612   124.89824281   180.00328768
 H     14  12   5     1.109774899194   109.98224078   302.52491495
 H     14  12   5     1.109758438535   109.99562980    57.25191299
 C     14  12   5     1.534189837895   113.50703085   179.89831305
 H     17  14  12     1.105299665650   109.00159080   302.38291560
 H     17  14  12     1.105312042978   108.99511489    57.67838119
 C     17  14  12     1.529742060448   113.10575114   180.02885686
 H     20  17  14     1.103807064559   111.30839233    59.86338153
 H     20  17  14     1.103815962708   111.30588770   300.13928564
 C      8   7   6     1.514593813755   119.70734801   179.97863328
 H     23   8   7     1.106137308186   108.20869318   303.63256908
 H     23   8   7     1.106099383299   108.20498756    56.10248812
 C     23   8   7     1.530877907707   116.90901800   179.86322827
 H     26  23   8     1.105655588828   109.85973483   301.79885745
 H     26  23   8     1.105651982388   109.87342160    58.29631173
 C     26  23   8     1.533434330866   112.61459569   180.04061859
 H     29  26  23     1.105857029927   109.20818453   302.29266698
 H     29  26  23     1.105859668289   109.20968051    57.61940548
 C     29  26  23     1.530616666740   113.15782013   179.95573414
 H     32  29  26     1.103765994710   111.29604661    59.83705599
 H     32  29  26     1.103754258905   111.29386646   300.13043542
 C      3   2   1     1.215819505462   179.54822432   182.44144594
 H      1   2   4     1.072374000531   179.55017476   328.05163120
 H     35   3   7     1.072467397770   179.65444167   355.85773913
 H     20  17  14     1.101859419311   111.44324752   180.00312326
 H     32  29  26     1.102115761963   111.50913426   179.98299719

---------------------------
INTERNAL COORDINATES (A.U.)
---------------------------
 C      0   0   0     0.000000000000     0.00000000     0.00000000
 C      1   0   0     2.300172704604     0.00000000     0.00000000
 C      2   1   0    10.735542862978   177.64740133     0.00000000
 C      2   1   3     2.698084284822   179.04098789     4.88395755
 C      4   2   1     2.726524490537   121.04115943   170.73551055
 C      5   4   2     2.690207273767   116.40940875   180.04250256
 C      6   5   4     2.637526674323   122.61642772     0.00000000
 C      7   6   5     2.700752848671   120.53451430     0.00000000
 C      8   7   6     2.640629321039   117.41574141     0.00000000
 H      6   5   4     2.060107028241   119.25290446   179.97372195
 H      9   8   7     2.059459644304   119.66547878   180.00401020
 C      5   4   2     2.669716620445   121.80168353     0.02653600
 H     12   5   4     2.065890394010   117.21282872     0.00000000
 C     12   5   4     2.833372367697   124.89824281   180.00328768
 H     14  12   5     2.097170629776   109.98224078   302.52491495
 H     14  12   5     2.097139523638   109.99562980    57.25191299
 C     14  12   5     2.899198631066   113.50703085   179.89831305
 H     17  14  12     2.088713663994   109.00159080   302.38291560
 H     17  14  12     2.088737053754   108.99511489    57.67838119
 C     17  14  12     2.890793549788   113.10575114   180.02885686
 H     20  17  14     2.085893056704   111.30839233    59.86338153
 H     20  17  14     2.085909871769   111.30588770   300.13928564
 C      8   7   6     2.862167512128   119.70734801   179.97863328
 H     23   8   7     2.090296578984   108.20869318   303.63256908
 H     23   8   7     2.090224911335   108.20498756    56.10248812
 C     23   8   7     2.892939990037   116.90901800   179.86322827
 H     26  23   8     2.089386261324   109.85973483   301.79885745
 H     26  23   8     2.089379446140   109.87342160    58.29631173
 C     26  23   8     2.897770929690   112.61459569   180.04061859
 H     29  26  23     2.089766929834   109.20818453   302.29266698
 H     29  26  23     2.089771915615   109.20968051    57.61940548
 C     29  26  23     2.892446316155   113.15782013   179.95573414
 H     32  29  26     2.085815445937   111.29604661    59.83705599
 H     32  29  26     2.085793268480   111.29386646   300.13043542
 C      3   2   1     2.297565893602   179.54822432   182.44144594
 H      1   2   4     2.026493174142   179.55017476   328.05163120
 H     35   3   7     2.026669669345   179.65444167   355.85773913
 H     20  17  14     2.082212540579   111.44324752   180.00312326
 H     32  29  26     2.082696957988   111.50913426   179.98299719

---------------------
BASIS SET INFORMATION
---------------------
There are 2 groups of distinct atoms

 Group   1 Type C   : 17s4p1d contracted to 3s2p1d pattern {881/31/1}
 Group   2 Type H   : 4s1p contracted to 2s1p pattern {31/1}

Atom   0C    basis set group =>   1
Atom   1C    basis set group =>   1
Atom   2C    basis set group =>   1
Atom   3C    basis set group =>   1
Atom   4C    basis set group =>   1
Atom   5C    basis set group =>   1
Atom   6C    basis set group =>   1
Atom   7C    basis set group =>   1
Atom   8C    basis set group =>   1
Atom   9H    basis set group =>   2
Atom  10H    basis set group =>   2
Atom  11C    basis set group =>   1
Atom  12H    basis set group =>   2
Atom  13C    basis set group =>   1
Atom  14H    basis set group =>   2
Atom  15H    basis set group =>   2
Atom  16C    basis set group =>   1
Atom  17H    basis set group =>   2
Atom  18H    basis set group =>   2
Atom  19C    basis set group =>   1
Atom  20H    basis set group =>   2
Atom  21H    basis set group =>   2
Atom  22C    basis set group =>   1
Atom  23H    basis set group =>   2
Atom  24H    basis set group =>   2
Atom  25C    basis set group =>   1
Atom  26H    basis set group =>   2
Atom  27H    basis set group =>   2
Atom  28C    basis set group =>   1
Atom  29H    basis set group =>   2
Atom  30H    basis set group =>   2
Atom  31C    basis set group =>   1
Atom  32H    basis set group =>   2
Atom  33H    basis set group =>   2
Atom  34C    basis set group =>   1
Atom  35H    basis set group =>   2
Atom  36H    basis set group =>   2
Atom  37H    basis set group =>   2
Atom  38H    basis set group =>   2
---------------------------------
AUXILIARY/J BASIS SET INFORMATION
---------------------------------
There are 2 groups of distinct atoms

 Group   1 Type C   : 14s11p10d2f contracted to 14s11p10d2f pattern {11111111111111/11111111111/1111111111/11}
 Group   2 Type H   : 9s2p1d contracted to 9s2p1d pattern {111111111/11/1}

Atom   0C    basis set group =>   1
Atom   1C    basis set group =>   1
Atom   2C    basis set group =>   1
Atom   3C    basis set group =>   1
Atom   4C    basis set group =>   1
Atom   5C    basis set group =>   1
Atom   6C    basis set group =>   1
Atom   7C    basis set group =>   1
Atom   8C    basis set group =>   1
Atom   9H    basis set group =>   2
Atom  10H    basis set group =>   2
Atom  11C    basis set group =>   1
Atom  12H    basis set group =>   2
Atom  13C    basis set group =>   1
Atom  14H    basis set group =>   2
Atom  15H    basis set group =>   2
Atom  16C    basis set group =>   1
Atom  17H    basis set group =>   2
Atom  18H    basis set group =>   2
Atom  19C    basis set group =>   1
Atom  20H    basis set group =>   2
Atom  21H    basis set group =>   2
Atom  22C    basis set group =>   1
Atom  23H    basis set group =>   2
Atom  24H    basis set group =>   2
Atom  25C    basis set group =>   1
Atom  26H    basis set group =>   2
Atom  27H    basis set group =>   2
Atom  28C    basis set group =>   1
Atom  29H    basis set group =>   2
Atom  30H    basis set group =>   2
Atom  31C    basis set group =>   1
Atom  32H    basis set group =>   2
Atom  33H    basis set group =>   2
Atom  34C    basis set group =>   1
Atom  35H    basis set group =>   2
Atom  36H    basis set group =>   2
Atom  37H    basis set group =>   2
Atom  38H    basis set group =>   2
---------------------------------
AUXILIARY/C BASIS SET INFORMATION
---------------------------------
There are 2 groups of distinct atoms

 Group   1 Type C   : 14s11p10d2f contracted to 14s11p10d2f pattern {11111111111111/11111111111/1111111111/11}
 Group   2 Type H   : 9s2p1d contracted to 9s2p1d pattern {111111111/11/1}

Atom   0C    basis set group =>   1
Atom   1C    basis set group =>   1
Atom   2C    basis set group =>   1
Atom   3C    basis set group =>   1
Atom   4C    basis set group =>   1
Atom   5C    basis set group =>   1
Atom   6C    basis set group =>   1
Atom   7C    basis set group =>   1
Atom   8C    basis set group =>   1
Atom   9H    basis set group =>   2
Atom  10H    basis set group =>   2
Atom  11C    basis set group =>   1
Atom  12H    basis set group =>   2
Atom  13C    basis set group =>   1
Atom  14H    basis set group =>   2
Atom  15H    basis set group =>   2
Atom  16C    basis set group =>   1
Atom  17H    basis set group =>   2
Atom  18H    basis set group =>   2
Atom  19C    basis set group =>   1
Atom  20H    basis set group =>   2
Atom  21H    basis set group =>   2
Atom  22C    basis set group =>   1
Atom  23H    basis set group =>   2
Atom  24H    basis set group =>   2
Atom  25C    basis set group =>   1
Atom  26H    basis set group =>   2
Atom  27H    basis set group =>   2
Atom  28C    basis set group =>   1
Atom  29H    basis set group =>   2
Atom  30H    basis set group =>   2
Atom  31C    basis set group =>   1
Atom  32H    basis set group =>   2
Atom  33H    basis set group =>   2
Atom  34C    basis set group =>   1
Atom  35H    basis set group =>   2
Atom  36H    basis set group =>   2
Atom  37H    basis set group =>   2
Atom  38H    basis set group =>   2
----------------------------------
AUXILIARY/JK BASIS SET INFORMATION
----------------------------------
There are 2 groups of distinct atoms

 Group   1 Type C   : 14s11p10d2f contracted to 14s11p10d2f pattern {11111111111111/11111111111/1111111111/11}
 Group   2 Type H   : 9s2p1d contracted to 9s2p1d pattern {111111111/11/1}

Atom   0C    basis set group =>   1
Atom   1C    basis set group =>   1
Atom   2C    basis set group =>   1
Atom   3C    basis set group =>   1
Atom   4C    basis set group =>   1
Atom   5C    basis set group =>   1
Atom   6C    basis set group =>   1
Atom   7C    basis set group =>   1
Atom   8C    basis set group =>   1
Atom   9H    basis set group =>   2
Atom  10H    basis set group =>   2
Atom  11C    basis set group =>   1
Atom  12H    basis set group =>   2
Atom  13C    basis set group =>   1
Atom  14H    basis set group =>   2
Atom  15H    basis set group =>   2
Atom  16C    basis set group =>   1
Atom  17H    basis set group =>   2
Atom  18H    basis set group =>   2
Atom  19C    basis set group =>   1
Atom  20H    basis set group =>   2
Atom  21H    basis set group =>   2
Atom  22C    basis set group =>   1
Atom  23H    basis set group =>   2
Atom  24H    basis set group =>   2
Atom  25C    basis set group =>   1
Atom  26H    basis set group =>   2
Atom  27H    basis set group =>   2
Atom  28C    basis set group =>   1
Atom  29H    basis set group =>   2
Atom  30H    basis set group =>   2
Atom  31C    basis set group =>   1
Atom  32H    basis set group =>   2
Atom  33H    basis set group =>   2
Atom  34C    basis set group =>   1
Atom  35H    basis set group =>   2
Atom  36H    basis set group =>   2
Atom  37H    basis set group =>   2
Atom  38H    basis set group =>   2


           ************************************************************
           *        Program running with 16 parallel MPI-processes    *
           *              working on a common directory               *
           ************************************************************
------------------------------------------------------------------------------
                           ORCA GTO INTEGRAL CALCULATION
                           -- RI-GTO INTEGRALS CHOSEN --
------------------------------------------------------------------------------
------------------------------------------------------------------------------
                   ___                                                        
                  /   \      - P O W E R E D   B Y -                         
                 /     \                                                     
                 |  |  |   _    _      __       _____    __    __             
                 |  |  |  | |  | |    /  \     |  _  \  |  |  /  |          
                  \  \/   | |  | |   /    \    | | | |  |  | /  /          
                 / \  \   | |__| |  /  /\  \   | |_| |  |  |/  /          
                |  |  |   |  __  | /  /__\  \  |    /   |      \           
                |  |  |   | |  | | |   __   |  |    \   |  |\   \          
                \     /   | |  | | |  |  |  |  | |\  \  |  | \   \       
                 \___/    |_|  |_| |__|  |__|  |_| \__\ |__|  \__/        
                                                                              
                      - O R C A' S   B I G   F R I E N D -                    
                                      &                                       
                       - I N T E G R A L  F E E D E R -                       
                                                                              
 v1 FN, 2020, v2 2021                                                         
------------------------------------------------------------------------------


Reading SHARK input file cc-pVDZ_i.SHARKINP.tmp ... ok
----------------------
SHARK INTEGRAL PACKAGE
----------------------

Number of atoms                             ...     39
Number of basis functions                   ...    465
Number of shells                            ...    279
Maximum angular momentum                    ...      2
Integral batch strategy                     ... SHARK/LIBINT Hybrid
RI-J (if used) integral strategy            ... SPLIT-RIJ (Revised 2003 algorithm where possible)
Printlevel                                  ...      1
Contraction scheme used                     ... PARTIAL GENERAL contraction
Coulomb Range Separation                    ... NOT USED
Exchange Range Separation                   ... NOT USED
Finite Nucleus Model                        ... NOT USED
Auxiliary Coulomb fitting basis             ... AVAILABLE
   # of basis functions in Aux-J            ...   2418
   # of shells in Aux-J                     ...    918
   Maximum angular momentum in Aux-J        ...      3
Auxiliary J/K fitting basis                 ... AVAILABLE
   # of basis functions in Aux-JK           ...   2418
   # of shells in Aux-JK                    ...    918
   Maximum angular momentum in Aux-JK       ...      3
Auxiliary Correlation fitting basis         ... AVAILABLE
   # of basis functions in Aux-C            ...   2418
   # of shells in Aux-C                     ...    918
   Maximum angular momentum in Aux-C        ...      3
Auxiliary 'external' fitting basis          ... NOT available
Integral threshold                          ...     1.000000e-10
Primitive cut-off                           ...     1.000000e-11
Primitive pair pre-selection threshold      ...     1.000000e-11

Calculating pre-screening integrals         ... done (  0.0 sec) Dimension = 279
Calculating pre-screening integrals (ORCA)  ... done (  0.1 sec) Dimension = 171
Organizing shell pair data                  ... done (  0.1 sec)
Shell pair information
Total number of shell pairs                 ...     39060
Shell pairs after pre-screening             ...     18669
Total number of primitive shell pairs       ...     64020
Primitive shell pairs kept                  ...     25583
          la=0 lb=0:   8177 shell pairs
          la=1 lb=0:   6564 shell pairs
          la=1 lb=1:   1149 shell pairs
          la=2 lb=0:   1960 shell pairs
          la=2 lb=1:    698 shell pairs
          la=2 lb=2:    121 shell pairs

Calculating one electron integrals          ... done (  0.0 sec)
Calculating RI/J V-Matrix + Cholesky decomp.... done (  0.4 sec)
Calculating RI/JK V-Matrix + Cholesky decomp... done (  0.4 sec)
Calculating RI/C V-Matrix + Cholesky decomp.... done (  0.4 sec)
Calculating Nuclear repulsion               ... done (  0.0 sec) ENN=   1144.886103824135 Eh

SHARK setup successfully completed in   1.7 seconds

Maximum memory used throughout the entire GTOINT-calculation: 28.4 MB


           ************************************************************
           *        Program running with 16 parallel MPI-processes    *
           *              working on a common directory               *
           ************************************************************
-------------------------------------------------------------------------------
                                 ORCA SCF
-------------------------------------------------------------------------------

------------
SCF SETTINGS
------------
Hamiltonian:
 Density Functional     Method          .... DFT(GTOs)
 Exchange Functional    Exchange        .... B88
   X-Alpha parameter    XAlpha          ....  0.666667
   Becke's b parameter  XBeta           ....  0.004200
 Correlation Functional Correlation     .... LYP
 LDA part of GGA corr.  LDAOpt          .... VWN-5
 Gradients option       PostSCFGGA      .... off
 Hybrid DFT is turned on
   Fraction HF Exchange ScalHFX         ....  0.200000
   Scaling of DF-GGA-X  ScalDFX         ....  0.720000
   Scaling of DF-GGA-C  ScalDFC         ....  0.810000
   Scaling of DF-LDA-C  ScalLDAC        ....  1.000000
   Perturbative correction              ....  0.000000
   Density functional embedding theory  .... OFF
   NL short-range parameter             ....  4.800000
 RI-approximation to the Coulomb term is turned on
   Number of AuxJ basis functions       .... 2418
   RIJ-COSX (HFX calculated with COS-X)).... on


General Settings:
 Integral files         IntName         .... cc-pVDZ_i
 Hartree-Fock type      HFTyp           .... UHF
 Total Charge           Charge          ....    0
 Multiplicity           Mult            ....    2
 Number of Electrons    NEL             ....  129
 Basis Dimension        Dim             ....  357
 Nuclear Repulsion      ENuc            ....   1144.8861038241 Eh

Convergence Acceleration:
 DIIS                   CNVDIIS         .... on
   Start iteration      DIISMaxIt       ....    12
   Startup error        DIISStart       ....  0.200000
   # of expansion vecs  DIISMaxEq       ....     5
   Bias factor          DIISBfac        ....   1.050
   Max. coefficient     DIISMaxC        ....  10.000
 Trust-Rad. Augm. Hess. CNVTRAH         .... auto
   Auto Start mean grad. ratio tolernc. ....  1.125000
   Auto Start start iteration           ....    20
   Auto Start num. interpolation iter.  ....    10
   Max. Number of Micro iterations      ....    16
   Max. Number of Macro iterations      .... Maxiter - #DIIS iter
   Number of Davidson start vectors     ....     2
   Converg. threshold I  (grad. norm)   ....   5.000e-05
   Converg. threshold II (energy diff.) ....   1.000e-06
   Grad. Scal. Fac. for Micro threshold ....   0.100
   Minimum threshold for Micro iter.    ....   0.010
   NR start threshold (gradient norm)   ....   0.001
   Initial trust radius                 ....   0.400
   Minimum AH scaling param. (alpha)    ....   1.000
   Maximum AH scaling param. (alpha)    .... 1000.000
   Orbital update algorithm             .... Taylor
   White noise on init. David. guess    .... on
   Maximum white noise                  ....   0.010
   Quad. conv. algorithm                .... NR
 SOSCF                  CNVSOSCF        .... off
 Level Shifting         CNVShift        .... on
   Level shift para.    LevelShift      ....    0.2500
   Turn off err/grad.   ShiftErr        ....    0.0010
 Zerner damping         CNVZerner       .... off
 Static damping         CNVDamp         .... on
   Fraction old density DampFac         ....    0.7000
   Max. Damping (<1)    DampMax         ....    0.9800
   Min. Damping (>=0)   DampMin         ....    0.0000
   Turn off err/grad.   DampErr         ....    0.1000
 Fernandez-Rico         CNVRico         .... off

SCF Procedure:
 Maximum # iterations   MaxIter         ....   125
 SCF integral mode      SCFMode         .... Direct
   Integral package                     .... SHARK and LIBINT hybrid scheme
 Reset frequency        DirectResetFreq ....    20
 Integral Threshold     Thresh          ....  1.000e-10 Eh
 Primitive CutOff       TCut            ....  1.000e-11 Eh

Convergence Tolerance:
 Convergence Check Mode ConvCheckMode   .... Total+1el-Energy
 Convergence forced     ConvForced      .... 0
 Energy Change          TolE            ....  1.000e-06 Eh
 1-El. energy change                    ....  1.000e-03 Eh
 DIIS Error             TolErr          ....  1.000e-06


Diagonalization of the overlap matrix:
Smallest eigenvalue                        ... 1.275e-04
Time for diagonalization                   ...    0.025 sec
Threshold for overlap eigenvalues          ... 1.000e-08
Number of eigenvalues below threshold      ... 0
Time for construction of square roots      ...    0.033 sec
Total time needed                          ...    0.059 sec

Time for model grid setup =    0.237 sec

------------------------------
INITIAL GUESS: MODEL POTENTIAL
------------------------------
Loading Hartree-Fock densities                     ... done
Calculating cut-offs                               ... done
Initializing the effective Hamiltonian             ... done
Setting up the integral package (SHARK)            ... done
Starting the Coulomb interaction                   ... done (   0.2 sec)
Reading the grid                                   ... done
Mapping shells                                     ... done
Starting the XC term evaluation                    ... done (   0.1 sec)
  promolecular density results
     # of electrons  =    128.989777565
     EX              =    -98.637901169
     EC              =     -4.220030095
     EX+EC           =   -102.857931264
Transforming the Hamiltonian                       ... done (   0.0 sec)
Diagonalizing the Hamiltonian                      ... done (   0.0 sec)
Back transforming the eigenvectors                 ... done (   0.0 sec)
Now organizing SCF variables                       ... done
                      ------------------
                      INITIAL GUESS DONE (   0.7 sec)
                      ------------------
-------------------
DFT GRID GENERATION
-------------------

General Integration Accuracy     IntAcc      ... 4.388
Radial Grid Type                 RadialGrid  ... OptM3 with GC (2021)
Angular Grid (max. ang.)         AngularGrid ... 4 (Lebedev-302)
Angular grid pruning method      GridPruning ... 4 (adaptive)
Weight generation scheme         WeightScheme... Becke
Basis function cutoff            BFCut       ... 1.0000e-10
Integration weight cutoff        WCut        ... 1.0000e-14
Angular grids for H and He will be reduced by one unit
Partially contracted basis set               ... off
Rotationally invariant grid construction     ... off

Total number of grid points                  ...   174685
Total number of batches                      ...     2747
Average number of points per batch           ...       63
Average number of grid points per atom       ...     4479
Time for grid setup =    0.952 sec

--------------------
COSX GRID GENERATION
--------------------

GRIDX 1
-------
General Integration Accuracy     IntAcc      ... 3.816
Radial Grid Type                 RadialGrid  ... OptM3 with GC (2021)
Angular Grid (max. ang.)         AngularGrid ... 1 (Lebedev-50)
Angular grid pruning method      GridPruning ... 4 (adaptive)
Weight generation scheme         WeightScheme... Becke
Basis function cutoff            BFCut       ... 1.0000e-10
Integration weight cutoff        WCut        ... 1.0000e-14
Angular grids for H and He will be reduced by one unit
Partially contracted basis set               ... on
Rotationally invariant grid construction     ... off

Total number of grid points                  ...    22264
Total number of batches                      ...      371
Average number of points per batch           ...       60
Average number of grid points per atom       ...      571
UseSFitting                                  ... on

GRIDX 2
-------
General Integration Accuracy     IntAcc      ... 4.020
Radial Grid Type                 RadialGrid  ... OptM3 with GC (2021)
Angular Grid (max. ang.)         AngularGrid ... 2 (Lebedev-110)
Angular grid pruning method      GridPruning ... 4 (adaptive)
Weight generation scheme         WeightScheme... Becke
Basis function cutoff            BFCut       ... 1.0000e-10
Integration weight cutoff        WCut        ... 1.0000e-14
Angular grids for H and He will be reduced by one unit
Partially contracted basis set               ... on
Rotationally invariant grid construction     ... off

Total number of grid points                  ...    47311
Total number of batches                      ...      761
Average number of points per batch           ...       62
Average number of grid points per atom       ...     1213
UseSFitting                                  ... on

GRIDX 3
-------
General Integration Accuracy     IntAcc      ... 4.338
Radial Grid Type                 RadialGrid  ... OptM3 with GC (2021)
Angular Grid (max. ang.)         AngularGrid ... 3 (Lebedev-194)
Angular grid pruning method      GridPruning ... 4 (adaptive)
Weight generation scheme         WeightScheme... Becke
Basis function cutoff            BFCut       ... 1.0000e-10
Integration weight cutoff        WCut        ... 1.0000e-14
Angular grids for H and He will be reduced by one unit
Partially contracted basis set               ... on
Rotationally invariant grid construction     ... off

Total number of grid points                  ...   103513
Total number of batches                      ...     1637
Average number of points per batch           ...       63
Average number of grid points per atom       ...     2654
UseSFitting                                  ... on

Time for X-Grid setup             =    1.640 sec

 re-compute Schwartz prescreening matrix in partically contracted basis (1) ...done (   0.117 sec)
--------------
SCF ITERATIONS
--------------
ITER       Energy         Delta-E        Max-DP      RMS-DP      [F,P]     Damp
               ***  Starting incremental Fock matrix formation  ***
  0   -697.5232183342   0.000000000000 0.06861070  0.00102899  0.0869647 0.7000
  1   -697.7189551890  -0.195736854868 0.05051330  0.00075534  0.0458063 0.7000
                               ***Turning on DIIS***
  2   -697.8072253087  -0.088270119681 0.09915740  0.00145354  0.0175449 0.0000
  3   -697.9314522170  -0.124226908282 0.02012951  0.00037864  0.0249240 0.0000
  4   -697.9642561470  -0.032803929986 0.00887227  0.00013528  0.0060588 0.0000
  5   -697.9663193338  -0.002063186783 0.00417284  0.00004356  0.0029226 0.0000
  6   -697.9666355538  -0.000316220040 0.00322072  0.00002625  0.0020752 0.0000
  7   -697.9667587272  -0.000123173364 0.00187892  0.00001743  0.0013438 0.0000
  8   -697.9668209800  -0.000062252835 0.00301754  0.00003093  0.0008743 0.0000
               *** Restarting incremental Fock matrix formation ***
                                   *** Resetting DIIS ***
  9   -697.9671556851  -0.000334705148 0.00099853  0.00001485  0.0005680 0.0000
 10   -697.9671542034   0.000001481772 0.00040601  0.00000437  0.0012077 0.0000
 11   -697.9671640541  -0.000009850765 0.00043464  0.00000442  0.0003944 0.0000
 12   -697.9671668979  -0.000002843773 0.00062990  0.00000567  0.0001440 0.0000
 13   -697.9671686303  -0.000001732348 0.00017074  0.00000177  0.0000836 0.0000
                 **** Energy Check signals convergence ****

               *****************************************************
               *                     SUCCESS                       *
               *           SCF CONVERGED AFTER  14 CYCLES          *
               *****************************************************

Old exchange energy                            =    -20.130530458 Eh
New exchange energy                            =    -20.130631579 Eh
Exchange energy change after final integration =     -0.000101120 Eh
Total energy after final integration           =   -697.967269960 Eh
Final COS-X integration done in                =     4.718 sec

----------------
TOTAL SCF ENERGY
----------------

Total Energy       :         -697.96726996 Eh          -18992.65498 eV

Components:
Nuclear Repulsion  :         1144.88610382 Eh           31153.93472 eV
Electronic Energy  :        -1842.85337378 Eh          -50146.58970 eV
One Electron Energy:        -3212.88458202 Eh          -87427.03418 eV
Two Electron Energy:         1370.03120824 Eh           37280.44448 eV
Max COSX asymmetry :            0.00000051 Eh               0.00001 eV

Virial components:
Potential Energy   :        -1390.99868865 Eh          -37850.99863 eV
Kinetic Energy     :          693.03141869 Eh           18858.34364 eV
Virial Ratio       :            2.00712212


DFT components:
N(Alpha)           :       65.000136010725 electrons
N(Beta)            :       64.000126409673 electrons
N(Total)           :      129.000262420398 electrons
E(X)               :      -79.826038914070 Eh       
E(C)               :       -4.989833209793 Eh       
E(XC)              :      -84.815872123862 Eh       
DFET-embed. en.    :        0.000000000000 Eh       

---------------
SCF CONVERGENCE
---------------

  Last Energy change         ...   -2.0960e-07  Tolerance :   1.0000e-06
  Last MAX-Density change    ...    0.0000e+00  Tolerance :   1.0000e-05
  Last RMS-Density change    ...    0.0000e+00  Tolerance :   1.0000e-06
  Last DIIS Error            ...    5.7693e-05  Tolerance :   1.0000e-06

             **** THE GBW FILE WAS UPDATED (cc-pVDZ_i.gbw) ****
             **** DENSITY cc-pVDZ_i.scfp WAS UPDATED ****
             **** ENERGY FILE WAS UPDATED (cc-pVDZ_i.en.tmp) ****
----------------------
UHF SPIN CONTAMINATION
----------------------

Warning: in a DFT calculation there is little theoretical justification to 
         calculate <S**2> as in Hartree-Fock theory. We will do it anyways
         but you should keep in mind that the values have only limited relevance

Expectation value of <S**2>     :     0.785678
Ideal value S*(S+1) for S=0.5   :     0.750000
Deviation                       :     0.035678

             **** THE GBW FILE WAS UPDATED (cc-pVDZ_i.gbw) ****
             **** DENSITY cc-pVDZ_i.scfp WAS UPDATED ****
----------------
ORBITAL ENERGIES
----------------
                 SPIN UP ORBITALS
  NO   OCC          E(Eh)            E(eV) 
   0   1.0000     -10.215436      -277.9761 
   1   1.0000     -10.213452      -277.9222 
   2   1.0000     -10.204135      -277.6686 
   3   1.0000     -10.200049      -277.5574 
   4   1.0000     -10.196609      -277.4638 
   5   1.0000     -10.193602      -277.3820 
   6   1.0000     -10.192792      -277.3600 
   7   1.0000     -10.191740      -277.3314 
   8   1.0000     -10.190909      -277.3087 
   9   1.0000     -10.188933      -277.2550 
  10   1.0000     -10.187455      -277.2147 
  11   1.0000     -10.187448      -277.2146 
  12   1.0000     -10.186666      -277.1933 
  13   1.0000     -10.184334      -277.1298 
  14   1.0000     -10.182166      -277.0708 
  15   1.0000     -10.181859      -277.0625 
  16   1.0000     -10.177440      -276.9422 
  17   1.0000     -10.175687      -276.8945 
  18   1.0000      -0.875622       -23.8269 
  19   1.0000      -0.821129       -22.3441 
  20   1.0000      -0.798432       -21.7264 
  21   1.0000      -0.796396       -21.6710 
  22   1.0000      -0.769044       -20.9267 
  23   1.0000      -0.752778       -20.4841 
  24   1.0000      -0.731760       -19.9122 
  25   1.0000      -0.721405       -19.6304 
  26   1.0000      -0.698769       -19.0145 
  27   1.0000      -0.657581       -17.8937 
  28   1.0000      -0.640118       -17.4185 
  29   1.0000      -0.618004       -16.8167 
  30   1.0000      -0.594660       -16.1815 
  31   1.0000      -0.580851       -15.8058 
  32   1.0000      -0.563300       -15.3282 
  33   1.0000      -0.542225       -14.7547 
  34   1.0000      -0.524588       -14.2748 
  35   1.0000      -0.499450       -13.5907 
  36   1.0000      -0.486885       -13.2488 
  37   1.0000      -0.478513       -13.0210 
  38   1.0000      -0.471031       -12.8174 
  39   1.0000      -0.462831       -12.5943 
  40   1.0000      -0.434239       -11.8163 
  41   1.0000      -0.430625       -11.7179 
  42   1.0000      -0.426763       -11.6128 
  43   1.0000      -0.422399       -11.4941 
  44   1.0000      -0.412564       -11.2264 
  45   1.0000      -0.399074       -10.8594 
  46   1.0000      -0.398518       -10.8442 
  47   1.0000      -0.381052       -10.3689 
  48   1.0000      -0.379750       -10.3335 
  49   1.0000      -0.365971        -9.9586 
  50   1.0000      -0.358143        -9.7456 
  51   1.0000      -0.354909        -9.6576 
  52   1.0000      -0.341097        -9.2817 
  53   1.0000      -0.333280        -9.0690 
  54   1.0000      -0.331656        -9.0248 
  55   1.0000      -0.331049        -9.0083 
  56   1.0000      -0.328142        -8.9292 
  57   1.0000      -0.325093        -8.8462 
  58   1.0000      -0.321403        -8.7458 
  59   1.0000      -0.285597        -7.7715 
  60   1.0000      -0.276515        -7.5243 
  61   1.0000      -0.274877        -7.4798 
  62   1.0000      -0.271273        -7.3817 
  63   1.0000      -0.231117        -6.2890 
  64   1.0000      -0.174650        -4.7525 
  65   0.0000      -0.048351        -1.3157 
  66   0.0000       0.010936         0.2976 
  67   0.0000       0.040497         1.1020 
  68   0.0000       0.049397         1.3442 
  69   0.0000       0.052826         1.4375 
  70   0.0000       0.062599         1.7034 
  71   0.0000       0.063656         1.7322 
  72   0.0000       0.082238         2.2378 
  73   0.0000       0.085692         2.3318 
  74   0.0000       0.088697         2.4136 
  75   0.0000       0.091186         2.4813 
  76   0.0000       0.094688         2.5766 
  77   0.0000       0.095724         2.6048 
  78   0.0000       0.100954         2.7471 
  79   0.0000       0.102737         2.7956 
  80   0.0000       0.118044         3.2121 
  81   0.0000       0.125641         3.4189 
  82   0.0000       0.129976         3.5368 
  83   0.0000       0.144652         3.9362 
  84   0.0000       0.146886         3.9970 
  85   0.0000       0.151483         4.1220 
  86   0.0000       0.160061         4.3555 
  87   0.0000       0.160153         4.3580 
  88   0.0000       0.162043         4.4094 
  89   0.0000       0.168578         4.5872 
  90   0.0000       0.170386         4.6364 
  91   0.0000       0.178736         4.8637 
  92   0.0000       0.195889         5.3304 
  93   0.0000       0.204108         5.5540 
  94   0.0000       0.212253         5.7757 
  95   0.0000       0.217218         5.9108 
  96   0.0000       0.222614         6.0576 
  97   0.0000       0.242835         6.6079 
  98   0.0000       0.248315         6.7570 
  99   0.0000       0.260807         7.0969 
 100   0.0000       0.268483         7.3058 
 101   0.0000       0.290733         7.9112 
 102   0.0000       0.308285         8.3889 
 103   0.0000       0.323246         8.7960 
 104   0.0000       0.327164         8.9026 
 105   0.0000       0.348735         9.4896 
 106   0.0000       0.361050         9.8247 
 107   0.0000       0.366063         9.9611 
 108   0.0000       0.390505        10.6262 
 109   0.0000       0.409459        11.1420 
 110   0.0000       0.411483        11.1970 
 111   0.0000       0.412979        11.2377 
 112   0.0000       0.419188        11.4067 
 113   0.0000       0.423927        11.5356 
 114   0.0000       0.435733        11.8569 
 115   0.0000       0.439890        11.9700 
 116   0.0000       0.442286        12.0352 
 117   0.0000       0.461367        12.5544 
 118   0.0000       0.463108        12.6018 
 119   0.0000       0.470712        12.8087 
 120   0.0000       0.476307        12.9610 
 121   0.0000       0.478753        13.0275 
 122   0.0000       0.487695        13.2709 
 123   0.0000       0.502597        13.6764 
 124   0.0000       0.503754        13.7078 
 125   0.0000       0.505300        13.7499 
 126   0.0000       0.515984        14.0406 
 127   0.0000       0.522588        14.2203 
 128   0.0000       0.528362        14.3775 
 129   0.0000       0.540901        14.7187 
 130   0.0000       0.543320        14.7845 
 131   0.0000       0.551442        15.0055 
 132   0.0000       0.558090        15.1864 
 133   0.0000       0.560072        15.2403 
 134   0.0000       0.587160        15.9774 
 135   0.0000       0.588419        16.0117 
 136   0.0000       0.596331        16.2270 
 137   0.0000       0.604159        16.4400 
 138   0.0000       0.605562        16.4782 
 139   0.0000       0.607634        16.5345 
 140   0.0000       0.618522        16.8308 
 141   0.0000       0.624065        16.9817 
 142   0.0000       0.638972        17.3873 
 143   0.0000       0.641620        17.4594 
 144   0.0000       0.643809        17.5189 
 145   0.0000       0.644674        17.5425 
 146   0.0000       0.651759        17.7353 
 147   0.0000       0.654657        17.8141 
 148   0.0000       0.656444        17.8628 
 149   0.0000       0.659525        17.9466 
 150   0.0000       0.661771        18.0077 
 151   0.0000       0.662634        18.0312 
 152   0.0000       0.667979        18.1766 
 153   0.0000       0.668224        18.1833 
 154   0.0000       0.680225        18.5099 
 155   0.0000       0.681599        18.5473 
 156   0.0000       0.687239        18.7007 
 157   0.0000       0.689999        18.7758 
 158   0.0000       0.691795        18.8247 
 159   0.0000       0.697806        18.9883 
 160   0.0000       0.707396        19.2492 
 161   0.0000       0.718891        19.5620 
 162   0.0000       0.719523        19.5792 
 163   0.0000       0.728782        19.8312 
 164   0.0000       0.733319        19.9546 
 165   0.0000       0.735491        20.0137 
 166   0.0000       0.738167        20.0866 
 167   0.0000       0.747246        20.3336 
 168   0.0000       0.756776        20.5929 
 169   0.0000       0.768704        20.9175 
 170   0.0000       0.773609        21.0510 
 171   0.0000       0.781070        21.2540 
 172   0.0000       0.801908        21.8210 
 173   0.0000       0.818730        22.2788 
 174   0.0000       0.832035        22.6408 
 175   0.0000       0.832913        22.6647 
 176   0.0000       0.840990        22.8845 
 177   0.0000       0.852689        23.2028 
 178   0.0000       0.872486        23.7415 
 179   0.0000       0.879249        23.9256 
 180   0.0000       0.884498        24.0684 
 181   0.0000       0.912962        24.8430 
 182   0.0000       0.929340        25.2886 
 183   0.0000       0.938673        25.5426 
 184   0.0000       0.951629        25.8951 
 185   0.0000       0.978807        26.6347 
 186   0.0000       0.984270        26.7833 
 187   0.0000       0.990538        26.9539 
 188   0.0000       0.996600        27.1189 
 189   0.0000       1.014088        27.5947 
 190   0.0000       1.037428        28.2298 
 191   0.0000       1.042273        28.3617 
 192   0.0000       1.048031        28.5184 
 193   0.0000       1.049412        28.5560 
 194   0.0000       1.053754        28.6741 
 195   0.0000       1.065172        28.9848 
 196   0.0000       1.080664        29.4064 
 197   0.0000       1.084016        29.4976 
 198   0.0000       1.099597        29.9216 
 199   0.0000       1.144098        31.1325 
 200   0.0000       1.156752        31.4768 
 201   0.0000       1.165554        31.7163 
 202   0.0000       1.192817        32.4582 
 203   0.0000       1.204185        32.7675 
 204   0.0000       1.207183        32.8491 
 205   0.0000       1.208708        32.8906 
 206   0.0000       1.215308        33.0702 
 207   0.0000       1.218095        33.1460 
 208   0.0000       1.222590        33.2684 
 209   0.0000       1.227625        33.4054 
 210   0.0000       1.235980        33.6327 
 211   0.0000       1.257472        34.2175 
 212   0.0000       1.282839        34.9078 
 213   0.0000       1.288298        35.0564 
 214   0.0000       1.303908        35.4811 
 215   0.0000       1.308110        35.5955 
 216   0.0000       1.318264        35.8718 
 217   0.0000       1.327617        36.1263 
 218   0.0000       1.335402        36.3381 
 219   0.0000       1.345895        36.6237 
 220   0.0000       1.347421        36.6652 
 221   0.0000       1.372223        37.3401 
 222   0.0000       1.383853        37.6566 
 223   0.0000       1.388428        37.7811 
 224   0.0000       1.399278        38.0763 
 225   0.0000       1.409051        38.3422 
 226   0.0000       1.417299        38.5667 
 227   0.0000       1.424977        38.7756 
 228   0.0000       1.426480        38.8165 
 229   0.0000       1.428591        38.8739 
 230   0.0000       1.445939        39.3460 
 231   0.0000       1.452260        39.5180 
 232   0.0000       1.462235        39.7894 
 233   0.0000       1.468911        39.9711 
 234   0.0000       1.471398        40.0388 
 235   0.0000       1.483804        40.3764 
 236   0.0000       1.494294        40.6618 
 237   0.0000       1.520376        41.3715 
 238   0.0000       1.532218        41.6938 
 239   0.0000       1.537118        41.8271 
 240   0.0000       1.557045        42.3693 
 241   0.0000       1.558621        42.4122 
 242   0.0000       1.582849        43.0715 
 243   0.0000       1.585520        43.1442 
 244   0.0000       1.586284        43.1650 
 245   0.0000       1.601121        43.5687 
 246   0.0000       1.616672        43.9919 
 247   0.0000       1.622219        44.1428 
 248   0.0000       1.627854        44.2962 
 249   0.0000       1.630118        44.3578 
 250   0.0000       1.633019        44.4367 
 251   0.0000       1.639681        44.6180 
 252   0.0000       1.645743        44.7829 
 253   0.0000       1.651276        44.9335 
 254   0.0000       1.651629        44.9431 
 255   0.0000       1.660657        45.1888 
 256   0.0000       1.668762        45.4093 
 257   0.0000       1.671804        45.4921 
 258   0.0000       1.675739        45.5992 
 259   0.0000       1.685880        45.8751 
 260   0.0000       1.686448        45.8906 
 261   0.0000       1.694945        46.1218 
 262   0.0000       1.698853        46.2281 
 263   0.0000       1.702433        46.3256 
 264   0.0000       1.704140        46.3720 
 265   0.0000       1.710700        46.5505 
 266   0.0000       1.716936        46.7202 
 267   0.0000       1.725371        46.9497 
 268   0.0000       1.741893        47.3993 
 269   0.0000       1.752019        47.6749 
 270   0.0000       1.756067        47.7850 
 271   0.0000       1.762310        47.9549 
 272   0.0000       1.780610        48.4529 
 273   0.0000       1.783116        48.5211 
 274   0.0000       1.790102        48.7111 
 275   0.0000       1.796231        48.8779 
 276   0.0000       1.802443        49.0470 
 277   0.0000       1.814005        49.3616 
 278   0.0000       1.819515        49.5115 
 279   0.0000       1.822355        49.5888 
 280   0.0000       1.830340        49.8061 
 281   0.0000       1.857414        50.5428 
 282   0.0000       1.870072        50.8873 
 283   0.0000       1.879649        51.1479 
 284   0.0000       1.889139        51.4061 
 285   0.0000       1.896959        51.6189 
 286   0.0000       1.911870        52.0246 
 287   0.0000       1.915136        52.1135 
 288   0.0000       1.922024        52.3009 
 289   0.0000       1.929337        52.4999 
 290   0.0000       1.952839        53.1394 
 291   0.0000       1.975687        53.7612 
 292   0.0000       1.992227        54.2113 
 293   0.0000       1.996347        54.3234 
 294   0.0000       2.011805        54.7440 
 295   0.0000       2.024457        55.0883 
 296   0.0000       2.044697        55.6390 
 297   0.0000       2.050724        55.8030 
 298   0.0000       2.068040        56.2742 
 299   0.0000       2.075161        56.4680 
 300   0.0000       2.076794        56.5125 
 301   0.0000       2.085985        56.7625 
 302   0.0000       2.111634        57.4605 
 303   0.0000       2.126210        57.8571 
 304   0.0000       2.128124        57.9092 
 305   0.0000       2.128924        57.9310 
 306   0.0000       2.151717        58.5512 
 307   0.0000       2.155821        58.6629 
 308   0.0000       2.188954        59.5645 
 309   0.0000       2.199048        59.8391 
 310   0.0000       2.209881        60.1339 
 311   0.0000       2.212674        60.2099 
 312   0.0000       2.218637        60.3722 
 313   0.0000       2.227222        60.6058 
 314   0.0000       2.253188        61.3124 
 315   0.0000       2.260935        61.5232 
 316   0.0000       2.280984        62.0687 
 317   0.0000       2.291807        62.3632 
 318   0.0000       2.296913        62.5022 
 319   0.0000       2.301856        62.6367 
 320   0.0000       2.319733        63.1231 
 321   0.0000       2.326534        63.3082 
 322   0.0000       2.329464        63.3879 
 323   0.0000       2.334735        63.5314 
 324   0.0000       2.375147        64.6310 
 325   0.0000       2.382907        64.8422 
 326   0.0000       2.407462        65.5104 
 327   0.0000       2.410974        65.6059 
 328   0.0000       2.412202        65.6394 
 329   0.0000       2.413246        65.6678 
 330   0.0000       2.422110        65.9090 
 331   0.0000       2.424542        65.9751 
 332   0.0000       2.440773        66.4168 
 333   0.0000       2.484170        67.5977 
 334   0.0000       2.498759        67.9947 
 335   0.0000       2.502292        68.0908 
 336   0.0000       2.535441        68.9928 
 337   0.0000       2.545594        69.2691 
 338   0.0000       2.558619        69.6236 
 339   0.0000       2.592760        70.5526 
 340   0.0000       2.601378        70.7871 
 341   0.0000       2.625554        71.4450 
 342   0.0000       2.641804        71.8871 
 343   0.0000       2.661211        72.4152 
 344   0.0000       2.680472        72.9393 
 345   0.0000       2.713676        73.8429 
 346   0.0000       2.722311        74.0779 
 347   0.0000       2.754007        74.9403 
 348   0.0000       2.776773        75.5598 
 349   0.0000       2.823024        76.8184 
 350   0.0000       2.845087        77.4188 
 351   0.0000       2.871212        78.1296 
 352   0.0000       2.927815        79.6699 
 353   0.0000       3.006891        81.8217 
 354   0.0000       3.191106        86.8344 
 355   0.0000       3.202577        87.1466 
 356   0.0000       3.396007        92.4101 

                 SPIN DOWN ORBITALS
  NO   OCC          E(Eh)            E(eV) 
   0   1.0000     -10.215068      -277.9661 
   1   1.0000     -10.212021      -277.8832 
   2   1.0000     -10.202494      -277.6240 
   3   1.0000     -10.200684      -277.5747 
   4   1.0000     -10.193528      -277.3800 
   5   1.0000     -10.193333      -277.3747 
   6   1.0000     -10.192426      -277.3500 
   7   1.0000     -10.191669      -277.3294 
   8   1.0000     -10.189614      -277.2735 
   9   1.0000     -10.188045      -277.2308 
  10   1.0000     -10.187658      -277.2203 
  11   1.0000     -10.185392      -277.1586 
  12   1.0000     -10.184295      -277.1288 
  13   1.0000     -10.183581      -277.1093 
  14   1.0000     -10.182163      -277.0707 
  15   1.0000     -10.181859      -277.0625 
  16   1.0000     -10.177448      -276.9424 
  17   1.0000     -10.175689      -276.8946 
  18   1.0000      -0.872197       -23.7337 
  19   1.0000      -0.816058       -22.2061 
  20   1.0000      -0.795805       -21.6550 
  21   1.0000      -0.794990       -21.6328 
  22   1.0000      -0.766997       -20.8711 
  23   1.0000      -0.751913       -20.4606 
  24   1.0000      -0.727646       -19.8003 
  25   1.0000      -0.719940       -19.5906 
  26   1.0000      -0.696400       -18.9500 
  27   1.0000      -0.654517       -17.8103 
  28   1.0000      -0.638243       -17.3675 
  29   1.0000      -0.612410       -16.6645 
  30   1.0000      -0.593700       -16.1554 
  31   1.0000      -0.579276       -15.7629 
  32   1.0000      -0.560767       -15.2592 
  33   1.0000      -0.540934       -14.7196 
  34   1.0000      -0.522042       -14.2055 
  35   1.0000      -0.497256       -13.5310 
  36   1.0000      -0.485445       -13.2096 
  37   1.0000      -0.477135       -12.9835 
  38   1.0000      -0.470154       -12.7935 
  39   1.0000      -0.459317       -12.4987 
  40   1.0000      -0.432162       -11.7597 
  41   1.0000      -0.429162       -11.6781 
  42   1.0000      -0.425526       -11.5792 
  43   1.0000      -0.419692       -11.4204 
  44   1.0000      -0.412085       -11.2134 
  45   1.0000      -0.397415       -10.8142 
  46   1.0000      -0.391215       -10.6455 
  47   1.0000      -0.377454       -10.2711 
  48   1.0000      -0.377167       -10.2632 
  49   1.0000      -0.364800        -9.9267 
  50   1.0000      -0.357141        -9.7183 
  51   1.0000      -0.351744        -9.5714 
  52   1.0000      -0.338790        -9.2190 
  53   1.0000      -0.332765        -9.0550 
  54   1.0000      -0.330025        -8.9804 
  55   1.0000      -0.328648        -8.9430 
  56   1.0000      -0.327798        -8.9198 
  57   1.0000      -0.324334        -8.8256 
  58   1.0000      -0.320670        -8.7259 
  59   1.0000      -0.280073        -7.6212 
  60   1.0000      -0.276473        -7.5232 
  61   1.0000      -0.274225        -7.4620 
  62   1.0000      -0.258867        -7.0441 
  63   1.0000      -0.223115        -6.0713 
  64   0.0000      -0.084265        -2.2930 
  65   0.0000      -0.039293        -1.0692 
  66   0.0000       0.027024         0.7354 
  67   0.0000       0.040897         1.1129 
  68   0.0000       0.049702         1.3525 
  69   0.0000       0.059198         1.6109 
  70   0.0000       0.062730         1.7070 
  71   0.0000       0.064103         1.7443 
  72   0.0000       0.082663         2.2494 
  73   0.0000       0.086157         2.3444 
  74   0.0000       0.089286         2.4296 
  75   0.0000       0.091381         2.4866 
  76   0.0000       0.095003         2.5852 
  77   0.0000       0.095746         2.6054 
  78   0.0000       0.101806         2.7703 
  79   0.0000       0.104129         2.8335 
  80   0.0000       0.120269         3.2727 
  81   0.0000       0.126148         3.4327 
  82   0.0000       0.130161         3.5419 
  83   0.0000       0.145476         3.9586 
  84   0.0000       0.148850         4.0504 
  85   0.0000       0.152535         4.1507 
  86   0.0000       0.160655         4.3716 
  87   0.0000       0.160922         4.3789 
  88   0.0000       0.162346         4.4177 
  89   0.0000       0.170824         4.6484 
  90   0.0000       0.170983         4.6527 
  91   0.0000       0.181057         4.9268 
  92   0.0000       0.203302         5.5321 
  93   0.0000       0.205118         5.5815 
  94   0.0000       0.213491         5.8094 
  95   0.0000       0.218565         5.9474 
  96   0.0000       0.223773         6.0892 
  97   0.0000       0.244134         6.6432 
  98   0.0000       0.249777         6.7968 
  99   0.0000       0.263076         7.1587 
 100   0.0000       0.270629         7.3642 
 101   0.0000       0.292186         7.9508 
 102   0.0000       0.310062         8.4372 
 103   0.0000       0.326117         8.8741 
 104   0.0000       0.328128         8.9288 
 105   0.0000       0.349241         9.5033 
 106   0.0000       0.361821         9.8457 
 107   0.0000       0.367266         9.9938 
 108   0.0000       0.391919        10.6647 
 109   0.0000       0.409941        11.1551 
 110   0.0000       0.411952        11.2098 
 111   0.0000       0.413489        11.2516 
 112   0.0000       0.419557        11.4167 
 113   0.0000       0.425012        11.5652 
 114   0.0000       0.438635        11.9359 
 115   0.0000       0.444432        12.0936 
 116   0.0000       0.453867        12.3503 
 117   0.0000       0.464729        12.6459 
 118   0.0000       0.468045        12.7362 
 119   0.0000       0.471753        12.8371 
 120   0.0000       0.479429        13.0459 
 121   0.0000       0.483291        13.1510 
 122   0.0000       0.489992        13.3334 
 123   0.0000       0.504480        13.7276 
 124   0.0000       0.505452        13.7541 
 125   0.0000       0.506407        13.7800 
 126   0.0000       0.520343        14.1593 
 127   0.0000       0.525875        14.3098 
 128   0.0000       0.530999        14.4492 
 129   0.0000       0.541820        14.7437 
 130   0.0000       0.551834        15.0162 
 131   0.0000       0.552937        15.0462 
 132   0.0000       0.561612        15.2822 
 133   0.0000       0.569022        15.4839 
 134   0.0000       0.590351        16.0643 
 135   0.0000       0.590733        16.0747 
 136   0.0000       0.598463        16.2850 
 137   0.0000       0.604998        16.4628 
 138   0.0000       0.607054        16.5188 
 139   0.0000       0.608468        16.5572 
 140   0.0000       0.618987        16.8435 
 141   0.0000       0.628017        17.0892 
 142   0.0000       0.639446        17.4002 
 143   0.0000       0.641882        17.4665 
 144   0.0000       0.645713        17.5707 
 145   0.0000       0.646703        17.5977 
 146   0.0000       0.652363        17.7517 
 147   0.0000       0.654796        17.8179 
 148   0.0000       0.657497        17.8914 
 149   0.0000       0.660657        17.9774 
 150   0.0000       0.662338        18.0231 
 151   0.0000       0.665608        18.1121 
 152   0.0000       0.668732        18.1971 
 153   0.0000       0.669580        18.2202 
 154   0.0000       0.681746        18.5513 
 155   0.0000       0.683325        18.5942 
 156   0.0000       0.688324        18.7302 
 157   0.0000       0.690999        18.8030 
 158   0.0000       0.692313        18.8388 
 159   0.0000       0.698260        19.0006 
 160   0.0000       0.707552        19.2535 
 161   0.0000       0.720067        19.5940 
 162   0.0000       0.720840        19.6151 
 163   0.0000       0.729606        19.8536 
 164   0.0000       0.736717        20.0471 
 165   0.0000       0.738595        20.0982 
 166   0.0000       0.740240        20.1430 
 167   0.0000       0.748624        20.3711 
 168   0.0000       0.758888        20.6504 
 169   0.0000       0.769554        20.9406 
 170   0.0000       0.778549        21.1854 
 171   0.0000       0.783551        21.3215 
 172   0.0000       0.802712        21.8429 
 173   0.0000       0.820541        22.3280 
 174   0.0000       0.833297        22.6752 
 175   0.0000       0.835180        22.7264 
 176   0.0000       0.841797        22.9065 
 177   0.0000       0.853450        23.2236 
 178   0.0000       0.875344        23.8193 
 179   0.0000       0.880640        23.9634 
 180   0.0000       0.887541        24.1512 
 181   0.0000       0.917326        24.9617 
 182   0.0000       0.929906        25.3040 
 183   0.0000       0.947111        25.7722 
 184   0.0000       0.954883        25.9837 
 185   0.0000       0.985127        26.8067 
 186   0.0000       0.986558        26.8456 
 187   0.0000       0.992090        26.9961 
 188   0.0000       1.001156        27.2428 
 189   0.0000       1.014721        27.6120 
 190   0.0000       1.038844        28.2684 
 191   0.0000       1.047616        28.5071 
 192   0.0000       1.049614        28.5615 
 193   0.0000       1.050590        28.5880 
 194   0.0000       1.055388        28.7186 
 195   0.0000       1.066419        29.0187 
 196   0.0000       1.083361        29.4798 
 197   0.0000       1.086392        29.5622 
 198   0.0000       1.101166        29.9642 
 199   0.0000       1.145472        31.1699 
 200   0.0000       1.157417        31.4949 
 201   0.0000       1.166435        31.7403 
 202   0.0000       1.193922        32.4883 
 203   0.0000       1.204534        32.7770 
 204   0.0000       1.207845        32.8671 
 205   0.0000       1.209323        32.9074 
 206   0.0000       1.215575        33.0775 
 207   0.0000       1.219569        33.1862 
 208   0.0000       1.222985        33.2791 
 209   0.0000       1.229770        33.4637 
 210   0.0000       1.236812        33.6554 
 211   0.0000       1.258578        34.2477 
 212   0.0000       1.284941        34.9650 
 213   0.0000       1.289438        35.0874 
 214   0.0000       1.305618        35.5277 
 215   0.0000       1.309059        35.6213 
 216   0.0000       1.324564        36.0432 
 217   0.0000       1.329193        36.1692 
 218   0.0000       1.335944        36.3529 
 219   0.0000       1.347449        36.6659 
 220   0.0000       1.356858        36.9220 
 221   0.0000       1.374356        37.3981 
 222   0.0000       1.384264        37.6677 
 223   0.0000       1.393905        37.9301 
 224   0.0000       1.402883        38.1744 
 225   0.0000       1.410692        38.3869 
 226   0.0000       1.418640        38.6032 
 227   0.0000       1.425042        38.7774 
 228   0.0000       1.426494        38.8169 
 229   0.0000       1.430661        38.9303 
 230   0.0000       1.452681        39.5295 
 231   0.0000       1.454663        39.5834 
 232   0.0000       1.463932        39.8356 
 233   0.0000       1.469490        39.9869 
 234   0.0000       1.473804        40.1043 
 235   0.0000       1.484814        40.4038 
 236   0.0000       1.495145        40.6850 
 237   0.0000       1.522394        41.4264 
 238   0.0000       1.533259        41.7221 
 239   0.0000       1.538170        41.8557 
 240   0.0000       1.559507        42.4364 
 241   0.0000       1.562099        42.5069 
 242   0.0000       1.583037        43.0766 
 243   0.0000       1.587327        43.1934 
 244   0.0000       1.587995        43.2115 
 245   0.0000       1.601997        43.5925 
 246   0.0000       1.617584        44.0167 
 247   0.0000       1.622953        44.1628 
 248   0.0000       1.628702        44.3192 
 249   0.0000       1.630344        44.3639 
 250   0.0000       1.634430        44.4751 
 251   0.0000       1.639901        44.6240 
 252   0.0000       1.646344        44.7993 
 253   0.0000       1.652302        44.9614 
 254   0.0000       1.653078        44.9825 
 255   0.0000       1.661380        45.2085 
 256   0.0000       1.671804        45.4921 
 257   0.0000       1.675019        45.5796 
 258   0.0000       1.676337        45.6155 
 259   0.0000       1.686954        45.9044 
 260   0.0000       1.688468        45.9455 
 261   0.0000       1.697016        46.1781 
 262   0.0000       1.699609        46.2487 
 263   0.0000       1.703436        46.3528 
 264   0.0000       1.705534        46.4100 
 265   0.0000       1.711170        46.5633 
 266   0.0000       1.717866        46.7455 
 267   0.0000       1.726494        46.9803 
 268   0.0000       1.745844        47.5068 
 269   0.0000       1.754623        47.7457 
 270   0.0000       1.756352        47.7928 
 271   0.0000       1.764202        48.0064 
 272   0.0000       1.783463        48.5305 
 273   0.0000       1.786422        48.6110 
 274   0.0000       1.791809        48.7576 
 275   0.0000       1.797265        48.9061 
 276   0.0000       1.805786        49.1379 
 277   0.0000       1.819354        49.5071 
 278   0.0000       1.822802        49.6010 
 279   0.0000       1.824154        49.6378 
 280   0.0000       1.831809        49.8461 
 281   0.0000       1.858215        50.5646 
 282   0.0000       1.876662        51.0666 
 283   0.0000       1.881474        51.1975 
 284   0.0000       1.890208        51.4352 
 285   0.0000       1.897433        51.6318 
 286   0.0000       1.915797        52.1315 
 287   0.0000       1.916433        52.1488 
 288   0.0000       1.925027        52.3826 
 289   0.0000       1.930284        52.5257 
 290   0.0000       1.953595        53.1600 
 291   0.0000       1.976291        53.7776 
 292   0.0000       1.996527        54.3283 
 293   0.0000       1.998450        54.3806 
 294   0.0000       2.012429        54.7610 
 295   0.0000       2.025362        55.1129 
 296   0.0000       2.045425        55.6588 
 297   0.0000       2.054690        55.9110 
 298   0.0000       2.071482        56.3679 
 299   0.0000       2.077811        56.5401 
 300   0.0000       2.081478        56.6399 
 301   0.0000       2.086928        56.7882 
 302   0.0000       2.111571        57.4588 
 303   0.0000       2.128797        57.9275 
 304   0.0000       2.130383        57.9707 
 305   0.0000       2.131177        57.9923 
 306   0.0000       2.157831        58.7176 
 307   0.0000       2.158975        58.7487 
 308   0.0000       2.189637        59.5831 
 309   0.0000       2.200043        59.8662 
 310   0.0000       2.211146        60.1684 
 311   0.0000       2.213808        60.2408 
 312   0.0000       2.220391        60.4199 
 313   0.0000       2.229408        60.6653 
 314   0.0000       2.254273        61.3419 
 315   0.0000       2.261941        61.5505 
 316   0.0000       2.283081        62.1258 
 317   0.0000       2.292438        62.3804 
 318   0.0000       2.298121        62.5351 
 319   0.0000       2.305825        62.7447 
 320   0.0000       2.320227        63.1366 
 321   0.0000       2.328530        63.3625 
 322   0.0000       2.332050        63.4583 
 323   0.0000       2.336682        63.5844 
 324   0.0000       2.377374        64.6916 
 325   0.0000       2.385258        64.9062 
 326   0.0000       2.409045        65.5534 
 327   0.0000       2.411354        65.6163 
 328   0.0000       2.412914        65.6587 
 329   0.0000       2.413431        65.6728 
 330   0.0000       2.423853        65.9564 
 331   0.0000       2.425302        65.9958 
 332   0.0000       2.442951        66.4761 
 333   0.0000       2.486068        67.6493 
 334   0.0000       2.501249        68.0624 
 335   0.0000       2.503439        68.1220 
 336   0.0000       2.536107        69.0110 
 337   0.0000       2.546773        69.3012 
 338   0.0000       2.559600        69.6503 
 339   0.0000       2.593616        70.5759 
 340   0.0000       2.601763        70.7976 
 341   0.0000       2.626548        71.4720 
 342   0.0000       2.643218        71.9256 
 343   0.0000       2.663544        72.4787 
 344   0.0000       2.682388        72.9915 
 345   0.0000       2.713948        73.8503 
 346   0.0000       2.722881        74.0934 
 347   0.0000       2.754685        74.9588 
 348   0.0000       2.777678        75.5845 
 349   0.0000       2.824682        76.8635 
 350   0.0000       2.845614        77.4331 
 351   0.0000       2.873905        78.2029 
 352   0.0000       2.928656        79.6928 
 353   0.0000       3.009277        81.8866 
[...]
 A(DIA)          0.0006              -0.0004              -0.0002    A(PC) =   0.0000
             ----------           ----------           ----------
 A(Tot)         -2.3094              -7.8374             -10.7772    A(iso)=   -6.9747
 Orientation: 
  X          -0.9921947           -0.0179331            0.1234019
  Y           0.1233678            0.0029992            0.9923565
  Z          -0.0181661            0.9998347           -0.0007634

Notes:  (1) The A matrix conforms to the "SAI" spin Hamiltonian convention.
        (2) Tensor is right-handed.

 -----------------------------------------------------------
 Nucleus  36H : A:ISTP=    1 I=  0.5 P=533.5514 MHz/au**3
                Q:ISTP=    2 I=  1.0 Q=  0.0029 barn     
 -----------------------------------------------------------
 Solving for nuclear perturbation:
Forming RHS of the CP-SCF equations         ... 
Calc. nucleus orbit integrals (SHARK)       ... done

------------------------------------------------------------------------------
                           ORCA CP-SCF CALCULATION
------------------------------------------------------------------------------

Input orbitals are from        ... cc-pVDZ_i.gbw
Input Perturbation             ... cc-pVDZ_i.pin.tmp
Wavefunction output            ... cc-pVDZ_i.pout.tmp
Perturbation mode              ... Imaginary perturbation
Solver                         ... POPLE
Max. number of iterations      ... 64
Convergence tolerance          ... 1.000e-03
Integral handling              ... Direct
DFT GridXC                     ... 1
COSX GridX                     ... 1
COSX IntAccX                   ... 3.067
COSX Algorithm                 ... Auto
Number of perturbations        ... 3
Number of operators            ... 2
Orbital ranges used for CP-SCF:
 Operator 0:  Orbitals   0... 64  to  65...356
 Operator 1:  Orbitals   0... 63  to  64...356
Variables per perturbation     ... 37732
DFT calculation                         ... on
XC functional terms                     ... off
Hybrid DFT                              ... on
   Exchange mixing (SCF)                ...  0.200
   Exchange mixing (CP-SCF)             ...  0.200
   GGA exch. scaling(SCF)               ...  0.720
   GGA exch. scaling (CP-SCF)           ...  0.720
   GGA corr. scaling (SCF)              ...  0.810
   GGA corr. scaling (CP-SCF)           ...  0.810

CP-SCF GRID
-----------

General Integration Accuracy     IntAcc      ... 3.467
Radial Grid Type                 RadialGrid  ... OptM3 with GC (2021)
Angular Grid (max. ang.)         AngularGrid ... 1 (Lebedev-50)
Angular grid pruning method      GridPruning ... 4 (adaptive)
Weight generation scheme         WeightScheme... Becke
Basis function cutoff            BFCut       ... 1.0000e-10
Integration weight cutoff        WCut        ... 1.0000e-14
Angular grids for H and He will be reduced by one unit
Partially contracted basis set               ... off
Rotationally invariant grid construction     ... off

Total number of grid points                  ...    24798
Total number of batches                      ...      406
Average number of points per batch           ...       61
Average number of grid points per atom       ...      636

CP-SCF GRIDX
------------

General Integration Accuracy     IntAcc      ... 3.067
Radial Grid Type                 RadialGrid  ... OptM3 with GC (2021)
Angular Grid (max. ang.)         AngularGrid ... 1 (Lebedev-50)
Angular grid pruning method      GridPruning ... 4 (adaptive)
Weight generation scheme         WeightScheme... Becke
Basis function cutoff            BFCut       ... 1.0000e-10
Integration weight cutoff        WCut        ... 1.0000e-14
Angular grids for H and He will be reduced by one unit
Partially contracted basis set               ... on
Rotationally invariant grid construction     ... off

Total number of grid points                  ...    11665
Total number of batches                      ...      205
Average number of points per batch           ...       56
Average number of grid points per atom       ...      299

Memory available               ... 907.1 MB
Memory needed per perturbation ...   8.1 MB
Perturbations treated per batch... 3
Number of batches              ... 1
     CP-SCF ITERATION   0:   1.0063e-01 (   1.1 sec   0/  3 done)
     CP-SCF ITERATION   1:   1.5338e-03 (   1.2 sec   2/  3 done)
     CP-SCF ITERATION   2:   9.5133e-05 (   0.8 sec   3/  3 done)
                    *** THE CP-SCF HAS CONVERGED ***

Forming final perturbed densities           ... done
Transforming perturbed density to AO basis  ... done

 Raw HFC matrix (all values in MHz): 
 -----------------------------------
                 2.0404               0.1630              -0.0167
                 0.1630               4.5883              -0.0013
                -0.0167              -0.0013               3.0309

 A(FC)           3.2202               3.2202               3.2202
 A(SD)          -1.1903              -0.1891               1.3794
 A(ORB+DIA)     -0.0001               0.0001              -0.0008    A(PC) =  -0.0003
 A(ORB)          0.0000              -0.0001              -0.0010    A(PC) =  -0.0004
 A(DIA)         -0.0002               0.0002               0.0001    A(PC) =   0.0001
             ----------           ----------           ----------
 A(Tot)          2.0298               3.0312               4.5987    A(iso)=    3.2199
 Orientation: 
  X           0.9978395           -0.0164836           -0.0635971
  Y          -0.0635637            0.0025420           -0.9979745
  Z           0.0166119            0.9998609            0.0014887

Notes:  (1) The A matrix conforms to the "SAI" spin Hamiltonian convention.
        (2) Tensor is right-handed.

 -----------------------------------------------------------
 Nucleus  37H : A:ISTP=    1 I=  0.5 P=533.5514 MHz/au**3
                Q:ISTP=    2 I=  1.0 Q=  0.0029 barn     
 -----------------------------------------------------------
 Solving for nuclear perturbation:
Forming RHS of the CP-SCF equations         ... 
Calc. nucleus orbit integrals (SHARK)       ... done

------------------------------------------------------------------------------
                           ORCA CP-SCF CALCULATION
------------------------------------------------------------------------------

Input orbitals are from        ... cc-pVDZ_i.gbw
Input Perturbation             ... cc-pVDZ_i.pin.tmp
Wavefunction output            ... cc-pVDZ_i.pout.tmp
Perturbation mode              ... Imaginary perturbation
Solver                         ... POPLE
Max. number of iterations      ... 64
Convergence tolerance          ... 1.000e-03
Integral handling              ... Direct
DFT GridXC                     ... 1
COSX GridX                     ... 1
COSX IntAccX                   ... 3.067
COSX Algorithm                 ... Auto
Number of perturbations        ... 3
Number of operators            ... 2
Orbital ranges used for CP-SCF:
 Operator 0:  Orbitals   0... 64  to  65...356
 Operator 1:  Orbitals   0... 63  to  64...356
Variables per perturbation     ... 37732
DFT calculation                         ... on
XC functional terms                     ... off
Hybrid DFT                              ... on
   Exchange mixing (SCF)                ...  0.200
   Exchange mixing (CP-SCF)             ...  0.200
   GGA exch. scaling(SCF)               ...  0.720
   GGA exch. scaling (CP-SCF)           ...  0.720
   GGA corr. scaling (SCF)              ...  0.810
   GGA corr. scaling (CP-SCF)           ...  0.810

CP-SCF GRID
-----------

General Integration Accuracy     IntAcc      ... 3.467
Radial Grid Type                 RadialGrid  ... OptM3 with GC (2021)
Angular Grid (max. ang.)         AngularGrid ... 1 (Lebedev-50)
Angular grid pruning method      GridPruning ... 4 (adaptive)
Weight generation scheme         WeightScheme... Becke
Basis function cutoff            BFCut       ... 1.0000e-10
Integration weight cutoff        WCut        ... 1.0000e-14
Angular grids for H and He will be reduced by one unit
Partially contracted basis set               ... off
Rotationally invariant grid construction     ... off

Total number of grid points                  ...    24798
Total number of batches                      ...      406
Average number of points per batch           ...       61
Average number of grid points per atom       ...      636

CP-SCF GRIDX
------------

General Integration Accuracy     IntAcc      ... 3.067
Radial Grid Type                 RadialGrid  ... OptM3 with GC (2021)
Angular Grid (max. ang.)         AngularGrid ... 1 (Lebedev-50)
Angular grid pruning method      GridPruning ... 4 (adaptive)
Weight generation scheme         WeightScheme... Becke
Basis function cutoff            BFCut       ... 1.0000e-10
Integration weight cutoff        WCut        ... 1.0000e-14
Angular grids for H and He will be reduced by one unit
Partially contracted basis set               ... on
Rotationally invariant grid construction     ... off

Total number of grid points                  ...    11665
Total number of batches                      ...      205
Average number of points per batch           ...       56
Average number of grid points per atom       ...      299

Memory available               ... 906.7 MB
Memory needed per perturbation ...   8.1 MB
Perturbations treated per batch... 3
Number of batches              ... 1
     CP-SCF ITERATION   0:   3.6581e-02 (   1.2 sec   0/  3 done)
     CP-SCF ITERATION   1:   6.4728e-04 (   1.2 sec   3/  3 done)
                    *** THE CP-SCF HAS CONVERGED ***

Forming final perturbed densities           ... done
Transforming perturbed density to AO basis  ... done

 Raw HFC matrix (all values in MHz): 
 -----------------------------------
                -0.7778               0.2395               0.0002
                 0.2394               0.7243               0.0010
                 0.0002               0.0010              -0.7944

 A(FC)          -0.2827              -0.2827              -0.2827
 A(SD)           1.0438              -0.5116              -0.5322
 A(ORB+DIA)      0.0005              -0.0001              -0.0001    A(PC) =   0.0001
 A(ORB)          0.0004               0.0000              -0.0001    A(PC) =   0.0001
 A(DIA)          0.0001              -0.0001              -0.0001    A(PC) =  -0.0000
             ----------           ----------           ----------
 A(Tot)          0.7616              -0.7944              -0.8150    A(iso)=   -0.2826
 Orientation: 
  X          -0.1537196           -0.0043090            0.9881051
  Y          -0.9881143            0.0013167           -0.1537153
  Z          -0.0006387           -0.9999898           -0.0044602

Notes:  (1) The A matrix conforms to the "SAI" spin Hamiltonian convention.
        (2) Tensor is right-handed.

 -----------------------------------------------------------
 Nucleus  38H : A:ISTP=    1 I=  0.5 P=533.5514 MHz/au**3
                Q:ISTP=    2 I=  1.0 Q=  0.0029 barn     
 -----------------------------------------------------------
 Solving for nuclear perturbation:
Forming RHS of the CP-SCF equations         ... 
Calc. nucleus orbit integrals (SHARK)       ... done

------------------------------------------------------------------------------
                           ORCA CP-SCF CALCULATION
------------------------------------------------------------------------------

Input orbitals are from        ... cc-pVDZ_i.gbw
Input Perturbation             ... cc-pVDZ_i.pin.tmp
Wavefunction output            ... cc-pVDZ_i.pout.tmp
Perturbation mode              ... Imaginary perturbation
Solver                         ... POPLE
Max. number of iterations      ... 64
Convergence tolerance          ... 1.000e-03
Integral handling              ... Direct
DFT GridXC                     ... 1
COSX GridX                     ... 1
COSX IntAccX                   ... 3.067
COSX Algorithm                 ... Auto
Number of perturbations        ... 3
Number of operators            ... 2
Orbital ranges used for CP-SCF:
 Operator 0:  Orbitals   0... 64  to  65...356
 Operator 1:  Orbitals   0... 63  to  64...356
Variables per perturbation     ... 37732
DFT calculation                         ... on
XC functional terms                     ... off
Hybrid DFT                              ... on
   Exchange mixing (SCF)                ...  0.200
   Exchange mixing (CP-SCF)             ...  0.200
   GGA exch. scaling(SCF)               ...  0.720
   GGA exch. scaling (CP-SCF)           ...  0.720
   GGA corr. scaling (SCF)              ...  0.810
   GGA corr. scaling (CP-SCF)           ...  0.810

CP-SCF GRID
-----------

General Integration Accuracy     IntAcc      ... 3.467
Radial Grid Type                 RadialGrid  ... OptM3 with GC (2021)
Angular Grid (max. ang.)         AngularGrid ... 1 (Lebedev-50)
Angular grid pruning method      GridPruning ... 4 (adaptive)
Weight generation scheme         WeightScheme... Becke
Basis function cutoff            BFCut       ... 1.0000e-10
Integration weight cutoff        WCut        ... 1.0000e-14
Angular grids for H and He will be reduced by one unit
Partially contracted basis set               ... off
Rotationally invariant grid construction     ... off

Total number of grid points                  ...    24798
Total number of batches                      ...      406
Average number of points per batch           ...       61
Average number of grid points per atom       ...      636

CP-SCF GRIDX
------------

General Integration Accuracy     IntAcc      ... 3.067
Radial Grid Type                 RadialGrid  ... OptM3 with GC (2021)
Angular Grid (max. ang.)         AngularGrid ... 1 (Lebedev-50)
Angular grid pruning method      GridPruning ... 4 (adaptive)
Weight generation scheme         WeightScheme... Becke
Basis function cutoff            BFCut       ... 1.0000e-10
Integration weight cutoff        WCut        ... 1.0000e-14
Angular grids for H and He will be reduced by one unit
Partially contracted basis set               ... on
Rotationally invariant grid construction     ... off

Total number of grid points                  ...    11665
Total number of batches                      ...      205
Average number of points per batch           ...       56
Average number of grid points per atom       ...      299

Memory available               ... 906.3 MB
Memory needed per perturbation ...   8.1 MB
Perturbations treated per batch... 3
Number of batches              ... 1
     CP-SCF ITERATION   0:   3.6631e-02 (   1.1 sec   0/  3 done)
     CP-SCF ITERATION   1:   6.5700e-04 (   1.1 sec   3/  3 done)
                    *** THE CP-SCF HAS CONVERGED ***

Forming final perturbed densities           ... done
Transforming perturbed density to AO basis  ... done

 Raw HFC matrix (all values in MHz): 
 -----------------------------------
                -0.1193               0.0642               0.0001
                 0.0642               0.2305               0.0003
                 0.0001               0.0003              -0.1308

 A(FC)          -0.0066              -0.0066              -0.0066
 A(SD)          -0.1241              -0.1243               0.2484
 A(ORB+DIA)      0.0000               0.0000               0.0001    A(PC) =   0.0000
 A(ORB)         -0.0000               0.0000               0.0001    A(PC) =   0.0000
 A(DIA)          0.0000               0.0000               0.0000    A(PC) =   0.0000
             ----------           ----------           ----------
 A(Tot)         -0.1307              -0.1308               0.2419    A(iso)=   -0.0065
 Orientation: 
  X           0.9844993           -0.0128254            0.1749188
  Y          -0.1748913            0.0032383            0.9845824
  Z          -0.0131941           -0.9999125            0.0009451

Notes:  (1) The A matrix conforms to the "SAI" spin Hamiltonian convention.
        (2) Tensor is right-handed.


--------------------------------------------------------------------------------
----------------------------------------------------------------------------
                           ORCA EULER ANGLE PROGRAM
----------------------------------------------------------------------------

Only g-tensor available        -->  using g-tensor as reference tensor

Reference tensor               ...  g

g-tensor ordering              ...  |g_min> --> |gx>
                                    |g_mid> --> |gy>
                                    |g_max> --> |gz>

A- and EFG-tensor ordering     ...  the axes |Ax>, |Qx>, |Ay>, etc. are assigned
                                    such that the Euler rotation is minimal. You
                                    can find the respective eigenvalues as Ax,
                                    EFGx, Ay, etc. in the tables below.
                                    The relation of |Ax>, |Ay>,  etc. to Amin, Amid, etc.
                                    (as printed in the ORCA EPR/NMR CALCULATION Output)
                                    is obtained in the detailed printout.

Euler rotation around          ...  z - y - z
   First rotation              -->  by alpha around z
   Second rotation             -->  by beta around y'
   Third rotation              -->  by gamma around z''
   Positive / Negative angle   -->  clockwise / counterclockwise rotation

Plot EFG-tensors                    (-)
Plot HFC-tensors                    (-)
Detailed Printout                   (-)

-------------------------------------------------------------------------
          Euler rotation of hyperfine tensor to g-tensor
-------------------------------------------------------------------------

-------------------------------------------------------------------
 Atom  |   Alpha    Beta    Gamma   |   Ax       Ay       Az 
       |          [degrees]         |           [MHz]         
-------------------------------------------------------------------
  9H      -90.6      3.2     90.7     -15.98    -6.97   -19.45
 10H      -90.0      6.0     90.0       4.01     4.67     9.51
 12H      -90.0     43.7     90.0     -46.41   -71.37   -17.35
 14H      -15.9     12.5     -2.1      57.51    67.14    58.82
 15H     -164.1     12.2   -178.0      57.28    66.91    58.59
 17H       27.8     28.0    -59.3      -3.19    -3.03     3.19
 18H      152.8     28.7   -121.4      -3.19    -3.03     3.19
 20H     -130.0     47.4    153.2      -0.10     2.26     0.02
 21H      -49.9     47.6     26.6      -0.10     2.25     0.02
 23H     -141.3     17.5   -176.0      20.48    21.06    24.20
 24H      -38.8     17.4     -3.7      20.37    20.94    24.08
 26H      -84.1     29.9     97.5      -0.98     0.99    -0.86
 27H      -96.4     29.9     83.2      -0.98     0.99    -0.86
 29H       68.9     30.0   -107.4      -0.10    -0.15     0.81
 30H      111.1     29.9    -72.4      -0.10    -0.15     0.81
 32H      -94.6     42.7     86.3      -0.13     0.38    -0.10
 33H      -85.6     42.7     94.1      -0.13     0.38    -0.10
 35H       89.6     40.5    -90.0      -7.84    -2.31   -10.78
 36H       89.7     43.9    -90.0       3.03     2.03     4.60
 37H       90.8     38.7    -89.9      -0.79    -0.82     0.76
 38H       91.3     37.5    -89.9      -0.13    -0.13     0.24
-------------------------------------------------------------------


Maximum memory used throughout the entire EPRNMR-calculation: 163.0 MB

Timings for individual modules:

Sum of individual times         ...     1951.809 sec (=  32.530 min)
GTO integral calculation        ...        3.973 sec (=   0.066 min)   0.2 %
Spin-Orbit-Coupling Matrices    ...        6.428 sec (=   0.107 min)   0.3 %
SCF iterations                  ...       64.304 sec (=   1.072 min)   3.3 %
EPR/NMR calculation             ...     1877.103 sec (=  31.285 min)  96.2 %
                             ****ORCA TERMINATED NORMALLY****
TOTAL RUN TIME: 0 days 0 hours 32 minutes 35 seconds 676 msec
