
                                 *****************
                                 * O   R   C   A *
                                 *****************

                                            #,                                       
                                            ###                                      
                                            ####                                     
                                            #####                                    
                                            ######                                   
                                           ########,                                 
                                     ,,################,,,,,                         
                               ,,#################################,,                 
                          ,,##########################################,,             
                       ,#########################################, ''#####,          
                    ,#############################################,,   '####,        
                  ,##################################################,,,,####,       
                ,###########''''           ''''###############################       
              ,#####''   ,,,,##########,,,,          '''####'''          '####       
            ,##' ,,,,###########################,,,                        '##       
           ' ,,###''''                  '''############,,,                           
         ,,##''                                '''############,,,,        ,,,,,,###''
      ,#''                                            '''#######################'''  
     '                                                          ''''####''''         
             ,#######,   #######,   ,#######,      ##                                
            ,#'     '#,  ##    ##  ,#'     '#,    #''#        ######   ,####,        
            ##       ##  ##   ,#'  ##            #'  '#       #        #'  '#        
            ##       ##  #######   ##           ,######,      #####,   #    #        
            '#,     ,#'  ##    ##  '#,     ,#' ,#      #,         ##   #,  ,#        
             '#######'   ##     ##  '#######'  #'      '#     #####' # '####'        



                  #######################################################
                  #                        -***-                        #
                  #          Department of theory and spectroscopy      #
                  #    Directorship and core code : Frank Neese         #
                  #        Max Planck Institute fuer Kohlenforschung    #
                  #                Kaiser Wilhelm Platz 1               #
                  #                 D-45470 Muelheim/Ruhr               #
                  #                      Germany                        #
                  #                                                     #
                  #                  All rights reserved                #
                  #                        -***-                        #
                  #######################################################


                         Program Version 5.0.4 -  RELEASE  -


 With contributions from (in alphabetic order):
   Daniel Aravena         : Magnetic Suceptibility
   Michael Atanasov       : Ab Initio Ligand Field Theory (pilot matlab implementation)
   Alexander A. Auer      : GIAO ZORA, VPT2 properties, NMR spectrum
   Ute Becker             : Parallelization
   Giovanni Bistoni       : ED, misc. LED, open-shell LED, HFLD
   Martin Brehm           : Molecular dynamics
   Dmytro Bykov           : SCF Hessian
   Vijay G. Chilkuri      : MRCI spin determinant printing, contributions to CSF-ICE
   Dipayan Datta          : RHF DLPNO-CCSD density
   Achintya Kumar Dutta   : EOM-CC, STEOM-CC
   Dmitry Ganyushin       : Spin-Orbit,Spin-Spin,Magnetic field MRCI
   Miquel Garcia          : C-PCM and meta-GGA Hessian, CC/C-PCM, Gaussian charge scheme
   Yang Guo               : DLPNO-NEVPT2, F12-NEVPT2, CIM, IAO-localization
   Andreas Hansen         : Spin unrestricted coupled pair/coupled cluster methods
   Benjamin Helmich-Paris : MC-RPA, TRAH-SCF, COSX integrals
   Lee Huntington         : MR-EOM, pCC
   Robert Izsak           : Overlap fitted RIJCOSX, COSX-SCS-MP3, EOM
   Marcus Kettner         : VPT2
   Christian Kollmar      : KDIIS, OOCD, Brueckner-CCSD(T), CCSD density, CASPT2, CASPT2-K
   Simone Kossmann        : Meta GGA functionals, TD-DFT gradient, OOMP2, MP2 Hessian
   Martin Krupicka        : Initial AUTO-CI
   Lucas Lang             : DCDCAS
   Marvin Lechner         : AUTO-CI (C++ implementation), FIC-MRCC
   Dagmar Lenk            : GEPOL surface, SMD
   Dimitrios Liakos       : Extrapolation schemes; Compound Job, initial MDCI parallelization
   Dimitrios Manganas     : Further ROCIS development; embedding schemes
   Dimitrios Pantazis     : SARC Basis sets
   Anastasios Papadopoulos: AUTO-CI, single reference methods and gradients
   Taras Petrenko         : DFT Hessian,TD-DFT gradient, ASA, ECA, R-Raman, ABS, FL, XAS/XES, NRVS
   Peter Pinski           : DLPNO-MP2, DLPNO-MP2 Gradient
   Christoph Reimann      : Effective Core Potentials
   Marius Retegan         : Local ZFS, SOC
   Christoph Riplinger    : Optimizer, TS searches, QM/MM, DLPNO-CCSD(T), (RO)-DLPNO pert. Triples
   Tobias Risthaus        : Range-separated hybrids, TD-DFT gradient, RPA, STAB
   Michael Roemelt        : Original ROCIS implementation
   Masaaki Saitow         : Open-shell DLPNO-CCSD energy and density
   Barbara Sandhoefer     : DKH picture change effects
   Avijit Sen             : IP-ROCIS
   Kantharuban Sivalingam : CASSCF convergence, NEVPT2, FIC-MRCI
   Bernardo de Souza      : ESD, SOC TD-DFT
   Georgi Stoychev        : AutoAux, RI-MP2 NMR, DLPNO-MP2 response
   Willem Van den Heuvel  : Paramagnetic NMR
   Boris Wezisla          : Elementary symmetry handling
   Frank Wennmohs         : Technical directorship


 We gratefully acknowledge several colleagues who have allowed us to
 interface, adapt or use parts of their codes:
   Stefan Grimme, W. Hujo, H. Kruse, P. Pracht,  : VdW corrections, initial TS optimization,
                  C. Bannwarth, S. Ehlert          DFT functionals, gCP, sTDA/sTD-DF
   Ed Valeev, F. Pavosevic, A. Kumar             : LibInt (2-el integral package), F12 methods
   Garnet Chan, S. Sharma, J. Yang, R. Olivares  : DMRG
   Ulf Ekstrom                                   : XCFun DFT Library
   Mihaly Kallay                                 : mrcc  (arbitrary order and MRCC methods)
   Jiri Pittner, Ondrej Demel                    : Mk-CCSD
   Frank Weinhold                                : gennbo (NPA and NBO analysis)
   Christopher J. Cramer and Donald G. Truhlar   : smd solvation model
   Lars Goerigk                                  : TD-DFT with DH, B97 family of functionals
   V. Asgeirsson, H. Jonsson                     : NEB implementation
   FAccTs GmbH                                   : IRC, NEB, NEB-TS, DLPNO-Multilevel, CI-OPT
                                                   MM, QMMM, 2- and 3-layer-ONIOM, Crystal-QMMM,
                                                   LR-CPCM, SF, NACMEs, symmetry and pop. for TD-DFT,
                                                   nearIR, NL-DFT gradient (VV10), updates on ESD,
                                                   ML-optimized integration grids
   S Lehtola, MJT Oliveira, MAL Marques          : LibXC Library
   Liviu Ungur et al                             : ANISO software


 Your calculation uses the libint2 library for the computation of 2-el integrals
 For citations please refer to: http://libint.valeyev.net

 Your ORCA version has been built with support for libXC version: 5.1.0
 For citations please refer to: https://tddft.org/programs/libxc/

 This ORCA versions uses:
   CBLAS   interface :  Fast vector & matrix operations
   LAPACKE interface :  Fast linear algebra routines
   SCALAPACK package :  Parallel linear algebra routines
   Shared memory     :  Shared parallel matrices
   BLAS/LAPACK       :  OpenBLAS 0.3.15  USE64BITINT DYNAMIC_ARCH NO_AFFINITY SkylakeX SINGLE_THREADED
        Core in use  :  SkylakeX
   Copyright (c) 2011-2014, The OpenBLAS Project




***************************************
The coordinates will be read from file: opt_cc-pVDZ.xyz
***************************************


================================================================================

----- Orbital basis set information -----
Your calculation utilizes the basis: cc-pVDZ 
       H, B-Ne : Obtained from the ccRepo (grant-hill.group.shef.ac.uk/ccrepo) Feb. 2017
                 T. H. Dunning, Jr., J. Chem. Phys. 90, 1007 (1989)
            He : Obtained from the ccRepo (grant-hill.group.shef.ac.uk/ccrepo) Feb. 2017
                 D. E. Woon, T. H. Dunning, Jr., J. Chem. Phys. 100, 2975 (1994)
  Li-Be, Na-Mg : Obtained from the ccRepo (grant-hill.group.shef.ac.uk/ccrepo) Feb. 2017
                 B. P. Prascher, D. E. Woon, K. A. Peterson, T. H. Dunning, Jr., A. K. Wilson, Theor. Chem. Acc. 128, 69 (2011)
         Al-Ar : Obtained from the ccRepo (grant-hill.group.shef.ac.uk/ccrepo) Feb. 2017
                 D. E. Woon, T. H. Dunning, Jr., J. Chem. Phys. 98, 1358 (1993)
            Ca : Obtained from the Peterson Research Group Website (tyr0.chem.wsu.edu/~kipeters) Feb. 2017
                 J. Koput, K. A. Peterson, J. Phys. Chem. 106, 9595 (2002)
         Sc-Zn : Obtained from the ccRepo (grant-hill.group.shef.ac.uk/ccrepo) Feb. 2017
                 N. B. Balabanov, K. A. Peterson, J. Chem. Phys. 123, 064107 (2005)
                 N. B. Balabanov, K. A. Peterson, J. Chem. Phys. 125, 074110 (2006)
         Ga-Kr : Obtained from the ccRepo (grant-hill.group.shef.ac.uk/ccrepo) Feb. 2017
                 A. K. Wilson, D. E. Woon, K. A. Peterson, T. H. Dunning, Jr., J. Chem. Phys. 110, 7667 (1999)

----- AuxJ basis set information -----
Your calculation utilizes the AutoAux generation procedure.
  G. L. Stoychev, A. A. Auer, F. Neese, J. Chem. Theory Comput. 13, 554 (2017)

----- AuxC basis set information -----
Your calculation utilizes the AutoAux generation procedure.
  G. L. Stoychev, A. A. Auer, F. Neese, J. Chem. Theory Comput. 13, 554 (2017)

----- AuxJK basis set information -----
Your calculation utilizes the AutoAux generation procedure.
  G. L. Stoychev, A. A. Auer, F. Neese, J. Chem. Theory Comput. 13, 554 (2017)

================================================================================
                                        WARNINGS
                       Please study these warnings very carefully!
================================================================================

WARNING: Old DensityContainer found on disk!
         Will remove this file - 
         If you want to keep old densities, please start your calculation with a different basename. 


WARNING: your system is open-shell and RHF/RKS was chosen
  ===> : WILL SWITCH to UHF/UKS


INFO   : the flag for use of the SHARK integral package has been found!

================================================================================
                                       INPUT FILE
================================================================================
NAME = cc-pVDZ.inp
|  1> ! B3LYP cc-pVDZ AUTOAUX
|  2> %pal nprocs 16 end
|  3> *XYZFile 0 2 opt_cc-pVDZ.xyz
|  4> %EPRNMR
|  5>         GTENSOR   TRUE
|  6>         NUCLEI    = ALL H {SHIFT, AISO, ADIP, AORB}
|  7>         ORI       CenterOfElCharge
|  8> END
|  9> 
| 10>                          ****END OF INPUT****
================================================================================

                       ****************************
                       * Single Point Calculation *
                       ****************************

---------------------------------
CARTESIAN COORDINATES (ANGSTROEM)
---------------------------------
  C      3.991784   -0.048435    0.056346
  C      2.775712    0.001154    0.039648
  C     -2.904921    0.001529   -0.021694
  C      1.348481    0.036063    0.023781
  C      0.635152    1.290201    0.013521
  C     -0.786150    1.210014   -0.001501
  C     -1.471087   -0.006069   -0.006317
  C     -0.754959   -1.242857    0.003885
  C      0.640797   -1.177975    0.018518
  H     -1.371712    2.129541   -0.009530
  H      1.223674   -2.098813    0.026483
  C      1.310504    2.530996    0.018452
  H      2.403361    2.505271    0.030469
  C      0.640754    3.872473    0.008531
  H     -0.020275    3.959854   -0.878575
  H     -0.043331    3.961474    0.877793
  C      1.626405    5.048189    0.020362
  H      2.274910    4.965134    0.911543
  H      2.297355    4.964108   -0.853963
  C      0.933927    6.412245    0.010752
  H      0.280780    6.536667    0.891827
  H      0.303418    6.535595   -0.886820
  C     -1.517089   -2.551625   -0.001122
  H     -2.203424   -2.555125    0.866315
  H     -2.187900   -2.557491   -0.880574
  C     -0.686255   -3.837418    0.007984
  H     -0.014409   -3.856931   -0.869895
  H     -0.031140   -3.855437    0.898451
  C     -1.555636   -5.100694    0.001104
  H     -2.229939   -5.082944    0.877396
  H     -2.214140   -5.084251   -0.887149
  C     -0.737690   -6.394490    0.009386
  H     -0.094861   -6.456485    0.904485
  H     -0.079170   -6.457885   -0.874119
  C     -4.120618    0.011094   -0.036179
  H      5.062828   -0.098171    0.076211
  H     -5.192896    0.025363   -0.051172
  H      1.665950    7.235757    0.019557
  H     -1.388424   -7.283966    0.004373

----------------------------
CARTESIAN COORDINATES (A.U.)
----------------------------
  NO LB      ZA    FRAG     MASS         X           Y           Z
   0 C     6.0000    0    12.011    7.543378   -0.091529    0.106478
   1 C     6.0000    0    12.011    5.245335    0.002180    0.074924
   2 C     6.0000    0    12.011   -5.489505    0.002889   -0.040995
   3 C     6.0000    0    12.011    2.548259    0.068149    0.044939
   4 C     6.0000    0    12.011    1.200262    2.438126    0.025551
   5 C     6.0000    0    12.011   -1.485608    2.286594   -0.002836
   6 C     6.0000    0    12.011   -2.779952   -0.011468   -0.011937
   7 C     6.0000    0    12.011   -1.426667   -2.348659    0.007341
   8 C     6.0000    0    12.011    1.210932   -2.226050    0.034993
   9 H     1.0000    0     1.008   -2.592160    4.024250   -0.018009
  10 H     1.0000    0     1.008    2.312408   -3.966182    0.050045
  11 C     6.0000    0    12.011    2.476494    4.782889    0.034869
  12 H     1.0000    0     1.008    4.541695    4.734275    0.057578
  13 C     6.0000    0    12.011    1.210850    7.317914    0.016122
  14 H     1.0000    0     1.008   -0.038314    7.483039   -1.660266
  15 H     1.0000    0     1.008   -0.081884    7.486101    1.658788
  16 C     6.0000    0    12.011    3.073460    9.539695    0.038479
  17 H     1.0000    0     1.008    4.298956    9.382743    1.722567
  18 H     1.0000    0     1.008    4.341371    9.380805   -1.613756
  19 C     6.0000    0    12.011    1.764866   12.117387    0.020318
  20 H     1.0000    0     1.008    0.530598   12.352510    1.685308
  21 H     1.0000    0     1.008    0.573376   12.350485   -1.675846
  22 C     6.0000    0    12.011   -2.866884   -4.821873   -0.002120
  23 H     1.0000    0     1.008   -4.163869   -4.828487    1.637097
  24 H     1.0000    0     1.008   -4.134532   -4.832957   -1.664043
  25 C     6.0000    0    12.011   -1.296834   -7.251669    0.015087
  26 H     1.0000    0     1.008   -0.027229   -7.288544   -1.643863
  27 H     1.0000    0     1.008   -0.058847   -7.285721    1.697826
  28 C     6.0000    0    12.011   -2.939725   -9.638915    0.002086
  29 H     1.0000    0     1.008   -4.213973   -9.605372    1.658038
  30 H     1.0000    0     1.008   -4.184119   -9.607842   -1.676469
  31 C     6.0000    0    12.011   -1.394032  -12.083835    0.017737
  32 H     1.0000    0     1.008   -0.179261  -12.200989    1.709228
  33 H     1.0000    0     1.008   -0.149609  -12.203634   -1.651845
  34 C     6.0000    0    12.011   -7.786840    0.020965   -0.068368
  35 H     1.0000    0     1.008    9.567358   -0.185516    0.144018
  36 H     1.0000    0     1.008   -9.813152    0.047930   -0.096701
  37 H     1.0000    0     1.008    3.148190   13.673599    0.036958
  38 H     1.0000    0     1.008   -2.623741  -13.764702    0.008264

--------------------------------
INTERNAL COORDINATES (ANGSTROEM)
--------------------------------
 C      0   0   0     0.000000000000     0.00000000     0.00000000
 C      1   0   0     1.217197499278     0.00000000     0.00000000
 C      2   1   0     5.680963731718   177.66284872     0.00000000
 C      2   1   3     1.427746113429   179.05424995     4.98268470
 C      4   2   1     1.442846094586   121.03379741   171.00714192
 C      5   4   2     1.423640943135   116.40377646   180.02529566
 C      6   5   4     1.395714301565   122.61895086     0.00000000
 C      7   6   5     1.429191421172   120.53586014     0.00000000
 C      8   7   6     1.397340678015   117.41276637     0.00000000
 H      6   5   4     1.090173641738   119.26265084   179.99022521
 H      9   8   7     1.089839855869   119.67410439   180.00943753
 C      5   4   2     1.412691718898   121.80780734     0.00000000
 H     12   5   4     1.093225816916   117.21109189     0.00000000
 C     12   5   4     1.499408730056   124.90697329   180.00167287
 H     14  12   5     1.109753063271   109.98647523   302.49048925
 H     14  12   5     1.109733930251   109.99386091    57.22539098
 C     14  12   5     1.534260611019   113.48977014   179.86187860
 H     17  14  12     1.105287105343   108.99982935   302.38096848
 H     17  14  12     1.105299803940   109.00064983    57.67094368
 C     17  14  12     1.529793153843   113.10615248   180.02550539
 H     20  17  14     1.103799892187   111.30581095    59.86570063
 H     20  17  14     1.103808005047   111.30403555   300.13242485
 C      8   7   6     1.514510506150   119.71227493   179.98068584
 H     23   8   7     1.106125417157   108.20285368   303.66845958
 H     23   8   7     1.106099962488   108.20362711    56.13063259
 C     23   8   7     1.530892235814   116.91556974   179.89938058
 H     26  23   8     1.105635266008   109.86977420   301.78913700
 H     26  23   8     1.105636368200   109.87983137    58.29589006
 C     26  23   8     1.533537484008   112.59299162   180.03481418
 H     29  26  23     1.105842315549   109.20232077   302.31226914
 H     29  26  23     1.105844377730   109.20430449    57.62844357
 C     29  26  23     1.530689787375   113.16099693   179.97108341
 H     32  29  26     1.103754308590   111.28933293    59.84438857
 H     32  29  26     1.103742931852   111.28644633   300.13714855
 C      3   2   1     1.215821141116   179.54844742   184.02595008
 H      1   2   4     1.072382117146   179.57511455   328.66729717
 H     35   3   7     1.072477996388   179.66670358   355.94551103
 H     20  17  14     1.101865321414   111.44658259   180.00060328
 H     32  29  26     1.102110814162   111.50767854   179.99008022

---------------------------
INTERNAL COORDINATES (A.U.)
---------------------------
 C      0   0   0     0.000000000000     0.00000000     0.00000000
 C      1   0   0     2.300169924529     0.00000000     0.00000000
 C      2   1   0    10.735465629686   177.66284872     0.00000000
 C      2   1   3     2.698049143151   179.05424995     4.98268470
 C      4   2   1     2.726583972165   121.03379741   171.00714192
 C      5   4   2     2.690291495563   116.40377646   180.02529566
 C      6   5   4     2.637517791156   122.61895086     0.00000000
 C      7   6   5     2.700780378965   120.53586014     0.00000000
 C      8   7   6     2.640591197235   117.41276637     0.00000000
 H      6   5   4     2.060129621305   119.26265084   179.99022521
 H      9   8   7     2.059498857425   119.67410439   180.00943753
 C      5   4   2     2.669600460375   121.80780734     0.00000000
 H     12   5   4     2.065897396504   117.21109189     0.00000000
 C     12   5   4     2.833471862616   124.90697329   180.00167287
 H     14  12   5     2.097129365863   109.98647523   302.49048925
 H     14  12   5     2.097093209694   109.99386091    57.22539098
 C     14  12   5     2.899332372889   113.48977014   179.86187860
 H     17  14  12     2.088689928453   108.99982935   302.38096848
 H     17  14  12     2.088713925324   109.00064983    57.67094368
 C     17  14  12     2.890890102312   113.10615248   180.02550539
 H     20  17  14     2.085879502885   111.30581095    59.86570063
 H     20  17  14     2.085894833969   111.30403555   300.13242485
 C      8   7   6     2.862010083570   119.71227493   179.98068584
 H     23   8   7     2.090274108196   108.20285368   303.66845958
 H     23   8   7     2.090226005844   108.20362711    56.13063259
 C     23   8   7     2.892967066236   116.91556974   179.89938058
 H     26  23   8     2.089347856761   109.86977420   301.78913700
 H     26  23   8     2.089349939602   109.87983137    58.29589006
 C     26  23   8     2.897965860878   112.59299162   180.03481418
 H     29  26  23     2.089739123688   109.20232077   302.31226914
 H     29  26  23     2.089743020646   109.20430449    57.62844357
 C     29  26  23     2.892584494130   113.16099693   179.97108341
 H     32  29  26     2.085793362371   111.28933293    59.84438857
 H     32  29  26     2.085771863451   111.28644633   300.13714855
 C      3   2   1     2.297568984541   179.54844742   184.02595008
 H      1   2   4     2.026508512321   179.57511455   328.66729717
 H     35   3   7     2.026689697830   179.66670358   355.94551103
 H     20  17  14     2.082223693937   111.44658259   180.00060328
 H     32  29  26     2.082687607999   111.50767854   179.99008022

---------------------
BASIS SET INFORMATION
---------------------
There are 2 groups of distinct atoms

 Group   1 Type C   : 17s4p1d contracted to 3s2p1d pattern {881/31/1}
 Group   2 Type H   : 4s1p contracted to 2s1p pattern {31/1}

Atom   0C    basis set group =>   1
Atom   1C    basis set group =>   1
Atom   2C    basis set group =>   1
Atom   3C    basis set group =>   1
Atom   4C    basis set group =>   1
Atom   5C    basis set group =>   1
Atom   6C    basis set group =>   1
Atom   7C    basis set group =>   1
Atom   8C    basis set group =>   1
Atom   9H    basis set group =>   2
Atom  10H    basis set group =>   2
Atom  11C    basis set group =>   1
Atom  12H    basis set group =>   2
Atom  13C    basis set group =>   1
Atom  14H    basis set group =>   2
Atom  15H    basis set group =>   2
Atom  16C    basis set group =>   1
Atom  17H    basis set group =>   2
Atom  18H    basis set group =>   2
Atom  19C    basis set group =>   1
Atom  20H    basis set group =>   2
Atom  21H    basis set group =>   2
Atom  22C    basis set group =>   1
Atom  23H    basis set group =>   2
Atom  24H    basis set group =>   2
Atom  25C    basis set group =>   1
Atom  26H    basis set group =>   2
Atom  27H    basis set group =>   2
Atom  28C    basis set group =>   1
Atom  29H    basis set group =>   2
Atom  30H    basis set group =>   2
Atom  31C    basis set group =>   1
Atom  32H    basis set group =>   2
Atom  33H    basis set group =>   2
Atom  34C    basis set group =>   1
Atom  35H    basis set group =>   2
Atom  36H    basis set group =>   2
Atom  37H    basis set group =>   2
Atom  38H    basis set group =>   2
---------------------------------
AUXILIARY/J BASIS SET INFORMATION
---------------------------------
There are 2 groups of distinct atoms

 Group   1 Type C   : 14s11p10d2f contracted to 14s11p10d2f pattern {11111111111111/11111111111/1111111111/11}
 Group   2 Type H   : 9s2p1d contracted to 9s2p1d pattern {111111111/11/1}

Atom   0C    basis set group =>   1
Atom   1C    basis set group =>   1
Atom   2C    basis set group =>   1
Atom   3C    basis set group =>   1
Atom   4C    basis set group =>   1
Atom   5C    basis set group =>   1
Atom   6C    basis set group =>   1
Atom   7C    basis set group =>   1
Atom   8C    basis set group =>   1
Atom   9H    basis set group =>   2
Atom  10H    basis set group =>   2
Atom  11C    basis set group =>   1
Atom  12H    basis set group =>   2
Atom  13C    basis set group =>   1
Atom  14H    basis set group =>   2
Atom  15H    basis set group =>   2
Atom  16C    basis set group =>   1
Atom  17H    basis set group =>   2
Atom  18H    basis set group =>   2
Atom  19C    basis set group =>   1
Atom  20H    basis set group =>   2
Atom  21H    basis set group =>   2
Atom  22C    basis set group =>   1
Atom  23H    basis set group =>   2
Atom  24H    basis set group =>   2
Atom  25C    basis set group =>   1
Atom  26H    basis set group =>   2
Atom  27H    basis set group =>   2
Atom  28C    basis set group =>   1
Atom  29H    basis set group =>   2
Atom  30H    basis set group =>   2
Atom  31C    basis set group =>   1
Atom  32H    basis set group =>   2
Atom  33H    basis set group =>   2
Atom  34C    basis set group =>   1
Atom  35H    basis set group =>   2
Atom  36H    basis set group =>   2
Atom  37H    basis set group =>   2
Atom  38H    basis set group =>   2
---------------------------------
AUXILIARY/C BASIS SET INFORMATION
---------------------------------
There are 2 groups of distinct atoms

 Group   1 Type C   : 14s11p10d2f contracted to 14s11p10d2f pattern {11111111111111/11111111111/1111111111/11}
 Group   2 Type H   : 9s2p1d contracted to 9s2p1d pattern {111111111/11/1}

Atom   0C    basis set group =>   1
Atom   1C    basis set group =>   1
Atom   2C    basis set group =>   1
Atom   3C    basis set group =>   1
Atom   4C    basis set group =>   1
Atom   5C    basis set group =>   1
Atom   6C    basis set group =>   1
Atom   7C    basis set group =>   1
Atom   8C    basis set group =>   1
Atom   9H    basis set group =>   2
Atom  10H    basis set group =>   2
Atom  11C    basis set group =>   1
Atom  12H    basis set group =>   2
Atom  13C    basis set group =>   1
Atom  14H    basis set group =>   2
Atom  15H    basis set group =>   2
Atom  16C    basis set group =>   1
Atom  17H    basis set group =>   2
Atom  18H    basis set group =>   2
Atom  19C    basis set group =>   1
Atom  20H    basis set group =>   2
Atom  21H    basis set group =>   2
Atom  22C    basis set group =>   1
Atom  23H    basis set group =>   2
Atom  24H    basis set group =>   2
Atom  25C    basis set group =>   1
Atom  26H    basis set group =>   2
Atom  27H    basis set group =>   2
Atom  28C    basis set group =>   1
Atom  29H    basis set group =>   2
Atom  30H    basis set group =>   2
Atom  31C    basis set group =>   1
Atom  32H    basis set group =>   2
Atom  33H    basis set group =>   2
Atom  34C    basis set group =>   1
Atom  35H    basis set group =>   2
Atom  36H    basis set group =>   2
Atom  37H    basis set group =>   2
Atom  38H    basis set group =>   2
----------------------------------
AUXILIARY/JK BASIS SET INFORMATION
----------------------------------
There are 2 groups of distinct atoms

 Group   1 Type C   : 14s11p10d2f contracted to 14s11p10d2f pattern {11111111111111/11111111111/1111111111/11}
 Group   2 Type H   : 9s2p1d contracted to 9s2p1d pattern {111111111/11/1}

Atom   0C    basis set group =>   1
Atom   1C    basis set group =>   1
Atom   2C    basis set group =>   1
Atom   3C    basis set group =>   1
Atom   4C    basis set group =>   1
Atom   5C    basis set group =>   1
Atom   6C    basis set group =>   1
Atom   7C    basis set group =>   1
Atom   8C    basis set group =>   1
Atom   9H    basis set group =>   2
Atom  10H    basis set group =>   2
Atom  11C    basis set group =>   1
Atom  12H    basis set group =>   2
Atom  13C    basis set group =>   1
Atom  14H    basis set group =>   2
Atom  15H    basis set group =>   2
Atom  16C    basis set group =>   1
Atom  17H    basis set group =>   2
Atom  18H    basis set group =>   2
Atom  19C    basis set group =>   1
Atom  20H    basis set group =>   2
Atom  21H    basis set group =>   2
Atom  22C    basis set group =>   1
Atom  23H    basis set group =>   2
Atom  24H    basis set group =>   2
Atom  25C    basis set group =>   1
Atom  26H    basis set group =>   2
Atom  27H    basis set group =>   2
Atom  28C    basis set group =>   1
Atom  29H    basis set group =>   2
Atom  30H    basis set group =>   2
Atom  31C    basis set group =>   1
Atom  32H    basis set group =>   2
Atom  33H    basis set group =>   2
Atom  34C    basis set group =>   1
Atom  35H    basis set group =>   2
Atom  36H    basis set group =>   2
Atom  37H    basis set group =>   2
Atom  38H    basis set group =>   2

Checking for AutoStart:
The File: cc-pVDZ.gbw exists
Trying to determine its content:
     ... Fine, the file contains calculation information
     ... Fine, the calculation information was read
     ... Fine, the file contains a basis set
     ... Fine, the basis set was read
     ... Fine, the file contains a geometry
     ... Fine, the geometry was read
     ... Fine, the file contains a set of orbitals
     ... Fine, the orbitals can be read
     => possible old guess file was deleted
     => GBW file was renamed to GES file
     => GES file is set as startup file
     => Guess is set to MORead
     ... now leaving AutoStart



           ************************************************************
           *        Program running with 16 parallel MPI-processes    *
           *              working on a common directory               *
           ************************************************************
------------------------------------------------------------------------------
                           ORCA GTO INTEGRAL CALCULATION
                           -- RI-GTO INTEGRALS CHOSEN --
------------------------------------------------------------------------------
------------------------------------------------------------------------------
                   ___                                                        
                  /   \      - P O W E R E D   B Y -                         
                 /     \                                                     
                 |  |  |   _    _      __       _____    __    __             
                 |  |  |  | |  | |    /  \     |  _  \  |  |  /  |          
                  \  \/   | |  | |   /    \    | | | |  |  | /  /          
                 / \  \   | |__| |  /  /\  \   | |_| |  |  |/  /          
                |  |  |   |  __  | /  /__\  \  |    /   |      \           
                |  |  |   | |  | | |   __   |  |    \   |  |\   \          
                \     /   | |  | | |  |  |  |  | |\  \  |  | \   \       
                 \___/    |_|  |_| |__|  |__|  |_| \__\ |__|  \__/        
                                                                              
                      - O R C A' S   B I G   F R I E N D -                    
                                      &                                       
                       - I N T E G R A L  F E E D E R -                       
                                                                              
 v1 FN, 2020, v2 2021                                                         
------------------------------------------------------------------------------


Reading SHARK input file cc-pVDZ.SHARKINP.tmp ... ok
----------------------
SHARK INTEGRAL PACKAGE
----------------------

Number of atoms                             ...     39
Number of basis functions                   ...    465
Number of shells                            ...    279
Maximum angular momentum                    ...      2
Integral batch strategy                     ... SHARK/LIBINT Hybrid
RI-J (if used) integral strategy            ... SPLIT-RIJ (Revised 2003 algorithm where possible)
Printlevel                                  ...      1
Contraction scheme used                     ... PARTIAL GENERAL contraction
Coulomb Range Separation                    ... NOT USED
Exchange Range Separation                   ... NOT USED
Finite Nucleus Model                        ... NOT USED
Auxiliary Coulomb fitting basis             ... AVAILABLE
   # of basis functions in Aux-J            ...   2418
   # of shells in Aux-J                     ...    918
   Maximum angular momentum in Aux-J        ...      3
Auxiliary J/K fitting basis                 ... AVAILABLE
   # of basis functions in Aux-JK           ...   2418
   # of shells in Aux-JK                    ...    918
   Maximum angular momentum in Aux-JK       ...      3
Auxiliary Correlation fitting basis         ... AVAILABLE
   # of basis functions in Aux-C            ...   2418
   # of shells in Aux-C                     ...    918
   Maximum angular momentum in Aux-C        ...      3
Auxiliary 'external' fitting basis          ... NOT available
Integral threshold                          ...     1.000000e-10
Primitive cut-off                           ...     1.000000e-11
Primitive pair pre-selection threshold      ...     1.000000e-11

Calculating pre-screening integrals         ... done (  0.0 sec) Dimension = 279
Calculating pre-screening integrals (ORCA)  ... done (  0.1 sec) Dimension = 171
Organizing shell pair data                  ... done (  0.1 sec)
Shell pair information
Total number of shell pairs                 ...     39060
Shell pairs after pre-screening             ...     18669
Total number of primitive shell pairs       ...     64020
Primitive shell pairs kept                  ...     25582
          la=0 lb=0:   8177 shell pairs
          la=1 lb=0:   6564 shell pairs
          la=1 lb=1:   1149 shell pairs
          la=2 lb=0:   1960 shell pairs
          la=2 lb=1:    698 shell pairs
          la=2 lb=2:    121 shell pairs

Calculating one electron integrals          ... done (  0.0 sec)
Calculating RI/J V-Matrix + Cholesky decomp.... done (  0.4 sec)
Calculating RI/JK V-Matrix + Cholesky decomp... done (  0.4 sec)
Calculating RI/C V-Matrix + Cholesky decomp.... done (  0.4 sec)
Calculating Nuclear repulsion               ... done (  0.0 sec) ENN=   1144.879662290448 Eh

SHARK setup successfully completed in   1.7 seconds

Maximum memory used throughout the entire GTOINT-calculation: 28.4 MB


           ************************************************************
           *        Program running with 16 parallel MPI-processes    *
           *              working on a common directory               *
           ************************************************************
-------------------------------------------------------------------------------
                                 ORCA SCF
-------------------------------------------------------------------------------

------------
SCF SETTINGS
------------
Hamiltonian:
 Density Functional     Method          .... DFT(GTOs)
 Exchange Functional    Exchange        .... B88
   X-Alpha parameter    XAlpha          ....  0.666667
   Becke's b parameter  XBeta           ....  0.004200
 Correlation Functional Correlation     .... LYP
 LDA part of GGA corr.  LDAOpt          .... VWN-5
 Gradients option       PostSCFGGA      .... off
 Hybrid DFT is turned on
   Fraction HF Exchange ScalHFX         ....  0.200000
   Scaling of DF-GGA-X  ScalDFX         ....  0.720000
   Scaling of DF-GGA-C  ScalDFC         ....  0.810000
   Scaling of DF-LDA-C  ScalLDAC        ....  1.000000
   Perturbative correction              ....  0.000000
   Density functional embedding theory  .... OFF
   NL short-range parameter             ....  4.800000
 RI-approximation to the Coulomb term is turned on
   Number of AuxJ basis functions       .... 2418
   RIJ-COSX (HFX calculated with COS-X)).... on


General Settings:
 Integral files         IntName         .... cc-pVDZ
 Hartree-Fock type      HFTyp           .... UHF
 Total Charge           Charge          ....    0
 Multiplicity           Mult            ....    2
 Number of Electrons    NEL             ....  129
 Basis Dimension        Dim             ....  357
 Nuclear Repulsion      ENuc            ....   1144.8796622904 Eh

Convergence Acceleration:
 DIIS                   CNVDIIS         .... on
   Start iteration      DIISMaxIt       ....    12
   Startup error        DIISStart       ....  0.200000
   # of expansion vecs  DIISMaxEq       ....     5
   Bias factor          DIISBfac        ....   1.050
   Max. coefficient     DIISMaxC        ....  10.000
 Trust-Rad. Augm. Hess. CNVTRAH         .... auto
   Auto Start mean grad. ratio tolernc. ....  1.125000
   Auto Start start iteration           ....     1
   Auto Start num. interpolation iter.  ....    10
   Max. Number of Micro iterations      ....    16
   Max. Number of Macro iterations      .... Maxiter - #DIIS iter
   Number of Davidson start vectors     ....     2
   Converg. threshold I  (grad. norm)   ....   5.000e-05
   Converg. threshold II (energy diff.) ....   1.000e-06
   Grad. Scal. Fac. for Micro threshold ....   0.100
   Minimum threshold for Micro iter.    ....   0.010
   NR start threshold (gradient norm)   ....   0.001
   Initial trust radius                 ....   0.400
   Minimum AH scaling param. (alpha)    ....   1.000
   Maximum AH scaling param. (alpha)    .... 1000.000
   Orbital update algorithm             .... Taylor
   White noise on init. David. guess    .... on
   Maximum white noise                  ....   0.010
   Quad. conv. algorithm                .... NR
 SOSCF                  CNVSOSCF        .... off
 Level Shifting         CNVShift        .... on
   Level shift para.    LevelShift      ....    0.2500
   Turn off err/grad.   ShiftErr        ....    0.0010
 Zerner damping         CNVZerner       .... off
 Static damping         CNVDamp         .... on
   Fraction old density DampFac         ....    0.7000
   Max. Damping (<1)    DampMax         ....    0.9800
   Min. Damping (>=0)   DampMin         ....    0.0000
   Turn off err/grad.   DampErr         ....    0.1000
 Fernandez-Rico         CNVRico         .... off

SCF Procedure:
 Maximum # iterations   MaxIter         ....   125
 SCF integral mode      SCFMode         .... Direct
   Integral package                     .... SHARK and LIBINT hybrid scheme
 Reset frequency        DirectResetFreq ....    20
 Integral Threshold     Thresh          ....  1.000e-10 Eh
 Primitive CutOff       TCut            ....  1.000e-11 Eh

Convergence Tolerance:
 Convergence Check Mode ConvCheckMode   .... Total+1el-Energy
 Convergence forced     ConvForced      .... 0
 Energy Change          TolE            ....  1.000e-06 Eh
 1-El. energy change                    ....  1.000e-03 Eh
 DIIS Error             TolErr          ....  1.000e-06


Diagonalization of the overlap matrix:
Smallest eigenvalue                        ... 1.275e-04
Time for diagonalization                   ...    0.033 sec
Threshold for overlap eigenvalues          ... 1.000e-08
Number of eigenvalues below threshold      ... 0
Time for construction of square roots      ...    0.031 sec
Total time needed                          ...    0.065 sec

---------------------
INITIAL GUESS: MOREAD
---------------------
Guess MOs are being read from file: cc-pVDZ.ges
Input geometry compatible with but different from current geometry
Input basis set matches current basis set (good)
MOs were renormalized
MOs were reorthogonalized (Cholesky)
                      ------------------
                      INITIAL GUESS DONE (   0.1 sec)
                      ------------------
-------------------
DFT GRID GENERATION
-------------------

General Integration Accuracy     IntAcc      ... 4.388
Radial Grid Type                 RadialGrid  ... OptM3 with GC (2021)
Angular Grid (max. ang.)         AngularGrid ... 4 (Lebedev-302)
Angular grid pruning method      GridPruning ... 4 (adaptive)
Weight generation scheme         WeightScheme... Becke
Basis function cutoff            BFCut       ... 1.0000e-10
Integration weight cutoff        WCut        ... 1.0000e-14
Angular grids for H and He will be reduced by one unit
Partially contracted basis set               ... off
Rotationally invariant grid construction     ... off

Total number of grid points                  ...   174684
Total number of batches                      ...     2747
Average number of points per batch           ...       63
Average number of grid points per atom       ...     4479
Time for grid setup =    0.920 sec

--------------------
COSX GRID GENERATION
--------------------

GRIDX 1
-------
General Integration Accuracy     IntAcc      ... 3.816
Radial Grid Type                 RadialGrid  ... OptM3 with GC (2021)
Angular Grid (max. ang.)         AngularGrid ... 1 (Lebedev-50)
Angular grid pruning method      GridPruning ... 4 (adaptive)
Weight generation scheme         WeightScheme... Becke
Basis function cutoff            BFCut       ... 1.0000e-10
Integration weight cutoff        WCut        ... 1.0000e-14
Angular grids for H and He will be reduced by one unit
Partially contracted basis set               ... on
Rotationally invariant grid construction     ... off

Total number of grid points                  ...    22266
Total number of batches                      ...      371
Average number of points per batch           ...       60
Average number of grid points per atom       ...      571
UseSFitting                                  ... on

GRIDX 2
-------
General Integration Accuracy     IntAcc      ... 4.020
Radial Grid Type                 RadialGrid  ... OptM3 with GC (2021)
Angular Grid (max. ang.)         AngularGrid ... 2 (Lebedev-110)
Angular grid pruning method      GridPruning ... 4 (adaptive)
Weight generation scheme         WeightScheme... Becke
Basis function cutoff            BFCut       ... 1.0000e-10
Integration weight cutoff        WCut        ... 1.0000e-14
Angular grids for H and He will be reduced by one unit
Partially contracted basis set               ... on
Rotationally invariant grid construction     ... off

Total number of grid points                  ...    47311
Total number of batches                      ...      761
Average number of points per batch           ...       62
Average number of grid points per atom       ...     1213
UseSFitting                                  ... on

GRIDX 3
-------
General Integration Accuracy     IntAcc      ... 4.338
Radial Grid Type                 RadialGrid  ... OptM3 with GC (2021)
Angular Grid (max. ang.)         AngularGrid ... 3 (Lebedev-194)
Angular grid pruning method      GridPruning ... 4 (adaptive)
Weight generation scheme         WeightScheme... Becke
Basis function cutoff            BFCut       ... 1.0000e-10
Integration weight cutoff        WCut        ... 1.0000e-14
Angular grids for H and He will be reduced by one unit
Partially contracted basis set               ... on
Rotationally invariant grid construction     ... off

Total number of grid points                  ...   103517
Total number of batches                      ...     1637
Average number of points per batch           ...       63
Average number of grid points per atom       ...     2654
UseSFitting                                  ... on

Time for X-Grid setup             =    1.704 sec

 re-compute Schwartz prescreening matrix in partically contracted basis (1) ...done (   0.103 sec)
--------------
SCF ITERATIONS
--------------
ITER       Energy         Delta-E        Max-DP      RMS-DP      [F,P]     Damp
               ***  Starting incremental Fock matrix formation  ***
  0   -697.9671681379   0.000000000000 0.00005725  0.00000099  0.0001271 0.7000
                 **** Energy Check signals convergence ****

               *****************************************************
               *                     SUCCESS                       *
               *           SCF CONVERGED AFTER   1 CYCLES          *
               *****************************************************

Old exchange energy                            =    -20.130520974 Eh
New exchange energy                            =    -20.130623023 Eh
Exchange energy change after final integration =     -0.000102050 Eh
Total energy after final integration           =   -697.967270709 Eh
Final COS-X integration done in                =     4.618 sec

----------------
TOTAL SCF ENERGY
----------------

Total Energy       :         -697.96727071 Eh          -18992.65500 eV

Components:
Nuclear Repulsion  :         1144.87966229 Eh           31153.75944 eV
Electronic Energy  :        -1842.84693300 Eh          -50146.41444 eV
One Electron Energy:        -3212.87240542 Eh          -87426.70284 eV
Two Electron Energy:         1370.02547243 Eh           37280.28840 eV
Max COSX asymmetry :            0.00000051 Eh               0.00001 eV

Virial components:
Potential Energy   :        -1390.99846411 Eh          -37850.99252 eV
Kinetic Energy     :          693.03119340 Eh           18858.33751 eV
Virial Ratio       :            2.00712245


DFT components:
N(Alpha)           :       65.000135802569 electrons
N(Beta)            :       64.000126193306 electrons
N(Total)           :      129.000261995875 electrons
E(X)               :      -79.825998089188 Eh       
E(C)               :       -4.989826831585 Eh       
E(XC)              :      -84.815824920773 Eh       
DFET-embed. en.    :        0.000000000000 Eh       

---------------
SCF CONVERGENCE
---------------

  Last Energy change         ...   -5.2149e-07  Tolerance :   1.0000e-06
  Last MAX-Density change    ...    1.7633e-05  Tolerance :   1.0000e-05
  Last RMS-Density change    ...    3.0898e-07  Tolerance :   1.0000e-06
  Last DIIS Error            ...    9.9835e-05  Tolerance :   1.0000e-06

             **** THE GBW FILE WAS UPDATED (cc-pVDZ.gbw) ****
             **** DENSITY cc-pVDZ.scfp WAS UPDATED ****
             **** ENERGY FILE WAS UPDATED (cc-pVDZ.en.tmp) ****
----------------------
UHF SPIN CONTAMINATION
----------------------

Warning: in a DFT calculation there is little theoretical justification to 
         calculate <S**2> as in Hartree-Fock theory. We will do it anyways
         but you should keep in mind that the values have only limited relevance

Expectation value of <S**2>     :     0.785804
Ideal value S*(S+1) for S=0.5   :     0.750000
Deviation                       :     0.035804

             **** THE GBW FILE WAS UPDATED (cc-pVDZ.gbw) ****
             **** DENSITY cc-pVDZ.scfp WAS UPDATED ****
----------------
ORBITAL ENERGIES
----------------
                 SPIN UP ORBITALS
  NO   OCC          E(Eh)            E(eV) 
   0   1.0000     -10.215349      -277.9738 
   1   1.0000     -10.213465      -277.9225 
   2   1.0000     -10.204311      -277.6734 
   3   1.0000     -10.200094      -277.5587 
   4   1.0000     -10.196671      -277.4655 
   5   1.0000     -10.193558      -277.3808 
   6   1.0000     -10.192858      -277.3618 
   7   1.0000     -10.191812      -277.3333 
   8   1.0000     -10.190743      -277.3042 
   9   1.0000     -10.188924      -277.2547 
  10   1.0000     -10.187511      -277.2163 
  11   1.0000     -10.187310      -277.2108 
  12   1.0000     -10.186741      -277.1953 
  13   1.0000     -10.184316      -277.1293 
  14   1.0000     -10.182195      -277.0716 
  15   1.0000     -10.181842      -277.0620 
  16   1.0000     -10.177410      -276.9414 
  17   1.0000     -10.175662      -276.8938 
  18   1.0000      -0.875647       -23.8276 
  19   1.0000      -0.821143       -22.3444 
  20   1.0000      -0.798404       -21.7257 
  21   1.0000      -0.796398       -21.6711 
  22   1.0000      -0.769045       -20.9268 
  23   1.0000      -0.752762       -20.4837 
  24   1.0000      -0.731756       -19.9121 
  25   1.0000      -0.721393       -19.6301 
  26   1.0000      -0.698772       -19.0146 
  27   1.0000      -0.657595       -17.8941 
  28   1.0000      -0.640119       -17.4185 
  29   1.0000      -0.618006       -16.8168 
  30   1.0000      -0.594655       -16.1814 
  31   1.0000      -0.580862       -15.8061 
  32   1.0000      -0.563318       -15.3287 
  33   1.0000      -0.542220       -14.7546 
  34   1.0000      -0.524586       -14.2747 
  35   1.0000      -0.499445       -13.5906 
  36   1.0000      -0.486894       -13.2491 
  37   1.0000      -0.478511       -13.0209 
  38   1.0000      -0.471042       -12.8177 
  39   1.0000      -0.462812       -12.5938 
  40   1.0000      -0.434254       -11.8166 
  41   1.0000      -0.430641       -11.7183 
  42   1.0000      -0.426746       -11.6123 
  43   1.0000      -0.422417       -11.4946 
  44   1.0000      -0.412558       -11.2263 
  45   1.0000      -0.399071       -10.8593 
  46   1.0000      -0.398526       -10.8444 
  47   1.0000      -0.381064       -10.3693 
  48   1.0000      -0.379745       -10.3334 
  49   1.0000      -0.365970        -9.9586 
  50   1.0000      -0.358140        -9.7455 
  51   1.0000      -0.354921        -9.6579 
  52   1.0000      -0.341082        -9.2813 
  53   1.0000      -0.333270        -9.0687 
  54   1.0000      -0.331655        -9.0248 
  55   1.0000      -0.331042        -9.0081 
  56   1.0000      -0.328159        -8.9297 
  57   1.0000      -0.325102        -8.8465 
  58   1.0000      -0.321422        -8.7463 
  59   1.0000      -0.285589        -7.7713 
  60   1.0000      -0.276498        -7.5239 
  61   1.0000      -0.274862        -7.4794 
  62   1.0000      -0.271302        -7.3825 
  63   1.0000      -0.231115        -6.2890 
  64   1.0000      -0.174656        -4.7526 
  65   0.0000      -0.048347        -1.3156 
  66   0.0000       0.010913         0.2970 
  67   0.0000       0.040506         1.1022 
  68   0.0000       0.049415         1.3446 
  69   0.0000       0.052835         1.4377 
  70   0.0000       0.062596         1.7033 
  71   0.0000       0.063662         1.7323 
  72   0.0000       0.082236         2.2377 
  73   0.0000       0.085683         2.3316 
  74   0.0000       0.088693         2.4134 
  75   0.0000       0.091189         2.4814 
  76   0.0000       0.094685         2.5765 
  77   0.0000       0.095711         2.6044 
  78   0.0000       0.100968         2.7475 
  79   0.0000       0.102741         2.7957 
  80   0.0000       0.118050         3.2123 
  81   0.0000       0.125640         3.4188 
  82   0.0000       0.129978         3.5369 
  83   0.0000       0.144665         3.9365 
  84   0.0000       0.146899         3.9973 
  85   0.0000       0.151479         4.1220 
  86   0.0000       0.160065         4.3556 
  87   0.0000       0.160149         4.3579 
  88   0.0000       0.162048         4.4095 
  89   0.0000       0.168583         4.5874 
  90   0.0000       0.170365         4.6359 
  91   0.0000       0.178740         4.8637 
  92   0.0000       0.195879         5.3301 
  93   0.0000       0.204103         5.5539 
  94   0.0000       0.212255         5.7758 
  95   0.0000       0.217198         5.9103 
  96   0.0000       0.222598         6.0572 
  97   0.0000       0.242798         6.6069 
  98   0.0000       0.248297         6.7565 
  99   0.0000       0.260792         7.0965 
 100   0.0000       0.268514         7.3066 
 101   0.0000       0.290733         7.9112 
 102   0.0000       0.308279         8.3887 
 103   0.0000       0.323259         8.7963 
 104   0.0000       0.327178         8.9030 
 105   0.0000       0.348725         9.4893 
 106   0.0000       0.361043         9.8245 
 107   0.0000       0.366050         9.9607 
 108   0.0000       0.390529        10.6268 
 109   0.0000       0.409468        11.1422 
 110   0.0000       0.411468        11.1966 
 111   0.0000       0.412982        11.2378 
 112   0.0000       0.419164        11.4060 
 113   0.0000       0.423918        11.5354 
 114   0.0000       0.435742        11.8572 
 115   0.0000       0.439901        11.9703 
 116   0.0000       0.442279        12.0350 
 117   0.0000       0.461380        12.5548 
 118   0.0000       0.463111        12.6019 
 119   0.0000       0.470703        12.8085 
 120   0.0000       0.476294        12.9606 
 121   0.0000       0.478745        13.0273 
 122   0.0000       0.487690        13.2707 
 123   0.0000       0.502599        13.6764 
 124   0.0000       0.503761        13.7080 
 125   0.0000       0.505299        13.7499 
 126   0.0000       0.515963        14.0401 
 127   0.0000       0.522573        14.2199 
 128   0.0000       0.528362        14.3775 
 129   0.0000       0.540905        14.7188 
 130   0.0000       0.543328        14.7847 
 131   0.0000       0.551408        15.0046 
 132   0.0000       0.558094        15.1865 
 133   0.0000       0.560055        15.2399 
 134   0.0000       0.587150        15.9772 
 135   0.0000       0.588397        16.0111 
 136   0.0000       0.596335        16.2271 
 137   0.0000       0.604151        16.4398 
 138   0.0000       0.605573        16.4785 
 139   0.0000       0.607609        16.5339 
 140   0.0000       0.618511        16.8305 
 141   0.0000       0.624073        16.9819 
 142   0.0000       0.638979        17.3875 
 143   0.0000       0.641604        17.4589 
 144   0.0000       0.643821        17.5193 
 145   0.0000       0.644649        17.5418 
 146   0.0000       0.651756        17.7352 
 147   0.0000       0.654670        17.8145 
 148   0.0000       0.656439        17.8626 
 149   0.0000       0.659519        17.9464 
 150   0.0000       0.661760        18.0074 
 151   0.0000       0.662633        18.0312 
 152   0.0000       0.667991        18.1770 
 153   0.0000       0.668230        18.1835 
 154   0.0000       0.680223        18.5098 
 155   0.0000       0.681587        18.5469 
 156   0.0000       0.687251        18.7011 
 157   0.0000       0.689995        18.7757 
 158   0.0000       0.691798        18.8248 
 159   0.0000       0.697812        18.9884 
 160   0.0000       0.707399        19.2493 
 161   0.0000       0.718888        19.5619 
 162   0.0000       0.719531        19.5794 
 163   0.0000       0.728782        19.8312 
 164   0.0000       0.733355        19.9556 
 165   0.0000       0.735500        20.0140 
 166   0.0000       0.738134        20.0856 
 167   0.0000       0.747276        20.3344 
 168   0.0000       0.756748        20.5922 
 169   0.0000       0.768689        20.9171 
 170   0.0000       0.773622        21.0513 
 171   0.0000       0.781095        21.2547 
 172   0.0000       0.801927        21.8215 
 173   0.0000       0.818715        22.2784 
 174   0.0000       0.832012        22.6402 
 175   0.0000       0.832903        22.6644 
 176   0.0000       0.840985        22.8844 
 177   0.0000       0.852671        23.2024 
 178   0.0000       0.872475        23.7412 
 179   0.0000       0.879282        23.9265 
 180   0.0000       0.884492        24.0682 
 181   0.0000       0.912947        24.8426 
 182   0.0000       0.929356        25.2891 
 183   0.0000       0.938680        25.5428 
 184   0.0000       0.951597        25.8943 
 185   0.0000       0.978787        26.6341 
 186   0.0000       0.984276        26.7835 
 187   0.0000       0.990493        26.9527 
 188   0.0000       0.996606        27.1190 
 189   0.0000       1.014073        27.5943 
 190   0.0000       1.037403        28.2292 
 191   0.0000       1.042268        28.3616 
 192   0.0000       1.048043        28.5187 
 193   0.0000       1.049422        28.5562 
 194   0.0000       1.053772        28.6746 
 195   0.0000       1.065159        28.9845 
 196   0.0000       1.080680        29.4068 
 197   0.0000       1.084017        29.4976 
 198   0.0000       1.099627        29.9224 
 199   0.0000       1.144132        31.1334 
 200   0.0000       1.156782        31.4776 
 201   0.0000       1.165536        31.7159 
 202   0.0000       1.192793        32.4576 
 203   0.0000       1.204152        32.7666 
 204   0.0000       1.207145        32.8481 
 205   0.0000       1.208702        32.8905 
 206   0.0000       1.215269        33.0692 
 207   0.0000       1.218063        33.1452 
 208   0.0000       1.222559        33.2675 
 209   0.0000       1.227611        33.4050 
 210   0.0000       1.236017        33.6337 
 211   0.0000       1.257516        34.2188 
 212   0.0000       1.282838        34.9078 
 213   0.0000       1.288318        35.0569 
 214   0.0000       1.303927        35.4817 
 215   0.0000       1.308108        35.5954 
 216   0.0000       1.318254        35.8715 
 217   0.0000       1.327627        36.1266 
 218   0.0000       1.335418        36.3386 
 219   0.0000       1.345934        36.6247 
 220   0.0000       1.347387        36.6643 
 221   0.0000       1.372195        37.3393 
 222   0.0000       1.383883        37.6574 
 223   0.0000       1.388435        37.7812 
 224   0.0000       1.399291        38.0767 
 225   0.0000       1.409075        38.3429 
 226   0.0000       1.417317        38.5672 
 227   0.0000       1.424983        38.7758 
 228   0.0000       1.426452        38.8157 
 229   0.0000       1.428560        38.8731 
 230   0.0000       1.445936        39.3459 
 231   0.0000       1.452266        39.5182 
 232   0.0000       1.462215        39.7889 
 233   0.0000       1.468893        39.9706 
 234   0.0000       1.471394        40.0387 
 235   0.0000       1.483808        40.3765 
 236   0.0000       1.494286        40.6616 
 237   0.0000       1.520361        41.3711 
 238   0.0000       1.532203        41.6934 
 239   0.0000       1.537145        41.8278 
 240   0.0000       1.557049        42.3695 
 241   0.0000       1.558599        42.4116 
 242   0.0000       1.582860        43.0718 
 243   0.0000       1.585549        43.1450 
 244   0.0000       1.586251        43.1641 
 245   0.0000       1.601114        43.5685 
 246   0.0000       1.616640        43.9910 
 247   0.0000       1.622182        44.1418 
 248   0.0000       1.627839        44.2958 
 249   0.0000       1.630110        44.3576 
 250   0.0000       1.632989        44.4359 
 251   0.0000       1.639673        44.6178 
 252   0.0000       1.645748        44.7831 
 253   0.0000       1.651275        44.9335 
 254   0.0000       1.651626        44.9430 
 255   0.0000       1.660664        45.1890 
 256   0.0000       1.668769        45.4095 
 257   0.0000       1.671796        45.4919 
 258   0.0000       1.675730        45.5989 
 259   0.0000       1.685886        45.8753 
 260   0.0000       1.686448        45.8906 
 261   0.0000       1.694958        46.1222 
 262   0.0000       1.698777        46.2261 
 263   0.0000       1.702427        46.3254 
 264   0.0000       1.704113        46.3713 
 265   0.0000       1.710645        46.5490 
 266   0.0000       1.716928        46.7200 
 267   0.0000       1.725358        46.9494 
 268   0.0000       1.741907        47.3997 
 269   0.0000       1.752026        47.6750 
 270   0.0000       1.756012        47.7835 
 271   0.0000       1.762299        47.9546 
 272   0.0000       1.780616        48.4530 
 273   0.0000       1.783144        48.5218 
 274   0.0000       1.790081        48.7106 
 275   0.0000       1.796199        48.8771 
 276   0.0000       1.802446        49.0470 
 277   0.0000       1.813980        49.3609 
 278   0.0000       1.819526        49.5118 
 279   0.0000       1.822336        49.5883 
 280   0.0000       1.830336        49.8060 
 281   0.0000       1.857412        50.5427 
 282   0.0000       1.870097        50.8879 
 283   0.0000       1.879677        51.1486 
 284   0.0000       1.889116        51.4055 
 285   0.0000       1.896960        51.6189 
 286   0.0000       1.911859        52.0243 
 287   0.0000       1.915167        52.1143 
 288   0.0000       1.922015        52.3007 
 289   0.0000       1.929323        52.4995 
 290   0.0000       1.952772        53.1376 
 291   0.0000       1.975664        53.7606 
 292   0.0000       1.992244        54.2117 
 293   0.0000       1.996371        54.3240 
 294   0.0000       2.011784        54.7434 
 295   0.0000       2.024501        55.0895 
 296   0.0000       2.044674        55.6384 
 297   0.0000       2.050725        55.8031 
 298   0.0000       2.068043        56.2743 
 299   0.0000       2.075189        56.4688 
 300   0.0000       2.076743        56.5111 
 301   0.0000       2.085989        56.7626 
 302   0.0000       2.111633        57.4605 
 303   0.0000       2.126156        57.8556 
 304   0.0000       2.128132        57.9094 
 305   0.0000       2.128932        57.9312 
 306   0.0000       2.151657        58.5496 
 307   0.0000       2.155821        58.6629 
 308   0.0000       2.188949        59.5643 
 309   0.0000       2.199040        59.8389 
 310   0.0000       2.209885        60.1340 
 311   0.0000       2.212692        60.2104 
 312   0.0000       2.218624        60.3718 
 313   0.0000       2.227219        60.6057 
 314   0.0000       2.253146        61.3112 
 315   0.0000       2.260951        61.5236 
 316   0.0000       2.281000        62.0692 
 317   0.0000       2.291842        62.3642 
 318   0.0000       2.296897        62.5017 
 319   0.0000       2.301834        62.6361 
 320   0.0000       2.319743        63.1234 
 321   0.0000       2.326507        63.3075 
 322   0.0000       2.329418        63.3867 
 323   0.0000       2.334722        63.5310 
 324   0.0000       2.375155        64.6312 
 325   0.0000       2.382907        64.8422 
 326   0.0000       2.407491        65.5112 
 327   0.0000       2.410986        65.6063 
 328   0.0000       2.412226        65.6400 
 329   0.0000       2.413295        65.6691 
 330   0.0000       2.422131        65.9095 
 331   0.0000       2.424511        65.9743 
 332   0.0000       2.440758        66.4164 
 333   0.0000       2.484147        67.5971 
 334   0.0000       2.498779        67.9952 
 335   0.0000       2.502294        68.0909 
 336   0.0000       2.535412        68.9921 
 337   0.0000       2.545567        69.2684 
 338   0.0000       2.558626        69.6237 
 339   0.0000       2.592748        70.5523 
 340   0.0000       2.601325        70.7857 
 341   0.0000       2.625499        71.4435 
 342   0.0000       2.641799        71.8870 
 343   0.0000       2.661196        72.4148 
 344   0.0000       2.680489        72.9398 
 345   0.0000       2.713638        73.8418 
 346   0.0000       2.722268        74.0767 
 347   0.0000       2.754008        74.9404 
 348   0.0000       2.776764        75.5596 
 349   0.0000       2.823084        76.8200 
 350   0.0000       2.845101        77.4191 
 351   0.0000       2.871191        78.1291 
 352   0.0000       2.927745        79.6680 
 353   0.0000       3.006884        81.8215 
 354   0.0000       3.191134        86.8352 
 355   0.0000       3.202576        87.1465 
 356   0.0000       3.395950        92.4085 

                 SPIN DOWN ORBITALS
  NO   OCC          E(Eh)            E(eV) 
   0   1.0000     -10.215091      -277.9668 
   1   1.0000     -10.211924      -277.8806 
   2   1.0000     -10.202545      -277.6254 
   3   1.0000     -10.200848      -277.5792 
   4   1.0000     -10.193580      -277.3814 
   5   1.0000     -10.193413      -277.3769 
   6   1.0000     -10.192472      -277.3513 
   7   1.0000     -10.191503      -277.3249 
   8   1.0000     -10.189605      -277.2732 
   9   1.0000     -10.187928      -277.2276 
  10   1.0000     -10.187716      -277.2218 
  11   1.0000     -10.185466      -277.1606 
  12   1.0000     -10.184277      -277.1283 
  13   1.0000     -10.183542      -277.1083 
  14   1.0000     -10.182191      -277.0715 
  15   1.0000     -10.181842      -277.0620 
  16   1.0000     -10.177418      -276.9416 
  17   1.0000     -10.175664      -276.8939 
  18   1.0000      -0.872221       -23.7343 
  19   1.0000      -0.816070       -22.2064 
  20   1.0000      -0.795802       -21.6549 
  21   1.0000      -0.794965       -21.6321 
  22   1.0000      -0.767001       -20.8712 
  23   1.0000      -0.751893       -20.4601 
  24   1.0000      -0.727648       -19.8003 
  25   1.0000      -0.719929       -19.5903 
  26   1.0000      -0.696399       -18.9500 
  27   1.0000      -0.654534       -17.8108 
  28   1.0000      -0.638241       -17.3674 
  29   1.0000      -0.612412       -16.6646 
  30   1.0000      -0.593696       -16.1553 
  31   1.0000      -0.579290       -15.7633 
  32   1.0000      -0.560784       -15.2597 
  33   1.0000      -0.540928       -14.7194 
  34   1.0000      -0.522041       -14.2054 
  35   1.0000      -0.497253       -13.5310 
  36   1.0000      -0.485452       -13.2098 
  37   1.0000      -0.477132       -12.9834 
  38   1.0000      -0.470162       -12.7938 
  39   1.0000      -0.459301       -12.4982 
  40   1.0000      -0.432172       -11.7600 
  41   1.0000      -0.429182       -11.6786 
  42   1.0000      -0.425510       -11.5787 
  43   1.0000      -0.419704       -11.4207 
  44   1.0000      -0.412078       -11.2132 
  45   1.0000      -0.397422       -10.8144 
  46   1.0000      -0.391220       -10.6456 
  47   1.0000      -0.377451       -10.2710 
  48   1.0000      -0.377179       -10.2636 
  49   1.0000      -0.364798        -9.9267 
  50   1.0000      -0.357136        -9.7182 
  51   1.0000      -0.351751        -9.5716 
  52   1.0000      -0.338778        -9.2186 
  53   1.0000      -0.332756        -9.0548 
  54   1.0000      -0.330023        -8.9804 
  55   1.0000      -0.328641        -8.9428 
  56   1.0000      -0.327813        -8.9202 
  57   1.0000      -0.324342        -8.8258 
  58   1.0000      -0.320686        -8.7263 
  59   1.0000      -0.280059        -7.6208 
  60   1.0000      -0.276459        -7.5228 
  61   1.0000      -0.274206        -7.4615 
  62   1.0000      -0.258904        -7.0451 
  63   1.0000      -0.223117        -6.0713 
  64   0.0000      -0.084269        -2.2931 
  65   0.0000      -0.039292        -1.0692 
  66   0.0000       0.027004         0.7348 
  67   0.0000       0.040906         1.1131 
  68   0.0000       0.049719         1.3529 
  69   0.0000       0.059209         1.6112 
  70   0.0000       0.062725         1.7068 
  71   0.0000       0.064109         1.7445 
  72   0.0000       0.082660         2.2493 
  73   0.0000       0.086152         2.3443 
  74   0.0000       0.089284         2.4295 
  75   0.0000       0.091380         2.4866 
  76   0.0000       0.095001         2.5851 
  77   0.0000       0.095731         2.6050 
  78   0.0000       0.101819         2.7706 
  79   0.0000       0.104133         2.8336 
  80   0.0000       0.120278         3.2729 
  81   0.0000       0.126147         3.4326 
  82   0.0000       0.130162         3.5419 
  83   0.0000       0.145482         3.9588 
  84   0.0000       0.148869         4.0509 
  85   0.0000       0.152534         4.1506 
  86   0.0000       0.160660         4.3718 
  87   0.0000       0.160917         4.3788 
  88   0.0000       0.162352         4.4178 
  89   0.0000       0.170806         4.6479 
  90   0.0000       0.170983         4.6527 
  91   0.0000       0.181057         4.9268 
  92   0.0000       0.203299         5.5320 
  93   0.0000       0.205113         5.5814 
  94   0.0000       0.213496         5.8095 
  95   0.0000       0.218550         5.9471 
  96   0.0000       0.223747         6.0885 
  97   0.0000       0.244107         6.6425 
  98   0.0000       0.249757         6.7962 
  99   0.0000       0.263055         7.1581 
 100   0.0000       0.270665         7.3652 
 101   0.0000       0.292189         7.9509 
 102   0.0000       0.310056         8.4371 
 103   0.0000       0.326132         8.8745 
 104   0.0000       0.328139         8.9291 
 105   0.0000       0.349231         9.5031 
 106   0.0000       0.361817         9.8456 
 107   0.0000       0.367253         9.9935 
 108   0.0000       0.391947        10.6654 
 109   0.0000       0.409948        11.1552 
 110   0.0000       0.411939        11.2094 
 111   0.0000       0.413491        11.2517 
 112   0.0000       0.419533        11.4161 
 113   0.0000       0.425003        11.5649 
 114   0.0000       0.438639        11.9360 
 115   0.0000       0.444425        12.0934 
 116   0.0000       0.453873        12.3505 
 117   0.0000       0.464744        12.6463 
 118   0.0000       0.468054        12.7364 
 119   0.0000       0.471736        12.8366 
 120   0.0000       0.479422        13.0457 
 121   0.0000       0.483274        13.1506 
 122   0.0000       0.489991        13.3333 
 123   0.0000       0.504474        13.7274 
 124   0.0000       0.505451        13.7540 
 125   0.0000       0.506410        13.7801 
 126   0.0000       0.520327        14.1588 
 127   0.0000       0.525865        14.3095 
 128   0.0000       0.531002        14.4493 
 129   0.0000       0.541822        14.7437 
 130   0.0000       0.551839        15.0163 
 131   0.0000       0.552902        15.0452 
 132   0.0000       0.561592        15.2817 
 133   0.0000       0.569014        15.4837 
 134   0.0000       0.590329        16.0637 
 135   0.0000       0.590723        16.0744 
 136   0.0000       0.598468        16.2851 
 137   0.0000       0.604986        16.4625 
 138   0.0000       0.607077        16.5194 
 139   0.0000       0.608439        16.5565 
 140   0.0000       0.618975        16.8432 
 141   0.0000       0.628026        17.0895 
 142   0.0000       0.639453        17.4004 
 143   0.0000       0.641862        17.4660 
 144   0.0000       0.645692        17.5702 
 145   0.0000       0.646709        17.5979 
 146   0.0000       0.652362        17.7517 
 147   0.0000       0.654809        17.8183 
 148   0.0000       0.657489        17.8912 
 149   0.0000       0.660658        17.9774 
 150   0.0000       0.662327        18.0228 
 151   0.0000       0.665609        18.1121 
 152   0.0000       0.668746        18.1975 
 153   0.0000       0.669579        18.2202 
 154   0.0000       0.681749        18.5513 
 155   0.0000       0.683312        18.5939 
 156   0.0000       0.688335        18.7305 
 157   0.0000       0.690994        18.8029 
 158   0.0000       0.692312        18.8388 
 159   0.0000       0.698267        19.0008 
 160   0.0000       0.707554        19.2535 
 161   0.0000       0.720075        19.5942 
 162   0.0000       0.720846        19.6152 
 163   0.0000       0.729604        19.8535 
 164   0.0000       0.736724        20.0473 
 165   0.0000       0.738566        20.0974 
 166   0.0000       0.740262        20.1436 
 167   0.0000       0.748659        20.3720 
 168   0.0000       0.758858        20.6496 
 169   0.0000       0.769541        20.9403 
 170   0.0000       0.778569        21.1859 
 171   0.0000       0.783578        21.3222 
 172   0.0000       0.802731        21.8434 
 173   0.0000       0.820527        22.3277 
 174   0.0000       0.833274        22.6745 
 175   0.0000       0.835172        22.7262 
 176   0.0000       0.841796        22.9064 
 177   0.0000       0.853431        23.2230 
 178   0.0000       0.875337        23.8191 
 179   0.0000       0.880670        23.9643 
 180   0.0000       0.887534        24.1510 
 181   0.0000       0.917314        24.9614 
 182   0.0000       0.929924        25.3045 
 183   0.0000       0.947123        25.7725 
 184   0.0000       0.954846        25.9827 
 185   0.0000       0.985109        26.8062 
 186   0.0000       0.986560        26.8457 
 187   0.0000       0.992048        26.9950 
 188   0.0000       1.001159        27.2429 
 189   0.0000       1.014707        27.6116 
 190   0.0000       1.038818        28.2677 
 191   0.0000       1.047618        28.5071 
 192   0.0000       1.049628        28.5618 
 193   0.0000       1.050596        28.5882 
 194   0.0000       1.055405        28.7190 
 195   0.0000       1.066407        29.0184 
 196   0.0000       1.083377        29.4802 
 197   0.0000       1.086391        29.5622 
 198   0.0000       1.101196        29.9651 
 199   0.0000       1.145503        31.1707 
 200   0.0000       1.157444        31.4957 
 201   0.0000       1.166419        31.7399 
 202   0.0000       1.193900        32.4877 
 203   0.0000       1.204503        32.7762 
 204   0.0000       1.207806        32.8661 
 205   0.0000       1.209320        32.9073 
 206   0.0000       1.215536        33.0764 
 207   0.0000       1.219535        33.1852 
 208   0.0000       1.222951        33.2782 
 209   0.0000       1.229759        33.4634 
 210   0.0000       1.236848        33.6563 
 211   0.0000       1.258623        34.2489 
 212   0.0000       1.284943        34.9651 
 213   0.0000       1.289460        35.0880 
 214   0.0000       1.305637        35.5282 
 215   0.0000       1.309056        35.6212 
 216   0.0000       1.324561        36.0431 
 217   0.0000       1.329201        36.1694 
 218   0.0000       1.335956        36.3532 
 219   0.0000       1.347447        36.6659 
 220   0.0000       1.356861        36.9221 
 221   0.0000       1.374325        37.3973 
 222   0.0000       1.384296        37.6686 
 223   0.0000       1.393906        37.9301 
 224   0.0000       1.402899        38.1748 
 225   0.0000       1.410710        38.3874 
 226   0.0000       1.418661        38.6037 
 227   0.0000       1.425048        38.7775 
 228   0.0000       1.426465        38.8161 
 229   0.0000       1.430627        38.9293 
 230   0.0000       1.452679        39.5294 
 231   0.0000       1.454674        39.5837 
 232   0.0000       1.463918        39.8352 
 233   0.0000       1.469471        39.9863 
 234   0.0000       1.473803        40.1042 
 235   0.0000       1.484816        40.4039 
 236   0.0000       1.495143        40.6849 
 237   0.0000       1.522385        41.4262 
 238   0.0000       1.533243        41.7217 
 239   0.0000       1.538190        41.8563 
 240   0.0000       1.559501        42.4362 
 241   0.0000       1.562075        42.5062 
 242   0.0000       1.583046        43.0769 
 243   0.0000       1.587304        43.1927 
 244   0.0000       1.588013        43.2120 
 245   0.0000       1.601991        43.5924 
 246   0.0000       1.617553        44.0159 
 247   0.0000       1.622916        44.1618 
 248   0.0000       1.628689        44.3189 
 249   0.0000       1.630338        44.3637 
 250   0.0000       1.634398        44.4742 
 251   0.0000       1.639893        44.6238 
 252   0.0000       1.646347        44.7994 
 253   0.0000       1.652323        44.9620 
 254   0.0000       1.653052        44.9818 
 255   0.0000       1.661386        45.2086 
 256   0.0000       1.671806        45.4921 
 257   0.0000       1.675013        45.5794 
 258   0.0000       1.676335        45.6154 
 259   0.0000       1.686951        45.9043 
 260   0.0000       1.688466        45.9455 
 261   0.0000       1.697027        46.1785 
 262   0.0000       1.699534        46.2467 
 263   0.0000       1.703433        46.3528 
 264   0.0000       1.705508        46.4092 
 265   0.0000       1.711114        46.5618 
 266   0.0000       1.717857        46.7453 
 267   0.0000       1.726483        46.9800 
 268   0.0000       1.745855        47.5071 
 269   0.0000       1.754628        47.7459 
 270   0.0000       1.756296        47.7913 
 271   0.0000       1.764193        48.0061 
 272   0.0000       1.783471        48.5307 
 273   0.0000       1.786443        48.6116 
 274   0.0000       1.791799        48.7573 
 275   0.0000       1.797234        48.9052 
 276   0.0000       1.805790        49.1380 
 277   0.0000       1.819326        49.5064 
 278   0.0000       1.822817        49.6014 
 279   0.0000       1.824154        49.6377 
 280   0.0000       1.831799        49.8458 
 281   0.0000       1.858212        50.5645 
 282   0.0000       1.876685        51.0672 
 283   0.0000       1.881499        51.1982 
 284   0.0000       1.890185        51.4346 
 285   0.0000       1.897431        51.6317 
 286   0.0000       1.915839        52.1326 
 287   0.0000       1.916406        52.1481 
 288   0.0000       1.925021        52.3825 
 289   0.0000       1.930272        52.5254 
 290   0.0000       1.953530        53.1583 
 291   0.0000       1.976268        53.7770 
 292   0.0000       1.996544        54.3287 
 293   0.0000       1.998456        54.3807 
 294   0.0000       2.012405        54.7603 
 295   0.0000       2.025404        55.1140 
 296   0.0000       2.045399        55.6581 
 297   0.0000       2.054688        55.9109 
 298   0.0000       2.071482        56.3679 
 299   0.0000       2.077756        56.5386 
 300   0.0000       2.081502        56.6405 
 301   0.0000       2.086936        56.7884 
 302   0.0000       2.111564        57.4586 
 303   0.0000       2.128740        57.9260 
 304   0.0000       2.130393        57.9709 
 305   0.0000       2.131192        57.9927 
 306   0.0000       2.157761        58.7156 
 307   0.0000       2.158979        58.7488 
 308   0.0000       2.189627        59.5828 
 309   0.0000       2.200036        59.8660 
 310   0.0000       2.211150        60.1685 
 311   0.0000       2.213826        60.2413 
 312   0.0000       2.220383        60.4197 
 313   0.0000       2.229408        60.6653 
 314   0.0000       2.254233        61.3408 
 315   0.0000       2.261955        61.5509 
 316   0.0000       2.283097        62.1262 
 317   0.0000       2.292475        62.3814 
 318   0.0000       2.298101        62.5345 
 319   0.0000       2.305805        62.7441 
 320   0.0000       2.320231        63.1367 
 321   0.0000       2.328510        63.3620 
 322   0.0000       2.331999        63.4569 
 323   0.0000       2.336666        63.5839 
 324   0.0000       2.377385        64.6919 
 325   0.0000       2.385255        64.9061 
 326   0.0000       2.409072        65.5542 
 327   0.0000       2.411366        65.6166 
 328   0.0000       2.412936        65.6593 
 329   0.0000       2.413478        65.6741 
 330   0.0000       2.423876        65.9570 
 331   0.0000       2.425274        65.9951 
 332   0.0000       2.442934        66.4756 
 333   0.0000       2.486047        67.6488 
 334   0.0000       2.501271        68.0631 
 335   0.0000       2.503442        68.1221 
 336   0.0000       2.536080        69.0102 
 337   0.0000       2.546744        69.3004 
 338   0.0000       2.559606        69.6504 
 339   0.0000       2.593604        70.5756 
 340   0.0000       2.601707        70.7961 
 341   0.0000       2.626494        71.4705 
 342   0.0000       2.643212        71.9255 
 343   0.0000       2.663528        72.4783 
 344   0.0000       2.682403        72.9919 
 345   0.0000       2.713911        73.8493 
 346   0.0000       2.722838        74.0922 
 347   0.0000       2.754689        74.9589 
 348   0.0000       2.777665        75.5841 
 349   0.0000       2.824740        76.8651 
 350   0.0000       2.845620        77.4333 
 351   0.0000       2.873893        78.2026 
 352   0.0000       2.928585        79.6908 
 353   0.0000       3.009269        81.8864 
 354   0.0000       3.190696        86.8233 
 355   0.0000       3.203969        87.1844 
 356   0.0000       3.397546        92.4519 

                    ********************************
                    * MULLIKEN POPULATION ANALYSIS *
                    ********************************

--------------------------------------------
MULLIKEN ATOMIC CHARGES AND SPIN POPULATIONS
--------------------------------------------
   0 C :   -0.600733    0.101811
   1 C :    0.631671   -0.060551
   2 C :    0.624311    0.028987
   3 C :   -0.049195    0.228410
   4 C :    0.081066   -0.167134
   5 C :   -0.012573    0.219591
   6 C :   -0.022386   -0.110451
   7 C :   -0.076778    0.237583
   8 C :    0.025526   -0.118868
   9 H :   -0.048875   -0.009122
  10 H :   -0.049783    0.004319
  11 C :   -0.098562    0.705605
  12 H :   -0.021201   -0.030043
  13 C :    0.032695   -0.048373
  14 H :    0.029583    0.031763
  15 H :    0.029609    0.031642
  16 C :   -0.038823    0.002286
  17 H :    0.013197    0.000472
  18 H :    0.013217    0.000457
  19 C :    0.005404   -0.000180
  20 H :    0.017713    0.000155
  21 H :    0.017731    0.000154
  22 C :    0.042895   -0.018797
  23 H :    0.032216    0.010184
[...]
 A(DIA)          0.0006              -0.0004              -0.0002    A(PC) =   0.0000
             ----------           ----------           ----------
 A(Tot)         -2.3589              -7.9116             -10.8545    A(iso)=   -7.0416
 Orientation: 
  X          -0.9923050           -0.0175480            0.1225679
  Y           0.1225334            0.0030339            0.9924598
  Z          -0.0177875            0.9998414           -0.0008603

Notes:  (1) The A matrix conforms to the "SAI" spin Hamiltonian convention.
        (2) Tensor is right-handed.

 -----------------------------------------------------------
 Nucleus  36H : A:ISTP=    1 I=  0.5 P=533.5514 MHz/au**3
                Q:ISTP=    2 I=  1.0 Q=  0.0029 barn     
 -----------------------------------------------------------
 Solving for nuclear perturbation:
Forming RHS of the CP-SCF equations         ... 
Calc. nucleus orbit integrals (SHARK)       ... done

------------------------------------------------------------------------------
                           ORCA CP-SCF CALCULATION
------------------------------------------------------------------------------

Input orbitals are from        ... cc-pVDZ.gbw
Input Perturbation             ... cc-pVDZ.pin.tmp
Wavefunction output            ... cc-pVDZ.pout.tmp
Perturbation mode              ... Imaginary perturbation
Solver                         ... POPLE
Max. number of iterations      ... 64
Convergence tolerance          ... 1.000e-03
Integral handling              ... Direct
DFT GridXC                     ... 1
COSX GridX                     ... 1
COSX IntAccX                   ... 3.067
COSX Algorithm                 ... Auto
Number of perturbations        ... 3
Number of operators            ... 2
Orbital ranges used for CP-SCF:
 Operator 0:  Orbitals   0... 64  to  65...356
 Operator 1:  Orbitals   0... 63  to  64...356
Variables per perturbation     ... 37732
DFT calculation                         ... on
XC functional terms                     ... off
Hybrid DFT                              ... on
   Exchange mixing (SCF)                ...  0.200
   Exchange mixing (CP-SCF)             ...  0.200
   GGA exch. scaling(SCF)               ...  0.720
   GGA exch. scaling (CP-SCF)           ...  0.720
   GGA corr. scaling (SCF)              ...  0.810
   GGA corr. scaling (CP-SCF)           ...  0.810

CP-SCF GRID
-----------

General Integration Accuracy     IntAcc      ... 3.467
Radial Grid Type                 RadialGrid  ... OptM3 with GC (2021)
Angular Grid (max. ang.)         AngularGrid ... 1 (Lebedev-50)
Angular grid pruning method      GridPruning ... 4 (adaptive)
Weight generation scheme         WeightScheme... Becke
Basis function cutoff            BFCut       ... 1.0000e-10
Integration weight cutoff        WCut        ... 1.0000e-14
Angular grids for H and He will be reduced by one unit
Partially contracted basis set               ... off
Rotationally invariant grid construction     ... off

Total number of grid points                  ...    24800
Total number of batches                      ...      406
Average number of points per batch           ...       61
Average number of grid points per atom       ...      636

CP-SCF GRIDX
------------

General Integration Accuracy     IntAcc      ... 3.067
Radial Grid Type                 RadialGrid  ... OptM3 with GC (2021)
Angular Grid (max. ang.)         AngularGrid ... 1 (Lebedev-50)
Angular grid pruning method      GridPruning ... 4 (adaptive)
Weight generation scheme         WeightScheme... Becke
Basis function cutoff            BFCut       ... 1.0000e-10
Integration weight cutoff        WCut        ... 1.0000e-14
Angular grids for H and He will be reduced by one unit
Partially contracted basis set               ... on
Rotationally invariant grid construction     ... off

Total number of grid points                  ...    11665
Total number of batches                      ...      205
Average number of points per batch           ...       56
Average number of grid points per atom       ...      299

Memory available               ... 907.4 MB
Memory needed per perturbation ...   8.1 MB
Perturbations treated per batch... 3
Number of batches              ... 1
     CP-SCF ITERATION   0:   1.0063e-01 (   1.1 sec   0/  3 done)
     CP-SCF ITERATION   1:   1.5336e-03 (   1.2 sec   2/  3 done)
     CP-SCF ITERATION   2:   9.5160e-05 (   0.7 sec   3/  3 done)
                    *** THE CP-SCF HAS CONVERGED ***

Forming final perturbed densities           ... done
Transforming perturbed density to AO basis  ... done

 Raw HFC matrix (all values in MHz): 
 -----------------------------------
                 2.1087               0.1625              -0.0172
                 0.1625               4.6947              -0.0013
                -0.0172              -0.0013               3.1339

 A(FC)           3.3128               3.3128               3.3128
 A(SD)          -1.2143              -0.1787               1.3930
 A(ORB+DIA)     -0.0001               0.0001              -0.0008    A(PC) =  -0.0003
 A(ORB)          0.0000              -0.0001              -0.0010    A(PC) =  -0.0004
 A(DIA)         -0.0002               0.0002               0.0001    A(PC) =   0.0001
             ----------           ----------           ----------
 A(Tot)          2.0983               3.1342               4.7049    A(iso)=    3.3125
 Orientation: 
  X           0.9979131           -0.0163411           -0.0624695
  Y          -0.0624365            0.0025264           -0.9980457
  Z           0.0164670            0.9998633            0.0015008

Notes:  (1) The A matrix conforms to the "SAI" spin Hamiltonian convention.
        (2) Tensor is right-handed.

 -----------------------------------------------------------
 Nucleus  37H : A:ISTP=    1 I=  0.5 P=533.5514 MHz/au**3
                Q:ISTP=    2 I=  1.0 Q=  0.0029 barn     
 -----------------------------------------------------------
 Solving for nuclear perturbation:
Forming RHS of the CP-SCF equations         ... 
Calc. nucleus orbit integrals (SHARK)       ... done

------------------------------------------------------------------------------
                           ORCA CP-SCF CALCULATION
------------------------------------------------------------------------------

Input orbitals are from        ... cc-pVDZ.gbw
Input Perturbation             ... cc-pVDZ.pin.tmp
Wavefunction output            ... cc-pVDZ.pout.tmp
Perturbation mode              ... Imaginary perturbation
Solver                         ... POPLE
Max. number of iterations      ... 64
Convergence tolerance          ... 1.000e-03
Integral handling              ... Direct
DFT GridXC                     ... 1
COSX GridX                     ... 1
COSX IntAccX                   ... 3.067
COSX Algorithm                 ... Auto
Number of perturbations        ... 3
Number of operators            ... 2
Orbital ranges used for CP-SCF:
 Operator 0:  Orbitals   0... 64  to  65...356
 Operator 1:  Orbitals   0... 63  to  64...356
Variables per perturbation     ... 37732
DFT calculation                         ... on
XC functional terms                     ... off
Hybrid DFT                              ... on
   Exchange mixing (SCF)                ...  0.200
   Exchange mixing (CP-SCF)             ...  0.200
   GGA exch. scaling(SCF)               ...  0.720
   GGA exch. scaling (CP-SCF)           ...  0.720
   GGA corr. scaling (SCF)              ...  0.810
   GGA corr. scaling (CP-SCF)           ...  0.810

CP-SCF GRID
-----------

General Integration Accuracy     IntAcc      ... 3.467
Radial Grid Type                 RadialGrid  ... OptM3 with GC (2021)
Angular Grid (max. ang.)         AngularGrid ... 1 (Lebedev-50)
Angular grid pruning method      GridPruning ... 4 (adaptive)
Weight generation scheme         WeightScheme... Becke
Basis function cutoff            BFCut       ... 1.0000e-10
Integration weight cutoff        WCut        ... 1.0000e-14
Angular grids for H and He will be reduced by one unit
Partially contracted basis set               ... off
Rotationally invariant grid construction     ... off

Total number of grid points                  ...    24800
Total number of batches                      ...      406
Average number of points per batch           ...       61
Average number of grid points per atom       ...      636

CP-SCF GRIDX
------------

General Integration Accuracy     IntAcc      ... 3.067
Radial Grid Type                 RadialGrid  ... OptM3 with GC (2021)
Angular Grid (max. ang.)         AngularGrid ... 1 (Lebedev-50)
Angular grid pruning method      GridPruning ... 4 (adaptive)
Weight generation scheme         WeightScheme... Becke
Basis function cutoff            BFCut       ... 1.0000e-10
Integration weight cutoff        WCut        ... 1.0000e-14
Angular grids for H and He will be reduced by one unit
Partially contracted basis set               ... on
Rotationally invariant grid construction     ... off

Total number of grid points                  ...    11665
Total number of batches                      ...      205
Average number of points per batch           ...       56
Average number of grid points per atom       ...      299

Memory available               ... 907.0 MB
Memory needed per perturbation ...   8.1 MB
Perturbations treated per batch... 3
Number of batches              ... 1
     CP-SCF ITERATION   0:   3.6581e-02 (   1.1 sec   0/  3 done)
     CP-SCF ITERATION   1:   6.4721e-04 (   1.1 sec   3/  3 done)
                    *** THE CP-SCF HAS CONVERGED ***

Forming final perturbed densities           ... done
Transforming perturbed density to AO basis  ... done

 Raw HFC matrix (all values in MHz): 
 -----------------------------------
                -0.7775               0.2397               0.0004
                 0.2396               0.7242               0.0017
                 0.0004               0.0017              -0.7942

 A(FC)          -0.2826              -0.2826              -0.2826
 A(SD)           1.0436              -0.5115              -0.5321
 A(ORB+DIA)      0.0005              -0.0001              -0.0001    A(PC) =   0.0001
 A(ORB)          0.0004               0.0000              -0.0001    A(PC) =   0.0001
 A(DIA)          0.0001              -0.0001              -0.0001    A(PC) =  -0.0000
             ----------           ----------           ----------
 A(Tot)          0.7615              -0.7942              -0.8148    A(iso)=   -0.2825
 Orientation: 
  X          -0.1538655           -0.0047053            0.9880806
  Y          -0.9880912            0.0018669           -0.1538583
  Z          -0.0011207           -0.9999872           -0.0049365

Notes:  (1) The A matrix conforms to the "SAI" spin Hamiltonian convention.
        (2) Tensor is right-handed.

 -----------------------------------------------------------
 Nucleus  38H : A:ISTP=    1 I=  0.5 P=533.5514 MHz/au**3
                Q:ISTP=    2 I=  1.0 Q=  0.0029 barn     
 -----------------------------------------------------------
 Solving for nuclear perturbation:
Forming RHS of the CP-SCF equations         ... 
Calc. nucleus orbit integrals (SHARK)       ... done

------------------------------------------------------------------------------
                           ORCA CP-SCF CALCULATION
------------------------------------------------------------------------------

Input orbitals are from        ... cc-pVDZ.gbw
Input Perturbation             ... cc-pVDZ.pin.tmp
Wavefunction output            ... cc-pVDZ.pout.tmp
Perturbation mode              ... Imaginary perturbation
Solver                         ... POPLE
Max. number of iterations      ... 64
Convergence tolerance          ... 1.000e-03
Integral handling              ... Direct
DFT GridXC                     ... 1
COSX GridX                     ... 1
COSX IntAccX                   ... 3.067
COSX Algorithm                 ... Auto
Number of perturbations        ... 3
Number of operators            ... 2
Orbital ranges used for CP-SCF:
 Operator 0:  Orbitals   0... 64  to  65...356
 Operator 1:  Orbitals   0... 63  to  64...356
Variables per perturbation     ... 37732
DFT calculation                         ... on
XC functional terms                     ... off
Hybrid DFT                              ... on
   Exchange mixing (SCF)                ...  0.200
   Exchange mixing (CP-SCF)             ...  0.200
   GGA exch. scaling(SCF)               ...  0.720
   GGA exch. scaling (CP-SCF)           ...  0.720
   GGA corr. scaling (SCF)              ...  0.810
   GGA corr. scaling (CP-SCF)           ...  0.810

CP-SCF GRID
-----------

General Integration Accuracy     IntAcc      ... 3.467
Radial Grid Type                 RadialGrid  ... OptM3 with GC (2021)
Angular Grid (max. ang.)         AngularGrid ... 1 (Lebedev-50)
Angular grid pruning method      GridPruning ... 4 (adaptive)
Weight generation scheme         WeightScheme... Becke
Basis function cutoff            BFCut       ... 1.0000e-10
Integration weight cutoff        WCut        ... 1.0000e-14
Angular grids for H and He will be reduced by one unit
Partially contracted basis set               ... off
Rotationally invariant grid construction     ... off

Total number of grid points                  ...    24800
Total number of batches                      ...      406
Average number of points per batch           ...       61
Average number of grid points per atom       ...      636

CP-SCF GRIDX
------------

General Integration Accuracy     IntAcc      ... 3.067
Radial Grid Type                 RadialGrid  ... OptM3 with GC (2021)
Angular Grid (max. ang.)         AngularGrid ... 1 (Lebedev-50)
Angular grid pruning method      GridPruning ... 4 (adaptive)
Weight generation scheme         WeightScheme... Becke
Basis function cutoff            BFCut       ... 1.0000e-10
Integration weight cutoff        WCut        ... 1.0000e-14
Angular grids for H and He will be reduced by one unit
Partially contracted basis set               ... on
Rotationally invariant grid construction     ... off

Total number of grid points                  ...    11665
Total number of batches                      ...      205
Average number of points per batch           ...       56
Average number of grid points per atom       ...      299

Memory available               ... 906.6 MB
Memory needed per perturbation ...   8.1 MB
Perturbations treated per batch... 3
Number of batches              ... 1
     CP-SCF ITERATION   0:   3.6631e-02 (   1.1 sec   0/  3 done)
     CP-SCF ITERATION   1:   6.5690e-04 (   1.1 sec   3/  3 done)
                    *** THE CP-SCF HAS CONVERGED ***

Forming final perturbed densities           ... done
Transforming perturbed density to AO basis  ... done

 Raw HFC matrix (all values in MHz): 
 -----------------------------------
                -0.1193               0.0642               0.0000
                 0.0643               0.2305               0.0002
                 0.0000               0.0002              -0.1308

 A(FC)          -0.0066              -0.0066              -0.0066
 A(SD)          -0.1242              -0.1243               0.2484
 A(ORB+DIA)      0.0000               0.0000               0.0001    A(PC) =   0.0000
 A(ORB)         -0.0000               0.0000               0.0001    A(PC) =   0.0000
 A(DIA)          0.0000               0.0000               0.0000    A(PC) =   0.0000
             ----------           ----------           ----------
 A(Tot)         -0.1308              -0.1308               0.2419    A(iso)=   -0.0066
 Orientation: 
  X           0.9845407           -0.0067652            0.1750251
  Y          -0.1750163            0.0018763            0.9845637
  Z          -0.0069892           -0.9999754            0.0006633

Notes:  (1) The A matrix conforms to the "SAI" spin Hamiltonian convention.
        (2) Tensor is right-handed.


--------------------------------------------------------------------------------
----------------------------------------------------------------------------
                           ORCA EULER ANGLE PROGRAM
----------------------------------------------------------------------------

Only g-tensor available        -->  using g-tensor as reference tensor

Reference tensor               ...  g

g-tensor ordering              ...  |g_min> --> |gx>
                                    |g_mid> --> |gy>
                                    |g_max> --> |gz>

A- and EFG-tensor ordering     ...  the axes |Ax>, |Qx>, |Ay>, etc. are assigned
                                    such that the Euler rotation is minimal. You
                                    can find the respective eigenvalues as Ax,
                                    EFGx, Ay, etc. in the tables below.
                                    The relation of |Ax>, |Ay>,  etc. to Amin, Amid, etc.
                                    (as printed in the ORCA EPR/NMR CALCULATION Output)
                                    is obtained in the detailed printout.

Euler rotation around          ...  z - y - z
   First rotation              -->  by alpha around z
   Second rotation             -->  by beta around y'
   Third rotation              -->  by gamma around z''
   Positive / Negative angle   -->  clockwise / counterclockwise rotation

Plot EFG-tensors                    (-)
Plot HFC-tensors                    (-)
Detailed Printout                   (-)

-------------------------------------------------------------------------
          Euler rotation of hyperfine tensor to g-tensor
-------------------------------------------------------------------------

-------------------------------------------------------------------
 Atom  |   Alpha    Beta    Gamma   |   Ax       Ay       Az 
       |          [degrees]         |           [MHz]         
-------------------------------------------------------------------
  9H      -90.1     25.5     90.1     -16.04    -7.01   -19.52
 10H      -90.0     28.3     90.0       4.05     4.70     9.55
 12H       90.0     24.0    -90.0     -46.39   -17.34   -71.35
 14H      -79.6     25.0     59.1      57.50    67.13    58.81
 15H      -99.8     24.9    120.0      57.24    66.86    58.55
 17H      -22.7     15.5    -11.6      -3.19    -3.03     3.19
 18H     -155.9     14.5   -169.9      -3.19    -3.03     3.19
 20H      116.7     34.1    -72.0      -0.10     0.02     2.26
 21H      152.8     34.0   -107.9       0.02    -0.10     2.25
 23H     -175.1     27.0    131.2      21.09    20.51    24.23
 24H       -5.0     27.1     49.1      20.98    20.40    24.12
 26H       78.0     38.9    -70.1      -0.98    -0.86     0.99
 27H      102.2     38.9   -109.9      -0.98    -0.86     0.99
 29H      106.5     10.8   -143.2      -0.10    -0.15     0.81
 30H       73.3     10.8    -36.5      -0.10    -0.15     0.81
 32H      103.0     25.7   -107.1      -0.13    -0.10     0.38
 33H       77.0     25.7    -72.7      -0.13    -0.10     0.38
 35H       89.7     18.2    -90.1      -7.91    -2.36   -10.85
 36H       89.7     21.7    -90.1       3.13     2.10     4.70
 37H       90.7     16.4    -89.8      -0.79    -0.81     0.76
 38H       90.9     15.2    -89.9      -0.13    -0.13     0.24
-------------------------------------------------------------------


Maximum memory used throughout the entire EPRNMR-calculation: 162.8 MB

Timings for individual modules:

Sum of individual times         ...     1879.270 sec (=  31.321 min)
GTO integral calculation        ...        4.002 sec (=   0.067 min)   0.2 %
Spin-Orbit-Coupling Matrices    ...        6.606 sec (=   0.110 min)   0.4 %
SCF iterations                  ...       20.650 sec (=   0.344 min)   1.1 %
EPR/NMR calculation             ...     1848.012 sec (=  30.800 min)  98.3 %
                             ****ORCA TERMINATED NORMALLY****
TOTAL RUN TIME: 0 days 0 hours 31 minutes 23 seconds 357 msec
