
                                 *****************
                                 * O   R   C   A *
                                 *****************

                                            #,                                       
                                            ###                                      
                                            ####                                     
                                            #####                                    
                                            ######                                   
                                           ########,                                 
                                     ,,################,,,,,                         
                               ,,#################################,,                 
                          ,,##########################################,,             
                       ,#########################################, ''#####,          
                    ,#############################################,,   '####,        
                  ,##################################################,,,,####,       
                ,###########''''           ''''###############################       
              ,#####''   ,,,,##########,,,,          '''####'''          '####       
            ,##' ,,,,###########################,,,                        '##       
           ' ,,###''''                  '''############,,,                           
         ,,##''                                '''############,,,,        ,,,,,,###''
      ,#''                                            '''#######################'''  
     '                                                          ''''####''''         
             ,#######,   #######,   ,#######,      ##                                
            ,#'     '#,  ##    ##  ,#'     '#,    #''#        ######   ,####,        
            ##       ##  ##   ,#'  ##            #'  '#       #        #'  '#        
            ##       ##  #######   ##           ,######,      #####,   #    #        
            '#,     ,#'  ##    ##  '#,     ,#' ,#      #,         ##   #,  ,#        
             '#######'   ##     ##  '#######'  #'      '#     #####' # '####'        



                  #######################################################
                  #                        -***-                        #
                  #          Department of theory and spectroscopy      #
                  #    Directorship and core code : Frank Neese         #
                  #        Max Planck Institute fuer Kohlenforschung    #
                  #                Kaiser Wilhelm Platz 1               #
                  #                 D-45470 Muelheim/Ruhr               #
                  #                      Germany                        #
                  #                                                     #
                  #                  All rights reserved                #
                  #                        -***-                        #
                  #######################################################


                         Program Version 5.0.4 -  RELEASE  -


 With contributions from (in alphabetic order):
   Daniel Aravena         : Magnetic Suceptibility
   Michael Atanasov       : Ab Initio Ligand Field Theory (pilot matlab implementation)
   Alexander A. Auer      : GIAO ZORA, VPT2 properties, NMR spectrum
   Ute Becker             : Parallelization
   Giovanni Bistoni       : ED, misc. LED, open-shell LED, HFLD
   Martin Brehm           : Molecular dynamics
   Dmytro Bykov           : SCF Hessian
   Vijay G. Chilkuri      : MRCI spin determinant printing, contributions to CSF-ICE
   Dipayan Datta          : RHF DLPNO-CCSD density
   Achintya Kumar Dutta   : EOM-CC, STEOM-CC
   Dmitry Ganyushin       : Spin-Orbit,Spin-Spin,Magnetic field MRCI
   Miquel Garcia          : C-PCM and meta-GGA Hessian, CC/C-PCM, Gaussian charge scheme
   Yang Guo               : DLPNO-NEVPT2, F12-NEVPT2, CIM, IAO-localization
   Andreas Hansen         : Spin unrestricted coupled pair/coupled cluster methods
   Benjamin Helmich-Paris : MC-RPA, TRAH-SCF, COSX integrals
   Lee Huntington         : MR-EOM, pCC
   Robert Izsak           : Overlap fitted RIJCOSX, COSX-SCS-MP3, EOM
   Marcus Kettner         : VPT2
   Christian Kollmar      : KDIIS, OOCD, Brueckner-CCSD(T), CCSD density, CASPT2, CASPT2-K
   Simone Kossmann        : Meta GGA functionals, TD-DFT gradient, OOMP2, MP2 Hessian
   Martin Krupicka        : Initial AUTO-CI
   Lucas Lang             : DCDCAS
   Marvin Lechner         : AUTO-CI (C++ implementation), FIC-MRCC
   Dagmar Lenk            : GEPOL surface, SMD
   Dimitrios Liakos       : Extrapolation schemes; Compound Job, initial MDCI parallelization
   Dimitrios Manganas     : Further ROCIS development; embedding schemes
   Dimitrios Pantazis     : SARC Basis sets
   Anastasios Papadopoulos: AUTO-CI, single reference methods and gradients
   Taras Petrenko         : DFT Hessian,TD-DFT gradient, ASA, ECA, R-Raman, ABS, FL, XAS/XES, NRVS
   Peter Pinski           : DLPNO-MP2, DLPNO-MP2 Gradient
   Christoph Reimann      : Effective Core Potentials
   Marius Retegan         : Local ZFS, SOC
   Christoph Riplinger    : Optimizer, TS searches, QM/MM, DLPNO-CCSD(T), (RO)-DLPNO pert. Triples
   Tobias Risthaus        : Range-separated hybrids, TD-DFT gradient, RPA, STAB
   Michael Roemelt        : Original ROCIS implementation
   Masaaki Saitow         : Open-shell DLPNO-CCSD energy and density
   Barbara Sandhoefer     : DKH picture change effects
   Avijit Sen             : IP-ROCIS
   Kantharuban Sivalingam : CASSCF convergence, NEVPT2, FIC-MRCI
   Bernardo de Souza      : ESD, SOC TD-DFT
   Georgi Stoychev        : AutoAux, RI-MP2 NMR, DLPNO-MP2 response
   Willem Van den Heuvel  : Paramagnetic NMR
   Boris Wezisla          : Elementary symmetry handling
   Frank Wennmohs         : Technical directorship


 We gratefully acknowledge several colleagues who have allowed us to
 interface, adapt or use parts of their codes:
   Stefan Grimme, W. Hujo, H. Kruse, P. Pracht,  : VdW corrections, initial TS optimization,
                  C. Bannwarth, S. Ehlert          DFT functionals, gCP, sTDA/sTD-DF
   Ed Valeev, F. Pavosevic, A. Kumar             : LibInt (2-el integral package), F12 methods
   Garnet Chan, S. Sharma, J. Yang, R. Olivares  : DMRG
   Ulf Ekstrom                                   : XCFun DFT Library
   Mihaly Kallay                                 : mrcc  (arbitrary order and MRCC methods)
   Jiri Pittner, Ondrej Demel                    : Mk-CCSD
   Frank Weinhold                                : gennbo (NPA and NBO analysis)
   Christopher J. Cramer and Donald G. Truhlar   : smd solvation model
   Lars Goerigk                                  : TD-DFT with DH, B97 family of functionals
   V. Asgeirsson, H. Jonsson                     : NEB implementation
   FAccTs GmbH                                   : IRC, NEB, NEB-TS, DLPNO-Multilevel, CI-OPT
                                                   MM, QMMM, 2- and 3-layer-ONIOM, Crystal-QMMM,
                                                   LR-CPCM, SF, NACMEs, symmetry and pop. for TD-DFT,
                                                   nearIR, NL-DFT gradient (VV10), updates on ESD,
                                                   ML-optimized integration grids
   S Lehtola, MJT Oliveira, MAL Marques          : LibXC Library
   Liviu Ungur et al                             : ANISO software


 Your calculation uses the libint2 library for the computation of 2-el integrals
 For citations please refer to: http://libint.valeyev.net

 Your ORCA version has been built with support for libXC version: 5.1.0
 For citations please refer to: https://tddft.org/programs/libxc/

 This ORCA versions uses:
   CBLAS   interface :  Fast vector & matrix operations
   LAPACKE interface :  Fast linear algebra routines
   SCALAPACK package :  Parallel linear algebra routines
   Shared memory     :  Shared parallel matrices
   BLAS/LAPACK       :  OpenBLAS 0.3.15  USE64BITINT DYNAMIC_ARCH NO_AFFINITY SkylakeX SINGLE_THREADED
        Core in use  :  SkylakeX
   Copyright (c) 2011-2014, The OpenBLAS Project




***************************************
The coordinates will be read from file: opt_EPRII.xyz
***************************************


================================================================================

----- Orbital basis set information -----
Your calculation utilizes the basis: EPR-II
   V. Barone, in Recent Advances in Density Functional Methods, Part 1 (ed. D. P. Chong), World Scientific, Singapore, 1995, p. 287.

----- AuxJ basis set information -----
Your calculation utilizes the AutoAux generation procedure.
  G. L. Stoychev, A. A. Auer, F. Neese, J. Chem. Theory Comput. 13, 554 (2017)

----- AuxC basis set information -----
Your calculation utilizes the AutoAux generation procedure.
  G. L. Stoychev, A. A. Auer, F. Neese, J. Chem. Theory Comput. 13, 554 (2017)

----- AuxJK basis set information -----
Your calculation utilizes the AutoAux generation procedure.
  G. L. Stoychev, A. A. Auer, F. Neese, J. Chem. Theory Comput. 13, 554 (2017)

================================================================================
                                        WARNINGS
                       Please study these warnings very carefully!
================================================================================

WARNING: Old DensityContainer found on disk!
         Will remove this file - 
         If you want to keep old densities, please start your calculation with a different basename. 


WARNING: your system is open-shell and RHF/RKS was chosen
  ===> : WILL SWITCH to UHF/UKS


INFO   : the flag for use of the SHARK integral package has been found!

================================================================================
                                       INPUT FILE
================================================================================
NAME = EPRII.inp
|  1> ! B3LYP EPR-II AUTOAUX
|  2> %pal nprocs 16 end
|  3> *XYZFile 0 2 opt_EPRII.xyz
|  4> %EPRNMR
|  5>         GTENSOR   TRUE
|  6>         NUCLEI    = ALL H {SHIFT, AISO, ADIP, AORB}
|  7>         ORI       CenterOfElCharge
|  8> END
|  9> 
| 10>                          ****END OF INPUT****
================================================================================

                       ****************************
                       * Single Point Calculation *
                       ****************************

---------------------------------
CARTESIAN COORDINATES (ANGSTROEM)
---------------------------------
  C      3.996663   -0.031218    0.044752
  C      2.775587    0.000837    0.030796
  C     -2.914081    0.003186   -0.025068
  C      1.345454    0.033471    0.016926
  C      0.632487    1.290820    0.007787
  C     -0.792597    1.215399   -0.006488
  C     -1.477264   -0.004790   -0.010752
  C     -0.762282   -1.245481   -0.000761
  C      0.637393   -1.184004    0.012603
  H     -1.372313    2.131631   -0.014119
  H      1.214679   -2.101341    0.020115
  C      1.314108    2.532726    0.013254
  H      2.400505    2.507570    0.024443
  C      0.642962    3.880406    0.004222
  H     -0.000515    3.974298   -0.885220
  H     -0.037269    3.967932    0.866399
  C      1.638335    5.055380    0.029627
  H      2.271002    4.969828    0.922261
  H      2.308626    4.976572   -0.835798
  C      0.943022    6.426885    0.019914
  H      0.288848    6.543405    0.891447
  H      0.326096    6.549720   -0.877540
  C     -1.528922   -2.557006   -0.004981
  H     -2.208454   -2.560921    0.858404
  H     -2.187947   -2.567439   -0.884119
  C     -0.688976   -3.843704    0.009649
  H     -0.022983   -3.865865   -0.863312
  H     -0.043357   -3.859068    0.897946
  C     -1.561044   -5.112275    0.004530
  H     -2.229709   -5.094934    0.875438
  H     -2.208947   -5.102064   -0.882046
  C     -0.733534   -6.409242    0.019529
  H     -0.099518   -6.461256    0.911868
  H     -0.078322   -6.468033   -0.856930
  C     -4.134149    0.002357   -0.038222
  H      5.061947   -0.064523    0.059320
  H     -5.200021    0.007760   -0.050701
  H      1.673164    7.242384    0.038150
  H     -1.378912   -7.293742    0.015239

----------------------------
CARTESIAN COORDINATES (A.U.)
----------------------------
  NO LB      ZA    FRAG     MASS         X           Y           Z
   0 C     6.0000    0    12.011    7.552599   -0.058993    0.084568
   1 C     6.0000    0    12.011    5.245100    0.001582    0.058196
   2 C     6.0000    0    12.011   -5.506815    0.006020   -0.047371
   3 C     6.0000    0    12.011    2.542539    0.063251    0.031985
   4 C     6.0000    0    12.011    1.195228    2.439297    0.014715
   5 C     6.0000    0    12.011   -1.497790    2.296771   -0.012260
   6 C     6.0000    0    12.011   -2.791624   -0.009052   -0.020318
   7 C     6.0000    0    12.011   -1.440504   -2.353618   -0.001439
   8 C     6.0000    0    12.011    1.204497   -2.237443    0.023816
   9 H     1.0000    0     1.008   -2.593296    4.028198   -0.026680
  10 H     1.0000    0     1.008    2.295410   -3.970960    0.038013
  11 C     6.0000    0    12.011    2.483304    4.786158    0.025046
  12 H     1.0000    0     1.008    4.536297    4.738620    0.046191
  13 C     6.0000    0    12.011    1.215021    7.332904    0.007979
  14 H     1.0000    0     1.008   -0.000973    7.510335   -1.672824
  15 H     1.0000    0     1.008   -0.070429    7.498304    1.637256
  16 C     6.0000    0    12.011    3.096004    9.553283    0.055987
  17 H     1.0000    0     1.008    4.291572    9.391613    1.742820
  18 H     1.0000    0     1.008    4.362671    9.404358   -1.579429
  19 C     6.0000    0    12.011    1.782054   12.145053    0.037633
  20 H     1.0000    0     1.008    0.545843   12.365244    1.684590
  21 H     1.0000    0     1.008    0.616232   12.377178   -1.658310
  22 C     6.0000    0    12.011   -2.889244   -4.832041   -0.009413
  23 H     1.0000    0     1.008   -4.173373   -4.839440    1.622148
  24 H     1.0000    0     1.008   -4.134621   -4.851757   -1.670743
  25 C     6.0000    0    12.011   -1.301977   -7.263548    0.018235
  26 H     1.0000    0     1.008   -0.043431   -7.305427   -1.631422
  27 H     1.0000    0     1.008   -0.081932   -7.292582    1.696872
  28 C     6.0000    0    12.011   -2.949945   -9.660800    0.008561
  29 H     1.0000    0     1.008   -4.213540   -9.628029    1.654338
  30 H     1.0000    0     1.008   -4.174305   -9.641504   -1.666825
  31 C     6.0000    0    12.011   -1.386178  -12.111713    0.036905
  32 H     1.0000    0     1.008   -0.188062  -12.210005    1.723182
  33 H     1.0000    0     1.008   -0.148007  -12.222812   -1.619363
  34 C     6.0000    0    12.011   -7.812409    0.004454   -0.072229
  35 H     1.0000    0     1.008    9.565694   -0.121931    0.112099
  36 H     1.0000    0     1.008   -9.826616    0.014663   -0.095811
  37 H     1.0000    0     1.008    3.161822   13.686122    0.072094
  38 H     1.0000    0     1.008   -2.605766  -13.783174    0.028798

--------------------------------
INTERNAL COORDINATES (ANGSTROEM)
--------------------------------
 C      0   0   0     0.000000000000     0.00000000     0.00000000
 C      1   0   0     1.221576430242     0.00000000     0.00000000
 C      2   1   0     5.689943099326   178.51711767     0.00000000
 C      2   1   3     1.430573235712   179.77989284    23.19637055
 C      4   2   1     1.445451901061   120.86392968   153.34095808
 C      5   4   2     1.427149687360   116.52748954   179.97098264
 C      6   5   4     1.399159881278   122.32704595     0.03718749
 C      7   6   5     1.431995867406   120.74626238     0.00000000
 C      8   7   6     1.401087387361   117.44113599   359.96727521
 H      6   5   4     1.084255419970   119.29500080   180.02202495
 H      9   8   7     1.083893218392   119.66959932   180.02091448
 C      5   4   2     1.416674184244   121.68224410   359.94721924
 H     12   5   4     1.086746065815   117.43447807     0.00000000
 C     12   5   4     1.505576045090   124.76381928   179.99033153
 H     14  12   5     1.101810481512   109.96595428   301.55810803
 H     14  12   5     1.101691123095   109.97806214    57.11299086
 C     14  12   5     1.540122369535   113.24725973   179.33135184
 H     17  14  12     1.097443457533   109.05814311   302.02470108
 H     17  14  12     1.097479889906   109.08300260    57.94480730
 C     17  14  12     1.537719449856   112.83669089   179.98938200
 H     20  17  14     1.095942485534   111.08226576    59.90849485
 H     20  17  14     1.095952103644   111.08002311   300.11003026
 C      8   7   6     1.519162203747   119.73587713   179.97068105
 H     23   8   7     1.098732113939   108.24023581   303.52487957
 H     23   8   7     1.098774457649   108.24603704    56.75323597
 C     23   8   7     1.536657278168   116.55268810   180.13813507
 H     26  23   8     1.098225604791   109.92591433   301.44746960
 H     26  23   8     1.098240113064   109.92239673    58.52082880
 C     26  23   8     1.539415409197   112.35445948   179.97981512
 H     29  26  23     1.098132162614   109.22587794   302.07639332
 H     29  26  23     1.098134794588   109.22354874    57.96660624
 C     29  26  23     1.538545545781   112.95118621   180.01906708
 H     32  29  26     1.095878615420   111.04620626    59.87134547
 H     32  29  26     1.095873959251   111.03898710   300.16163343
 C      3   2   1     1.220138852792   179.91658056   315.00881546
 H      1   2   4     1.065903918514   179.68554556     2.61098194
 H     35   3   7     1.065959519037   179.66646448   196.63195396
 H     20  17  14     1.094749941270   111.26725808   180.01287851
 H     32  29  26     1.094929412634   111.34061978   180.01578417

---------------------------
INTERNAL COORDINATES (A.U.)
---------------------------
 C      0   0   0     0.000000000000     0.00000000     0.00000000
 C      1   0   0     2.308444904810     0.00000000     0.00000000
 C      2   1   0    10.752434175320   178.51711767     0.00000000
 C      2   1   3     2.703391630014   179.77989284    23.19637055
 C      4   2   1     2.731508232762   120.86392968   153.34095808
 C      5   4   2     2.696922061221   116.52748954   179.97098264
 C      6   5   4     2.644028993184   122.32704595     0.03718749
 C      7   6   5     2.706080014304   120.74626238     0.00000000
 C      8   7   6     2.647671451804   117.44113599   359.96727521
 H      6   5   4     2.048945802964   119.29500080   180.02202495
 H      9   8   7     2.048261341175   119.66959932   180.02091448
 C      5   4   2     2.677126229217   121.68224410   359.94721924
 H     12   5   4     2.053652441507   117.43447807     0.00000000
 C     12   5   4     2.845126399012   124.76381928   179.99033153
 H     14  12   5     2.082120061542   109.96595428   301.55810803
 H     14  12   5     2.081894506822   109.97806214    57.11299086
 C     14  12   5     2.910409491146   113.24725973   179.33135184
 H     17  14  12     2.073867582201   109.05814311   302.02470108
 H     17  14  12     2.073936429408   109.08300260    57.94480730
 C     17  14  12     2.905868631033   112.83669089   179.98938200
 H     20  17  14     2.071031156188   111.08226576    59.90849485
 H     20  17  14     2.071049331782   111.08002311   300.11003026
 C      8   7   6     2.870800518086   119.73587713   179.97068105
 H     23   8   7     2.076302789890   108.24023581   303.52487957
 H     23   8   7     2.076382807904   108.24603704    56.75323597
 C     23   8   7     2.903861417434   116.55268810   180.13813507
 H     26  23   8     2.075345626315   109.92591433   301.44746960
 H     26  23   8     2.075373042977   109.92239673    58.52082880
 C     26  23   8     2.909073529720   112.35445948   179.97981512
 H     29  26  23     2.075169046191   109.22587794   302.07639332
 H     29  26  23     2.075174019900   109.22354874    57.96660624
 C     29  26  23     2.907429726091   112.95118621   180.01906708
 H     32  29  26     2.070910459165   111.04620626    59.87134547
 H     32  29  26     2.070901660281   111.03898710   300.16163343
 C      3   2   1     2.305728277134   179.91658056   315.00881546
 H      1   2   4     2.014266491065   179.68554556     2.61098194
 H     35   3   7     2.014371560826   179.66646448   196.63195396
 H     20  17  14     2.068777574127   111.26725808   180.01287851
 H     32  29  26     2.069116725854   111.34061978   180.01578417

---------------------
BASIS SET INFORMATION
---------------------
There are 2 groups of distinct atoms

 Group   1 Type C   : 10s5p1d contracted to 6s2p1d pattern {511111/41/1}
 Group   2 Type H   : 6s1p contracted to 4s1p pattern {3111/1}

Atom   0C    basis set group =>   1
Atom   1C    basis set group =>   1
Atom   2C    basis set group =>   1
Atom   3C    basis set group =>   1
Atom   4C    basis set group =>   1
Atom   5C    basis set group =>   1
Atom   6C    basis set group =>   1
Atom   7C    basis set group =>   1
Atom   8C    basis set group =>   1
Atom   9H    basis set group =>   2
Atom  10H    basis set group =>   2
Atom  11C    basis set group =>   1
Atom  12H    basis set group =>   2
Atom  13C    basis set group =>   1
Atom  14H    basis set group =>   2
Atom  15H    basis set group =>   2
Atom  16C    basis set group =>   1
Atom  17H    basis set group =>   2
Atom  18H    basis set group =>   2
Atom  19C    basis set group =>   1
Atom  20H    basis set group =>   2
Atom  21H    basis set group =>   2
Atom  22C    basis set group =>   1
Atom  23H    basis set group =>   2
Atom  24H    basis set group =>   2
Atom  25C    basis set group =>   1
Atom  26H    basis set group =>   2
Atom  27H    basis set group =>   2
Atom  28C    basis set group =>   1
Atom  29H    basis set group =>   2
Atom  30H    basis set group =>   2
Atom  31C    basis set group =>   1
Atom  32H    basis set group =>   2
Atom  33H    basis set group =>   2
Atom  34C    basis set group =>   1
Atom  35H    basis set group =>   2
Atom  36H    basis set group =>   2
Atom  37H    basis set group =>   2
Atom  38H    basis set group =>   2
---------------------------------
AUXILIARY/J BASIS SET INFORMATION
---------------------------------
There are 2 groups of distinct atoms

 Group   1 Type C   : 17s13p12d2f contracted to 17s13p12d2f pattern {11111111111111111/1111111111111/111111111111/11}
 Group   2 Type H   : 15s6p1d contracted to 15s6p1d pattern {111111111111111/111111/1}

Atom   0C    basis set group =>   1
Atom   1C    basis set group =>   1
Atom   2C    basis set group =>   1
Atom   3C    basis set group =>   1
Atom   4C    basis set group =>   1
Atom   5C    basis set group =>   1
Atom   6C    basis set group =>   1
Atom   7C    basis set group =>   1
Atom   8C    basis set group =>   1
Atom   9H    basis set group =>   2
Atom  10H    basis set group =>   2
Atom  11C    basis set group =>   1
Atom  12H    basis set group =>   2
Atom  13C    basis set group =>   1
Atom  14H    basis set group =>   2
Atom  15H    basis set group =>   2
Atom  16C    basis set group =>   1
Atom  17H    basis set group =>   2
Atom  18H    basis set group =>   2
Atom  19C    basis set group =>   1
Atom  20H    basis set group =>   2
Atom  21H    basis set group =>   2
Atom  22C    basis set group =>   1
Atom  23H    basis set group =>   2
Atom  24H    basis set group =>   2
Atom  25C    basis set group =>   1
Atom  26H    basis set group =>   2
Atom  27H    basis set group =>   2
Atom  28C    basis set group =>   1
Atom  29H    basis set group =>   2
Atom  30H    basis set group =>   2
Atom  31C    basis set group =>   1
Atom  32H    basis set group =>   2
Atom  33H    basis set group =>   2
Atom  34C    basis set group =>   1
Atom  35H    basis set group =>   2
Atom  36H    basis set group =>   2
Atom  37H    basis set group =>   2
Atom  38H    basis set group =>   2
---------------------------------
AUXILIARY/C BASIS SET INFORMATION
---------------------------------
There are 2 groups of distinct atoms

 Group   1 Type C   : 17s13p12d2f contracted to 17s13p12d2f pattern {11111111111111111/1111111111111/111111111111/11}
 Group   2 Type H   : 15s6p1d contracted to 15s6p1d pattern {111111111111111/111111/1}

Atom   0C    basis set group =>   1
Atom   1C    basis set group =>   1
Atom   2C    basis set group =>   1
Atom   3C    basis set group =>   1
Atom   4C    basis set group =>   1
Atom   5C    basis set group =>   1
Atom   6C    basis set group =>   1
Atom   7C    basis set group =>   1
Atom   8C    basis set group =>   1
Atom   9H    basis set group =>   2
Atom  10H    basis set group =>   2
Atom  11C    basis set group =>   1
Atom  12H    basis set group =>   2
Atom  13C    basis set group =>   1
Atom  14H    basis set group =>   2
Atom  15H    basis set group =>   2
Atom  16C    basis set group =>   1
Atom  17H    basis set group =>   2
Atom  18H    basis set group =>   2
Atom  19C    basis set group =>   1
Atom  20H    basis set group =>   2
Atom  21H    basis set group =>   2
Atom  22C    basis set group =>   1
Atom  23H    basis set group =>   2
Atom  24H    basis set group =>   2
Atom  25C    basis set group =>   1
Atom  26H    basis set group =>   2
Atom  27H    basis set group =>   2
Atom  28C    basis set group =>   1
Atom  29H    basis set group =>   2
Atom  30H    basis set group =>   2
Atom  31C    basis set group =>   1
Atom  32H    basis set group =>   2
Atom  33H    basis set group =>   2
Atom  34C    basis set group =>   1
Atom  35H    basis set group =>   2
Atom  36H    basis set group =>   2
Atom  37H    basis set group =>   2
Atom  38H    basis set group =>   2
----------------------------------
AUXILIARY/JK BASIS SET INFORMATION
----------------------------------
There are 2 groups of distinct atoms

 Group   1 Type C   : 17s13p12d2f contracted to 17s13p12d2f pattern {11111111111111111/1111111111111/111111111111/11}
 Group   2 Type H   : 15s6p1d contracted to 15s6p1d pattern {111111111111111/111111/1}

Atom   0C    basis set group =>   1
Atom   1C    basis set group =>   1
Atom   2C    basis set group =>   1
Atom   3C    basis set group =>   1
Atom   4C    basis set group =>   1
Atom   5C    basis set group =>   1
Atom   6C    basis set group =>   1
Atom   7C    basis set group =>   1
Atom   8C    basis set group =>   1
Atom   9H    basis set group =>   2
Atom  10H    basis set group =>   2
Atom  11C    basis set group =>   1
Atom  12H    basis set group =>   2
Atom  13C    basis set group =>   1
Atom  14H    basis set group =>   2
Atom  15H    basis set group =>   2
Atom  16C    basis set group =>   1
Atom  17H    basis set group =>   2
Atom  18H    basis set group =>   2
Atom  19C    basis set group =>   1
Atom  20H    basis set group =>   2
Atom  21H    basis set group =>   2
Atom  22C    basis set group =>   1
Atom  23H    basis set group =>   2
Atom  24H    basis set group =>   2
Atom  25C    basis set group =>   1
Atom  26H    basis set group =>   2
Atom  27H    basis set group =>   2
Atom  28C    basis set group =>   1
Atom  29H    basis set group =>   2
Atom  30H    basis set group =>   2
Atom  31C    basis set group =>   1
Atom  32H    basis set group =>   2
Atom  33H    basis set group =>   2
Atom  34C    basis set group =>   1
Atom  35H    basis set group =>   2
Atom  36H    basis set group =>   2
Atom  37H    basis set group =>   2
Atom  38H    basis set group =>   2

Checking for AutoStart:
The File: EPRII.gbw exists
Trying to determine its content:
     ... Fine, the file contains calculation information
     ... Fine, the calculation information was read
     ... Fine, the file contains a basis set
     ... Fine, the basis set was read
     ... Fine, the file contains a geometry
     ... Fine, the geometry was read
     ... Fine, the file contains a set of orbitals
     ... Fine, the orbitals can be read
     => possible old guess file was deleted
     => GBW file was renamed to GES file
     => GES file is set as startup file
     => Guess is set to MORead
     ... now leaving AutoStart



           ************************************************************
           *        Program running with 16 parallel MPI-processes    *
           *              working on a common directory               *
           ************************************************************
------------------------------------------------------------------------------
                           ORCA GTO INTEGRAL CALCULATION
                           -- RI-GTO INTEGRALS CHOSEN --
------------------------------------------------------------------------------
------------------------------------------------------------------------------
                   ___                                                        
                  /   \      - P O W E R E D   B Y -                         
                 /     \                                                     
                 |  |  |   _    _      __       _____    __    __             
                 |  |  |  | |  | |    /  \     |  _  \  |  |  /  |          
                  \  \/   | |  | |   /    \    | | | |  |  | /  /          
                 / \  \   | |__| |  /  /\  \   | |_| |  |  |/  /          
                |  |  |   |  __  | /  /__\  \  |    /   |      \           
                |  |  |   | |  | | |   __   |  |    \   |  |\   \          
                \     /   | |  | | |  |  |  |  | |\  \  |  | \   \       
                 \___/    |_|  |_| |__|  |__|  |_| \__\ |__|  \__/        
                                                                              
                      - O R C A' S   B I G   F R I E N D -                    
                                      &                                       
                       - I N T E G R A L  F E E D E R -                       
                                                                              
 v1 FN, 2020, v2 2021                                                         
------------------------------------------------------------------------------


Reading SHARK input file EPRII.SHARKINP.tmp ... ok
----------------------
SHARK INTEGRAL PACKAGE
----------------------

Number of atoms                             ...     39
Number of basis functions                   ...    453
Number of shells                            ...    267
Maximum angular momentum                    ...      2
Integral batch strategy                     ... SHARK/LIBINT Hybrid
RI-J (if used) integral strategy            ... SPLIT-RIJ (Revised 2003 algorithm where possible)
Printlevel                                  ...      1
Contraction scheme used                     ... SEGMENTED contraction
Coulomb Range Separation                    ... NOT USED
Exchange Range Separation                   ... NOT USED
Finite Nucleus Model                        ... NOT USED
Auxiliary Coulomb fitting basis             ... AVAILABLE
   # of basis functions in Aux-J            ...   3138
   # of shells in Aux-J                     ...   1254
   Maximum angular momentum in Aux-J        ...      3
Auxiliary J/K fitting basis                 ... AVAILABLE
   # of basis functions in Aux-JK           ...   3138
   # of shells in Aux-JK                    ...   1254
   Maximum angular momentum in Aux-JK       ...      3
Auxiliary Correlation fitting basis         ... AVAILABLE
   # of basis functions in Aux-C            ...   3138
   # of shells in Aux-C                     ...   1254
   Maximum angular momentum in Aux-C        ...      3
Auxiliary 'external' fitting basis          ... NOT available
Integral threshold                          ...     1.000000e-10
Primitive cut-off                           ...     1.000000e-11
Primitive pair pre-selection threshold      ...     1.000000e-11

Calculating pre-screening integrals         ... done (  0.0 sec) Dimension = 267
Organizing shell pair data                  ... done (  0.1 sec)
Shell pair information
Total number of shell pairs                 ...     35778
Shell pairs after pre-screening             ...     20476
Total number of primitive shell pairs       ...     95181
Primitive shell pairs kept                  ...     39148
          la=0 lb=0:   9367 shell pairs
          la=1 lb=0:   7078 shell pairs
          la=1 lb=1:   1236 shell pairs
          la=2 lb=0:   1950 shell pairs
          la=2 lb=1:    724 shell pairs
          la=2 lb=2:    121 shell pairs

Calculating one electron integrals          ... done (  0.0 sec)
Calculating RI/J V-Matrix + Cholesky decomp.... done (  0.6 sec)
Calculating RI/JK V-Matrix + Cholesky decomp... done (  0.6 sec)
Calculating RI/C V-Matrix + Cholesky decomp.... done (  0.6 sec)
Calculating Nuclear repulsion               ... done (  0.0 sec) ENN=   1143.106462458821 Eh

SHARK setup successfully completed in   2.3 seconds

Maximum memory used throughout the entire GTOINT-calculation: 39.5 MB


           ************************************************************
           *        Program running with 16 parallel MPI-processes    *
           *              working on a common directory               *
           ************************************************************
-------------------------------------------------------------------------------
                                 ORCA SCF
-------------------------------------------------------------------------------

------------
SCF SETTINGS
------------
Hamiltonian:
 Density Functional     Method          .... DFT(GTOs)
 Exchange Functional    Exchange        .... B88
   X-Alpha parameter    XAlpha          ....  0.666667
   Becke's b parameter  XBeta           ....  0.004200
 Correlation Functional Correlation     .... LYP
 LDA part of GGA corr.  LDAOpt          .... VWN-5
 Gradients option       PostSCFGGA      .... off
 Hybrid DFT is turned on
   Fraction HF Exchange ScalHFX         ....  0.200000
   Scaling of DF-GGA-X  ScalDFX         ....  0.720000
   Scaling of DF-GGA-C  ScalDFC         ....  0.810000
   Scaling of DF-LDA-C  ScalLDAC        ....  1.000000
   Perturbative correction              ....  0.000000
   Density functional embedding theory  .... OFF
   NL short-range parameter             ....  4.800000
 RI-approximation to the Coulomb term is turned on
   Number of AuxJ basis functions       .... 3138
   RIJ-COSX (HFX calculated with COS-X)).... on


General Settings:
 Integral files         IntName         .... EPRII
 Hartree-Fock type      HFTyp           .... UHF
 Total Charge           Charge          ....    0
 Multiplicity           Mult            ....    2
 Number of Electrons    NEL             ....  129
 Basis Dimension        Dim             ....  453
 Nuclear Repulsion      ENuc            ....   1143.1064624588 Eh

Convergence Acceleration:
 DIIS                   CNVDIIS         .... on
   Start iteration      DIISMaxIt       ....    12
   Startup error        DIISStart       ....  0.200000
   # of expansion vecs  DIISMaxEq       ....     5
   Bias factor          DIISBfac        ....   1.050
   Max. coefficient     DIISMaxC        ....  10.000
 Trust-Rad. Augm. Hess. CNVTRAH         .... auto
   Auto Start mean grad. ratio tolernc. ....  1.125000
   Auto Start start iteration           ....     1
   Auto Start num. interpolation iter.  ....    10
   Max. Number of Micro iterations      ....    16
   Max. Number of Macro iterations      .... Maxiter - #DIIS iter
   Number of Davidson start vectors     ....     2
   Converg. threshold I  (grad. norm)   ....   5.000e-05
   Converg. threshold II (energy diff.) ....   1.000e-06
   Grad. Scal. Fac. for Micro threshold ....   0.100
   Minimum threshold for Micro iter.    ....   0.010
   NR start threshold (gradient norm)   ....   0.001
   Initial trust radius                 ....   0.400
   Minimum AH scaling param. (alpha)    ....   1.000
   Maximum AH scaling param. (alpha)    .... 1000.000
   Orbital update algorithm             .... Taylor
   White noise on init. David. guess    .... on
   Maximum white noise                  ....   0.010
   Quad. conv. algorithm                .... NR
 SOSCF                  CNVSOSCF        .... off
 Level Shifting         CNVShift        .... on
   Level shift para.    LevelShift      ....    0.2500
   Turn off err/grad.   ShiftErr        ....    0.0010
 Zerner damping         CNVZerner       .... off
 Static damping         CNVDamp         .... on
   Fraction old density DampFac         ....    0.7000
   Max. Damping (<1)    DampMax         ....    0.9800
   Min. Damping (>=0)   DampMin         ....    0.0000
   Turn off err/grad.   DampErr         ....    0.1000
 Fernandez-Rico         CNVRico         .... off

SCF Procedure:
 Maximum # iterations   MaxIter         ....   125
 SCF integral mode      SCFMode         .... Direct
   Integral package                     .... SHARK and LIBINT hybrid scheme
 Reset frequency        DirectResetFreq ....    20
 Integral Threshold     Thresh          ....  1.000e-10 Eh
 Primitive CutOff       TCut            ....  1.000e-11 Eh

Convergence Tolerance:
 Convergence Check Mode ConvCheckMode   .... Total+1el-Energy
 Convergence forced     ConvForced      .... 0
 Energy Change          TolE            ....  1.000e-06 Eh
 1-El. energy change                    ....  1.000e-03 Eh
 DIIS Error             TolErr          ....  1.000e-06


Diagonalization of the overlap matrix:
Smallest eigenvalue                        ... 1.359e-04
Time for diagonalization                   ...    0.052 sec
Threshold for overlap eigenvalues          ... 1.000e-08
Number of eigenvalues below threshold      ... 0
Time for construction of square roots      ...    0.044 sec
Total time needed                          ...    0.097 sec

---------------------
INITIAL GUESS: MOREAD
---------------------
Guess MOs are being read from file: EPRII.ges
Input geometry compatible with but different from current geometry
Input basis set matches current basis set (good)
MOs were renormalized
MOs were reorthogonalized (Cholesky)
                      ------------------
                      INITIAL GUESS DONE (   0.2 sec)
                      ------------------
-------------------
DFT GRID GENERATION
-------------------

General Integration Accuracy     IntAcc      ... 4.388
Radial Grid Type                 RadialGrid  ... OptM3 with GC (2021)
Angular Grid (max. ang.)         AngularGrid ... 4 (Lebedev-302)
Angular grid pruning method      GridPruning ... 4 (adaptive)
Weight generation scheme         WeightScheme... Becke
Basis function cutoff            BFCut       ... 1.0000e-10
Integration weight cutoff        WCut        ... 1.0000e-14
Angular grids for H and He will be reduced by one unit
Partially contracted basis set               ... off
Rotationally invariant grid construction     ... off

Total number of grid points                  ...   174689
Total number of batches                      ...     2748
Average number of points per batch           ...       63
Average number of grid points per atom       ...     4479
Time for grid setup =    0.939 sec

--------------------
COSX GRID GENERATION
--------------------

GRIDX 1
-------
General Integration Accuracy     IntAcc      ... 3.816
Radial Grid Type                 RadialGrid  ... OptM3 with GC (2021)
Angular Grid (max. ang.)         AngularGrid ... 1 (Lebedev-50)
Angular grid pruning method      GridPruning ... 4 (adaptive)
Weight generation scheme         WeightScheme... Becke
Basis function cutoff            BFCut       ... 1.0000e-10
Integration weight cutoff        WCut        ... 1.0000e-14
Angular grids for H and He will be reduced by one unit
Partially contracted basis set               ... on
Rotationally invariant grid construction     ... off

Total number of grid points                  ...    22269
Total number of batches                      ...      371
Average number of points per batch           ...       60
Average number of grid points per atom       ...      571
UseSFitting                                  ... on

GRIDX 2
-------
General Integration Accuracy     IntAcc      ... 4.020
Radial Grid Type                 RadialGrid  ... OptM3 with GC (2021)
Angular Grid (max. ang.)         AngularGrid ... 2 (Lebedev-110)
Angular grid pruning method      GridPruning ... 4 (adaptive)
Weight generation scheme         WeightScheme... Becke
Basis function cutoff            BFCut       ... 1.0000e-10
Integration weight cutoff        WCut        ... 1.0000e-14
Angular grids for H and He will be reduced by one unit
Partially contracted basis set               ... on
Rotationally invariant grid construction     ... off

Total number of grid points                  ...    47325
Total number of batches                      ...      762
Average number of points per batch           ...       62
Average number of grid points per atom       ...     1213
UseSFitting                                  ... on

GRIDX 3
-------
General Integration Accuracy     IntAcc      ... 4.338
Radial Grid Type                 RadialGrid  ... OptM3 with GC (2021)
Angular Grid (max. ang.)         AngularGrid ... 3 (Lebedev-194)
Angular grid pruning method      GridPruning ... 4 (adaptive)
Weight generation scheme         WeightScheme... Becke
Basis function cutoff            BFCut       ... 1.0000e-10
Integration weight cutoff        WCut        ... 1.0000e-14
Angular grids for H and He will be reduced by one unit
Partially contracted basis set               ... on
Rotationally invariant grid construction     ... off

Total number of grid points                  ...   103512
Total number of batches                      ...     1638
Average number of points per batch           ...       63
Average number of grid points per atom       ...     2654
UseSFitting                                  ... on

Time for X-Grid setup             =    1.743 sec

--------------
SCF ITERATIONS
--------------
ITER       Energy         Delta-E        Max-DP      RMS-DP      [F,P]     Damp
               ***  Starting incremental Fock matrix formation  ***
  0   -698.0285087568   0.000000000000 0.00297492  0.00004641  0.0034223 0.7000
  1   -698.0286911276  -0.000182370881 0.00274021  0.00003974  0.0026999 0.7000
                               ***Turning on DIIS***
  2   -698.0288234505  -0.000132322833 0.00720077  0.00009766  0.0020237 0.0000
  3   -698.0291378798  -0.000314429281 0.00067876  0.00001264  0.0003318 0.0000
               *** Restarting incremental Fock matrix formation ***
                                   *** Resetting DIIS ***
  4   -698.0291332938   0.000004585975 0.00092947  0.00001445  0.0003921 0.0000
  5   -698.0291286513   0.000004642427 0.00046567  0.00000790  0.0004618 0.0000
  6   -698.0291395272  -0.000010875885 0.00025054  0.00000188  0.0002365 0.0000
  7   -698.0291396725  -0.000000145232 0.00012987  0.00000108  0.0001749 0.0000
                 **** Energy Check signals convergence ****

               *****************************************************
               *                     SUCCESS                       *
               *           SCF CONVERGED AFTER   8 CYCLES          *
               *****************************************************

Old exchange energy                            =    -20.109185151 Eh
New exchange energy                            =    -20.109163140 Eh
Exchange energy change after final integration =      0.000022011 Eh
Total energy after final integration           =   -698.029117917 Eh
Final COS-X integration done in                =     5.834 sec

----------------
TOTAL SCF ENERGY
----------------

Total Energy       :         -698.02911792 Eh          -18994.33795 eV

Components:
Nuclear Repulsion  :         1143.10646246 Eh           31105.50822 eV
Electronic Energy  :        -1841.13558038 Eh          -50099.84617 eV
One Electron Energy:        -3209.23106415 Eh          -87327.61691 eV
Two Electron Energy:         1368.09548377 Eh           37227.77074 eV
Max COSX asymmetry :            0.00000321 Eh               0.00009 eV

Virial components:
Potential Energy   :        -1390.49954620 Eh          -37837.41627 eV
Kinetic Energy     :          692.47042828 Eh           18843.07832 eV
Virial Ratio       :            2.00802733


DFT components:
N(Alpha)           :       65.000101585234 electrons
N(Beta)            :       64.000089616978 electrons
N(Total)           :      129.000191202212 electrons
E(X)               :      -79.759767835510 Eh       
E(C)               :       -4.991016269191 Eh       
E(XC)              :      -84.750784104701 Eh       
DFET-embed. en.    :        0.000000000000 Eh       

---------------
SCF CONVERGENCE
---------------

  Last Energy change         ...   -2.5561e-07  Tolerance :   1.0000e-06
  Last MAX-Density change    ...    0.0000e+00  Tolerance :   1.0000e-05
  Last RMS-Density change    ...    0.0000e+00  Tolerance :   1.0000e-06
  Last DIIS Error            ...    3.3680e-05  Tolerance :   1.0000e-06

             **** THE GBW FILE WAS UPDATED (EPRII.gbw) ****
             **** DENSITY EPRII.scfp WAS UPDATED ****
             **** ENERGY FILE WAS UPDATED (EPRII.en.tmp) ****
----------------------
UHF SPIN CONTAMINATION
----------------------

Warning: in a DFT calculation there is little theoretical justification to 
         calculate <S**2> as in Hartree-Fock theory. We will do it anyways
         but you should keep in mind that the values have only limited relevance

Expectation value of <S**2>     :     0.786675
Ideal value S*(S+1) for S=0.5   :     0.750000
Deviation                       :     0.036675

             **** THE GBW FILE WAS UPDATED (EPRII.gbw) ****
             **** DENSITY EPRII.scfp WAS UPDATED ****
----------------
ORBITAL ENERGIES
----------------
                 SPIN UP ORBITALS
  NO   OCC          E(Eh)            E(eV) 
   0   1.0000     -10.226964      -278.2898 
   1   1.0000     -10.225191      -278.2416 
   2   1.0000     -10.214700      -277.9561 
   3   1.0000     -10.211717      -277.8750 
   4   1.0000     -10.208207      -277.7794 
   5   1.0000     -10.206274      -277.7268 
   6   1.0000     -10.204743      -277.6852 
   7   1.0000     -10.199757      -277.5495 
   8   1.0000     -10.199710      -277.5482 
   9   1.0000     -10.198666      -277.5198 
  10   1.0000     -10.198185      -277.5067 
  11   1.0000     -10.189714      -277.2762 
  12   1.0000     -10.187885      -277.2264 
  13   1.0000     -10.184290      -277.1286 
  14   1.0000     -10.181855      -277.0624 
  15   1.0000     -10.181273      -277.0465 
  16   1.0000     -10.173319      -276.8301 
  17   1.0000     -10.171071      -276.7689 
  18   1.0000      -0.874252       -23.7896 
  19   1.0000      -0.819466       -22.2988 
  20   1.0000      -0.797463       -21.7001 
  21   1.0000      -0.794170       -21.6105 
  22   1.0000      -0.767263       -20.8783 
  23   1.0000      -0.753657       -20.5081 
  24   1.0000      -0.730374       -19.8745 
  25   1.0000      -0.722603       -19.6630 
  26   1.0000      -0.697820       -18.9887 
  27   1.0000      -0.657279       -17.8855 
  28   1.0000      -0.640777       -17.4364 
  29   1.0000      -0.618551       -16.8316 
  30   1.0000      -0.595631       -16.2080 
  31   1.0000      -0.582071       -15.8390 
  32   1.0000      -0.564831       -15.3698 
  33   1.0000      -0.545198       -14.8356 
  34   1.0000      -0.527289       -14.3483 
  35   1.0000      -0.500784       -13.6270 
  36   1.0000      -0.487986       -13.2788 
  37   1.0000      -0.478095       -13.0096 
  38   1.0000      -0.471759       -12.8372 
  39   1.0000      -0.464133       -12.6297 
  40   1.0000      -0.434962       -11.8359 
  41   1.0000      -0.430107       -11.7038 
  42   1.0000      -0.426079       -11.5942 
  43   1.0000      -0.423419       -11.5218 
  44   1.0000      -0.412547       -11.2260 
  45   1.0000      -0.400266       -10.8918 
  46   1.0000      -0.397741       -10.8231 
  47   1.0000      -0.382179       -10.3996 
  48   1.0000      -0.380130       -10.3439 
  49   1.0000      -0.365706        -9.9514 
  50   1.0000      -0.357959        -9.7405 
  51   1.0000      -0.356808        -9.7092 
  52   1.0000      -0.339235        -9.2311 
  53   1.0000      -0.333808        -9.0834 
  54   1.0000      -0.333026        -9.0621 
  55   1.0000      -0.332499        -9.0478 
  56   1.0000      -0.327705        -8.9173 
  57   1.0000      -0.323167        -8.7938 
  58   1.0000      -0.323049        -8.7906 
  59   1.0000      -0.286655        -7.8003 
  60   1.0000      -0.278048        -7.5661 
  61   1.0000      -0.276510        -7.5242 
  62   1.0000      -0.272061        -7.4032 
  63   1.0000      -0.232599        -6.3293 
  64   1.0000      -0.175971        -4.7884 
  65   0.0000      -0.052042        -1.4161 
  66   0.0000       0.007178         0.1953 
  67   0.0000       0.018618         0.5066 
  68   0.0000       0.021379         0.5818 
  69   0.0000       0.024587         0.6690 
  70   0.0000       0.029995         0.8162 
  71   0.0000       0.036279         0.9872 
  72   0.0000       0.038552         1.0491 
  73   0.0000       0.040064         1.0902 
  74   0.0000       0.045482         1.2376 
  75   0.0000       0.045677         1.2429 
  76   0.0000       0.049554         1.3484 
  77   0.0000       0.050719         1.3801 
  78   0.0000       0.073626         2.0035 
  79   0.0000       0.079140         2.1535 
  80   0.0000       0.087987         2.3942 
  81   0.0000       0.097871         2.6632 
  82   0.0000       0.105993         2.8842 
  83   0.0000       0.108803         2.9607 
  84   0.0000       0.123722         3.3666 
  85   0.0000       0.137146         3.7319 
  86   0.0000       0.149780         4.0757 
  87   0.0000       0.157083         4.2745 
  88   0.0000       0.157311         4.2806 
  89   0.0000       0.161265         4.3882 
  90   0.0000       0.174557         4.7499 
  91   0.0000       0.184306         5.0152 
  92   0.0000       0.185628         5.0512 
  93   0.0000       0.191012         5.1977 
  94   0.0000       0.193894         5.2761 
  95   0.0000       0.199335         5.4242 
  96   0.0000       0.200257         5.4493 
  97   0.0000       0.201544         5.4843 
  98   0.0000       0.202079         5.4989 
  99   0.0000       0.205773         5.5994 
 100   0.0000       0.217971         5.9313 
 101   0.0000       0.218240         5.9386 
 102   0.0000       0.221053         6.0152 
 103   0.0000       0.232558         6.3282 
 104   0.0000       0.237497         6.4626 
 105   0.0000       0.246942         6.7196 
 106   0.0000       0.250712         6.8222 
 107   0.0000       0.253030         6.8853 
 108   0.0000       0.258983         7.0473 
 109   0.0000       0.259587         7.0637 
 110   0.0000       0.267235         7.2718 
 111   0.0000       0.273117         7.4319 
 112   0.0000       0.276142         7.5142 
 113   0.0000       0.280256         7.6261 
 114   0.0000       0.284065         7.7298 
 115   0.0000       0.288946         7.8626 
 116   0.0000       0.296479         8.0676 
 117   0.0000       0.299104         8.1390 
 118   0.0000       0.299405         8.1472 
 119   0.0000       0.300771         8.1844 
 120   0.0000       0.310092         8.4380 
 121   0.0000       0.313533         8.5317 
 122   0.0000       0.316732         8.6187 
 123   0.0000       0.321036         8.7358 
 124   0.0000       0.324904         8.8411 
 125   0.0000       0.329560         8.9678 
 126   0.0000       0.333772         9.0824 
 127   0.0000       0.337134         9.1739 
 128   0.0000       0.349578         9.5125 
 129   0.0000       0.351583         9.5671 
 130   0.0000       0.358470         9.7545 
 131   0.0000       0.361440         9.8353 
 132   0.0000       0.364205         9.9105 
 133   0.0000       0.367799        10.0083 
 134   0.0000       0.378108        10.2889 
 135   0.0000       0.380520        10.3545 
 136   0.0000       0.382373        10.4049 
 137   0.0000       0.394012        10.7216 
 138   0.0000       0.397621        10.8198 
 139   0.0000       0.398768        10.8510 
 140   0.0000       0.408193        11.1075 
 141   0.0000       0.408480        11.1153 
 142   0.0000       0.416530        11.3344 
 143   0.0000       0.422035        11.4842 
 144   0.0000       0.435314        11.8455 
 145   0.0000       0.441469        12.0130 
 146   0.0000       0.441650        12.0179 
 147   0.0000       0.447423        12.1750 
 148   0.0000       0.456066        12.4102 
 149   0.0000       0.463366        12.6088 
 150   0.0000       0.472461        12.8563 
 151   0.0000       0.477725        12.9995 
 152   0.0000       0.484083        13.1726 
 153   0.0000       0.496726        13.5166 
 154   0.0000       0.505428        13.7534 
 155   0.0000       0.506957        13.7950 
 156   0.0000       0.516125        14.0445 
 157   0.0000       0.520231        14.1562 
 158   0.0000       0.533027        14.5044 
 159   0.0000       0.540076        14.6962 
 160   0.0000       0.543518        14.7899 
 161   0.0000       0.550227        14.9724 
 162   0.0000       0.551135        14.9971 
 163   0.0000       0.561964        15.2918 
 164   0.0000       0.569205        15.4889 
 165   0.0000       0.584028        15.8922 
 166   0.0000       0.591369        16.0920 
 167   0.0000       0.591729        16.1018 
 168   0.0000       0.593440        16.1483 
 169   0.0000       0.602560        16.3965 
 170   0.0000       0.623497        16.9662 
 171   0.0000       0.632950        17.2234 
 172   0.0000       0.653708        17.7883 
 173   0.0000       0.666138        18.1265 
 174   0.0000       0.673139        18.3170 
 175   0.0000       0.705832        19.2067 
 176   0.0000       0.728377        19.8201 
 177   0.0000       0.773685        21.0530 
 178   0.0000       0.783278        21.3141 
 179   0.0000       0.788870        21.4662 
 180   0.0000       0.794781        21.6271 
 181   0.0000       0.808758        22.0074 
 182   0.0000       0.821000        22.3405 
 183   0.0000       0.838027        22.8039 
 184   0.0000       0.840695        22.8765 
 185   0.0000       0.847904        23.0727 
 186   0.0000       0.857371        23.3302 
 187   0.0000       0.861186        23.4341 
 188   0.0000       0.864212        23.5164 
 189   0.0000       0.878841        23.9145 
 190   0.0000       0.879828        23.9413 
 191   0.0000       0.885282        24.0897 
 192   0.0000       0.897111        24.4116 
 193   0.0000       0.905041        24.6274 
 194   0.0000       0.913371        24.8541 
 195   0.0000       0.915274        24.9059 
 196   0.0000       0.922036        25.0899 
 197   0.0000       0.925964        25.1968 
 198   0.0000       0.928608        25.2687 
 199   0.0000       0.936659        25.4878 
 200   0.0000       0.945692        25.7336 
 201   0.0000       0.956954        26.0401 
 202   0.0000       0.958609        26.0851 
 203   0.0000       0.968204        26.3462 
 204   0.0000       0.970329        26.4040 
 205   0.0000       0.977326        26.5944 
 206   0.0000       0.980970        26.6935 
 207   0.0000       0.985425        26.8148 
 208   0.0000       0.997039        27.1308 
 209   0.0000       1.001849        27.2617 
 210   0.0000       1.009654        27.4741 
 211   0.0000       1.026050        27.9202 
 212   0.0000       1.030361        28.0375 
 213   0.0000       1.037889        28.2424 
 214   0.0000       1.039067        28.2745 
 215   0.0000       1.045946        28.4616 
 216   0.0000       1.050642        28.5894 
 217   0.0000       1.058353        28.7992 
 218   0.0000       1.062232        28.9048 
 219   0.0000       1.084693        29.5160 
 220   0.0000       1.101265        29.9669 
 221   0.0000       1.107696        30.1419 
 222   0.0000       1.110703        30.2238 
 223   0.0000       1.118751        30.4428 
 224   0.0000       1.127923        30.6923 
 225   0.0000       1.138140        30.9704 
 226   0.0000       1.148483        31.2518 
 227   0.0000       1.161079        31.5946 
 228   0.0000       1.169427        31.8217 
 229   0.0000       1.177592        32.0439 
 230   0.0000       1.181560        32.1519 
 231   0.0000       1.186892        32.2970 
 232   0.0000       1.201548        32.6958 
 233   0.0000       1.203906        32.7600 
 234   0.0000       1.218944        33.1691 
 235   0.0000       1.225517        33.3480 
 236   0.0000       1.235596        33.6223 
 237   0.0000       1.238629        33.7048 
 238   0.0000       1.250654        34.0320 
 239   0.0000       1.252904        34.0932 
 240   0.0000       1.257538        34.2193 
 241   0.0000       1.259536        34.2737 
 242   0.0000       1.276068        34.7236 
 243   0.0000       1.284463        34.9520 
 244   0.0000       1.303541        35.4712 
 245   0.0000       1.316892        35.8345 
 246   0.0000       1.319834        35.9145 
 247   0.0000       1.330888        36.2153 
 248   0.0000       1.344369        36.5821 
 249   0.0000       1.351100        36.7653 
 250   0.0000       1.369685        37.2710 
 251   0.0000       1.376675        37.4612 
 252   0.0000       1.388541        37.7841 
 253   0.0000       1.396608        38.0036 
 254   0.0000       1.398318        38.0502 
 255   0.0000       1.424568        38.7645 
 256   0.0000       1.428380        38.8682 
 257   0.0000       1.430284        38.9200 
 258   0.0000       1.434309        39.0295 
 259   0.0000       1.440335        39.1935 
 260   0.0000       1.446162        39.3521 
 261   0.0000       1.464130        39.8410 
 262   0.0000       1.466292        39.8998 
 263   0.0000       1.478744        40.2387 
 264   0.0000       1.498925        40.7878 
 265   0.0000       1.506610        40.9970 
 266   0.0000       1.512488        41.1569 
 267   0.0000       1.514416        41.2094 
 268   0.0000       1.519221        41.3401 
 269   0.0000       1.547709        42.1153 
 270   0.0000       1.559650        42.4402 
 271   0.0000       1.560869        42.4734 
 272   0.0000       1.563120        42.5347 
 273   0.0000       1.573084        42.8058 
 274   0.0000       1.587623        43.2014 
 275   0.0000       1.589304        43.2472 
 276   0.0000       1.590220        43.2721 
 277   0.0000       1.599887        43.5351 
 278   0.0000       1.604258        43.6541 
 279   0.0000       1.611452        43.8498 
 280   0.0000       1.624582        44.2071 
 281   0.0000       1.626624        44.2627 
 282   0.0000       1.635035        44.4916 
 283   0.0000       1.656903        45.0866 
 284   0.0000       1.658798        45.1382 
 285   0.0000       1.673600        45.5410 
 286   0.0000       1.684313        45.8325 
 287   0.0000       1.690126        45.9907 
 288   0.0000       1.696976        46.1771 
 289   0.0000       1.704718        46.3877 
 290   0.0000       1.708686        46.4957 
 291   0.0000       1.725239        46.9461 
 292   0.0000       1.728843        47.0442 
 293   0.0000       1.740444        47.3599 
 294   0.0000       1.744497        47.4702 
 295   0.0000       1.753756        47.7221 
 296   0.0000       1.769339        48.1462 
 297   0.0000       1.776196        48.3327 
 298   0.0000       1.777257        48.3616 
 299   0.0000       1.786907        48.6242 
 300   0.0000       1.798014        48.9264 
 301   0.0000       1.803853        49.0853 
 302   0.0000       1.807752        49.1914 
 303   0.0000       1.817561        49.4583 
 304   0.0000       1.827426        49.7268 
 305   0.0000       1.841742        50.1163 
 306   0.0000       1.864179        50.7269 
 307   0.0000       1.903249        51.7900 
 308   0.0000       1.915883        52.1338 
 309   0.0000       1.927265        52.4435 
 310   0.0000       1.930372        52.5281 
 311   0.0000       1.935932        52.6794 
 312   0.0000       1.937582        52.7243 
 313   0.0000       1.952072        53.1186 
 314   0.0000       1.977205        53.8025 
 315   0.0000       2.012324        54.7581 
 316   0.0000       2.034818        55.3702 
 317   0.0000       2.043998        55.6200 
 318   0.0000       2.053253        55.8719 
 319   0.0000       2.073278        56.4168 
 320   0.0000       2.087436        56.8020 
 321   0.0000       2.105611        57.2966 
 322   0.0000       2.106232        57.3135 
 323   0.0000       2.126575        57.8670 
 324   0.0000       2.131422        57.9989 
 325   0.0000       2.160671        58.7949 
 326   0.0000       2.161776        58.8249 
 327   0.0000       2.181763        59.3688 
 328   0.0000       2.194188        59.7069 
 329   0.0000       2.209038        60.1110 
 330   0.0000       2.212419        60.2030 
 331   0.0000       2.244160        61.0667 
 332   0.0000       2.245452        61.1019 
 333   0.0000       2.256340        61.3981 
 334   0.0000       2.261610        61.5415 
 335   0.0000       2.273501        61.8651 
 336   0.0000       2.284523        62.1650 
 337   0.0000       2.311351        62.8951 
 338   0.0000       2.317576        63.0645 
 339   0.0000       2.322980        63.2115 
 340   0.0000       2.333007        63.4843 
 341   0.0000       2.334807        63.5333 
 342   0.0000       2.360483        64.2320 
 343   0.0000       2.383346        64.8541 
 344   0.0000       2.394644        65.1616 
 345   0.0000       2.419442        65.8364 
 346   0.0000       2.431787        66.1723 
 347   0.0000       2.434331        66.2415 
 348   0.0000       2.449570        66.6562 
 349   0.0000       2.464429        67.0605 
 350   0.0000       2.478930        67.4551 
 351   0.0000       2.486680        67.6660 
 352   0.0000       2.492990        67.8377 
 353   0.0000       2.505381        68.1749 
 354   0.0000       2.518676        68.5367 
 355   0.0000       2.533361        68.9363 
 356   0.0000       2.542354        69.1810 
 357   0.0000       2.557719        69.5991 
 358   0.0000       2.563075        69.7448 
 359   0.0000       2.565740        69.8173 
 360   0.0000       2.574255        70.0491 
 361   0.0000       2.585176        70.3462 
 362   0.0000       2.603354        70.8409 
 363   0.0000       2.619050        71.2680 
 364   0.0000       2.626565        71.4725 
 365   0.0000       2.628277        71.5191 
 366   0.0000       2.713819        73.8468 
 367   0.0000       2.767552        75.3089 
 368   0.0000       2.790385        75.9302 
 369   0.0000       2.824236        76.8514 
 370   0.0000       2.899536        78.9004 
 371   0.0000       2.956903        80.4614 
 372   0.0000       2.965173        80.6865 
 373   0.0000       2.979666        81.0808 
 374   0.0000       3.281252        89.2874 
 375   0.0000       4.983313       135.6028 
 376   0.0000       4.990746       135.8051 
 377   0.0000       4.996641       135.9655 
 378   0.0000       5.014538       136.4525 
 379   0.0000       5.014680       136.4564 
 380   0.0000       5.023161       136.6872 
 381   0.0000       5.027975       136.8182 
 382   0.0000       5.029518       136.8601 
 383   0.0000       5.038887       137.1151 
 384   0.0000       5.050885       137.4416 
 385   0.0000       5.201515       141.5404 
 386   0.0000       5.216581       141.9504 
 387   0.0000       5.236915       142.5037 
 388   0.0000       5.248930       142.8307 
 389   0.0000       5.280941       143.7017 
 390   0.0000       5.295044       144.0855 
 391   0.0000       5.301557       144.2627 
 392   0.0000       5.312836       144.5696 
 393   0.0000       5.314705       144.6205 
 394   0.0000       5.341976       145.3626 
 395   0.0000       5.367702       146.0626 
 396   0.0000       5.380657       146.4151 
 397   0.0000       5.398679       146.9055 
 398   0.0000       5.410985       147.2404 
 399   0.0000       5.448503       148.2613 
 400   0.0000       5.549698       151.0150 
 401   0.0000       5.566080       151.4607 
 402   0.0000       5.598752       152.3498 
 403   0.0000       5.628340       153.1549 
 404   0.0000       5.632847       153.2776 
 405   0.0000       5.722937       155.7290 
 406   0.0000       5.734426       156.0417 
 407   0.0000       5.757201       156.6614 
 408   0.0000       5.814168       158.2116 
 409   0.0000       5.845469       159.0633 
 410   0.0000       5.877627       159.9384 
 411   0.0000       6.019439       163.7973 
 412   0.0000       6.255526       170.2215 
 413   0.0000       6.373858       173.4415 
 414   0.0000      29.627887       806.2158 
 415   0.0000      29.808271       811.1243 
 416   0.0000      29.844472       812.1094 
 417   0.0000      29.857426       812.4619 
 418   0.0000      29.979203       815.7756 
 419   0.0000      29.987865       816.0113 
 420   0.0000      30.053574       817.7993 
 421   0.0000      30.078004       818.4641 
 422   0.0000      30.105959       819.2248 
 423   0.0000      30.121524       819.6483 
 424   0.0000      30.157329       820.6226 
 425   0.0000      30.195771       821.6687 
 426   0.0000      30.216130       822.2227 
 427   0.0000      30.255830       823.3030 
 428   0.0000      30.283825       824.0648 
 429   0.0000      30.335939       825.4829 
 430   0.0000      30.462409       828.9243 
 431   0.0000      30.589892       832.3933 
 432   0.0000      36.607718       996.1466 
 433   0.0000      36.617492       996.4126 
 434   0.0000      36.631654       996.7980 
 435   0.0000      36.638241       996.9772 
 436   0.0000      36.642068       997.0814 
 437   0.0000      36.649173       997.2747 
 438   0.0000      36.653559       997.3940 
 439   0.0000      36.663964       997.6772 
 440   0.0000      36.674716       997.9698 
 441   0.0000      36.812198      1001.7108 
 442   0.0000      36.827269      1002.1209 
 443   0.0000      36.852301      1002.8021 
 444   0.0000      36.867915      1003.2270 
 445   0.0000      36.871735      1003.3309 
 446   0.0000      36.879584      1003.5445 
 447   0.0000      36.885393      1003.7026 
 448   0.0000      36.920697      1004.6632 
 449   0.0000      36.938173      1005.1388 
 450   0.0000      36.940456      1005.2009 
 451   0.0000      36.969157      1005.9819 
 452   0.0000      37.013294      1007.1829 

                 SPIN DOWN ORBITALS
  NO   OCC          E(Eh)            E(eV) 
   0   1.0000     -10.226832      -278.2862 
   1   1.0000     -10.223529      -278.1964 
   2   1.0000     -10.214169      -277.9417 
   3   1.0000     -10.211223      -277.8615 
   4   1.0000     -10.207777      -277.7677 
   5   1.0000     -10.207102      -277.7494 
   6   1.0000     -10.201645      -277.6009 
   7   1.0000     -10.201318      -277.5920 
   8   1.0000     -10.199323      -277.5377 
   9   1.0000     -10.196865      -277.4708 
  10   1.0000     -10.190386      -277.2945 
  11   1.0000     -10.189802      -277.2786 
  12   1.0000     -10.188081      -277.2318 
  13   1.0000     -10.184254      -277.1276 
  14   1.0000     -10.181853      -277.0623 
  15   1.0000     -10.181275      -277.0466 
  16   1.0000     -10.173328      -276.8303 
  17   1.0000     -10.171072      -276.7690 
  18   1.0000      -0.870840       -23.6967 
  19   1.0000      -0.814486       -22.1633 
  20   1.0000      -0.794984       -21.6326 
  21   1.0000      -0.792457       -21.5638 
  22   1.0000      -0.765310       -20.8252 
  23   1.0000      -0.752891       -20.4872 
  24   1.0000      -0.726225       -19.7616 
  25   1.0000      -0.721165       -19.6239 
  26   1.0000      -0.695503       -18.9256 
  27   1.0000      -0.654141       -17.8001 
  28   1.0000      -0.638908       -17.3856 
  29   1.0000      -0.612984       -16.6801 
  30   1.0000      -0.594695       -16.1825 
  31   1.0000      -0.580468       -15.7953 
  32   1.0000      -0.562314       -15.3013 
  33   1.0000      -0.543890       -14.8000 
  34   1.0000      -0.524981       -14.2855 
  35   1.0000      -0.498344       -13.5606 
  36   1.0000      -0.486534       -13.2393 
  37   1.0000      -0.476614       -12.9693 
  38   1.0000      -0.470877       -12.8132 
  39   1.0000      -0.460708       -12.5365 
  40   1.0000      -0.433650       -11.8002 
  41   1.0000      -0.427730       -11.6391 
  42   1.0000      -0.424815       -11.5598 
  43   1.0000      -0.420863       -11.4523 
  44   1.0000      -0.412162       -11.2155 
  45   1.0000      -0.396583       -10.7916 
  46   1.0000      -0.392718       -10.6864 
  47   1.0000      -0.378207       -10.2915 
  48   1.0000      -0.377809       -10.2807 
  49   1.0000      -0.364489        -9.9182 
  50   1.0000      -0.357001        -9.7145 
  51   1.0000      -0.353676        -9.6240 
  52   1.0000      -0.336818        -9.1653 
  53   1.0000      -0.332556        -9.0493 
  54   1.0000      -0.332064        -9.0359 
  55   1.0000      -0.330304        -8.9880 
  56   1.0000      -0.327338        -8.9073 
  57   1.0000      -0.322419        -8.7735 
  58   1.0000      -0.322360        -8.7719 
  59   1.0000      -0.281237        -7.6529 
  60   1.0000      -0.278003        -7.5648 
  61   1.0000      -0.275871        -7.5068 
  62   1.0000      -0.259402        -7.0587 
  63   1.0000      -0.224702        -6.1145 
  64   0.0000      -0.086027        -2.3409 
  65   0.0000      -0.043183        -1.1751 
  66   0.0000       0.018954         0.5158 
  67   0.0000       0.021601         0.5878 
  68   0.0000       0.023083         0.6281 
  69   0.0000       0.024780         0.6743 
  70   0.0000       0.030176         0.8211 
  71   0.0000       0.036548         0.9945 
  72   0.0000       0.038841         1.0569 
  73   0.0000       0.040093         1.0910 
  74   0.0000       0.045588         1.2405 
  75   0.0000       0.049728         1.3532 
  76   0.0000       0.051231         1.3941 
  77   0.0000       0.051607         1.4043 
  78   0.0000       0.073805         2.0083 
  79   0.0000       0.079391         2.1603 
  80   0.0000       0.088545         2.4094 
  81   0.0000       0.098250         2.6735 
  82   0.0000       0.108998         2.9660 
  83   0.0000       0.109853         2.9893 
  84   0.0000       0.124562         3.3895 
  85   0.0000       0.137385         3.7384 
  86   0.0000       0.150201         4.0872 
  87   0.0000       0.157816         4.2944 
  88   0.0000       0.158181         4.3043 
  89   0.0000       0.166048         4.5184 
  90   0.0000       0.175391         4.7726 
  91   0.0000       0.184851         5.0300 
  92   0.0000       0.186829         5.0839 
  93   0.0000       0.193483         5.2649 
  94   0.0000       0.194453         5.2913 
  95   0.0000       0.199909         5.4398 
  96   0.0000       0.200580         5.4580 
  97   0.0000       0.201909         5.4942 
  98   0.0000       0.206182         5.6105 
  99   0.0000       0.206932         5.6309 
 100   0.0000       0.218401         5.9430 
 101   0.0000       0.218542         5.9468 
 102   0.0000       0.221738         6.0338 
 103   0.0000       0.233245         6.3469 
 104   0.0000       0.238106         6.4792 
 105   0.0000       0.249291         6.7836 
 106   0.0000       0.252058         6.8588 
 107   0.0000       0.253411         6.8957 
 108   0.0000       0.259984         7.0745 
 109   0.0000       0.261124         7.1055 
 110   0.0000       0.268460         7.3052 
 111   0.0000       0.274385         7.4664 
 112   0.0000       0.278117         7.5680 
 113   0.0000       0.280570         7.6347 
 114   0.0000       0.289207         7.8697 
 115   0.0000       0.290211         7.8971 
 116   0.0000       0.298392         8.1197 
 117   0.0000       0.299517         8.1503 
 118   0.0000       0.300737         8.1835 
 119   0.0000       0.304292         8.2802 
 120   0.0000       0.312089         8.4924 
 121   0.0000       0.315769         8.5925 
 122   0.0000       0.318645         8.6708 
 123   0.0000       0.323549         8.8042 
 124   0.0000       0.326052         8.8723 
 125   0.0000       0.330746         9.0000 
 126   0.0000       0.339562         9.2399 
 127   0.0000       0.340611         9.2685 
 128   0.0000       0.351955         9.5772 
 129   0.0000       0.353013         9.6060 
 130   0.0000       0.359437         9.7808 
 131   0.0000       0.362333         9.8596 
 132   0.0000       0.364812         9.9270 
 133   0.0000       0.369066        10.0428 
 134   0.0000       0.378787        10.3073 
 135   0.0000       0.381725        10.3873 
 136   0.0000       0.387718        10.5503 
 137   0.0000       0.394855        10.7445 
 138   0.0000       0.399473        10.8702 
 139   0.0000       0.403669        10.9844 
 140   0.0000       0.409523        11.1437 
 141   0.0000       0.411750        11.2043 
 142   0.0000       0.417717        11.3667 
 143   0.0000       0.429437        11.6856 
 144   0.0000       0.436160        11.8685 
 145   0.0000       0.442659        12.0454 
 146   0.0000       0.444512        12.0958 
 147   0.0000       0.448574        12.2063 
 148   0.0000       0.457057        12.4371 
 149   0.0000       0.464717        12.6456 
 150   0.0000       0.473156        12.8752 
 151   0.0000       0.478967        13.0333 
 152   0.0000       0.488709        13.2985 
 153   0.0000       0.498854        13.5745 
 154   0.0000       0.506193        13.7742 
 155   0.0000       0.508633        13.8406 
 156   0.0000       0.516742        14.0613 
 157   0.0000       0.525907        14.3106 
 158   0.0000       0.534223        14.5370 
 159   0.0000       0.540784        14.7155 
 160   0.0000       0.544793        14.8246 
 161   0.0000       0.551409        15.0046 
 162   0.0000       0.551784        15.0148 
 163   0.0000       0.561221        15.2716 
 164   0.0000       0.570014        15.5109 
 165   0.0000       0.585003        15.9187 
 166   0.0000       0.592816        16.1313 
 167   0.0000       0.594176        16.1683 
 168   0.0000       0.595130        16.1943 
 169   0.0000       0.603435        16.4203 
 170   0.0000       0.627904        17.0861 
 171   0.0000       0.633699        17.2438 
 172   0.0000       0.655385        17.8339 
 173   0.0000       0.667891        18.1742 
 174   0.0000       0.674985        18.3673 
 175   0.0000       0.707718        19.2580 
 176   0.0000       0.729531        19.8515 
 177   0.0000       0.774268        21.0689 
 178   0.0000       0.784937        21.3592 
 179   0.0000       0.790622        21.5139 
 180   0.0000       0.796144        21.6642 
 181   0.0000       0.809658        22.0319 
 182   0.0000       0.822676        22.3861 
 183   0.0000       0.839595        22.8465 
 184   0.0000       0.841356        22.8945 
 185   0.0000       0.848971        23.1017 
 186   0.0000       0.858741        23.3675 
 187   0.0000       0.862437        23.4681 
 188   0.0000       0.865944        23.5635 
 189   0.0000       0.878990        23.9185 
 190   0.0000       0.881930        23.9985 
 191   0.0000       0.889326        24.1998 
 192   0.0000       0.898006        24.4360 
 193   0.0000       0.907066        24.6825 
 194   0.0000       0.914251        24.8780 
 195   0.0000       0.918456        24.9925 
 196   0.0000       0.923096        25.1187 
 197   0.0000       0.926185        25.2028 
 198   0.0000       0.931520        25.3480 
 199   0.0000       0.937281        25.5047 
 200   0.0000       0.947099        25.7719 
 201   0.0000       0.959348        26.1052 
 202   0.0000       0.963207        26.2102 
 203   0.0000       0.970965        26.4213 
 204   0.0000       0.971293        26.4302 
 205   0.0000       0.978548        26.6276 
 206   0.0000       0.982705        26.7408 
 207   0.0000       0.986167        26.8350 
 208   0.0000       0.998270        27.1643 
 209   0.0000       1.005918        27.3724 
 210   0.0000       1.011185        27.5157 
 211   0.0000       1.026794        27.9405 
 212   0.0000       1.030707        28.0470 
 213   0.0000       1.039286        28.2804 
 214   0.0000       1.043674        28.3998 
 215   0.0000       1.047462        28.5029 
 216   0.0000       1.051922        28.6243 
 217   0.0000       1.058392        28.8003 
 218   0.0000       1.063383        28.9361 
 219   0.0000       1.087080        29.5809 
 220   0.0000       1.102325        29.9958 
 221   0.0000       1.108801        30.1720 
 222   0.0000       1.111811        30.2539 
 223   0.0000       1.121154        30.5082 
 224   0.0000       1.129927        30.7469 
 225   0.0000       1.142107        31.0783 
 226   0.0000       1.149170        31.2705 
 227   0.0000       1.161037        31.5934 
 228   0.0000       1.172102        31.8945 
 229   0.0000       1.178152        32.0591 
 230   0.0000       1.184093        32.2208 
 231   0.0000       1.188442        32.3391 
 232   0.0000       1.201848        32.7040 
 233   0.0000       1.205050        32.7911 
 234   0.0000       1.220354        33.2075 
 235   0.0000       1.226627        33.3782 
 236   0.0000       1.238410        33.6989 
 237   0.0000       1.240308        33.7505 
 238   0.0000       1.251989        34.0684 
 239   0.0000       1.255728        34.1701 
 240   0.0000       1.259779        34.2803 
 241   0.0000       1.262131        34.3443 
 242   0.0000       1.276980        34.7484 
 243   0.0000       1.290882        35.1267 
 244   0.0000       1.305105        35.5137 
 245   0.0000       1.317504        35.8511 
 246   0.0000       1.330572        36.2067 
 247   0.0000       1.333020        36.2733 
 248   0.0000       1.345741        36.6195 
 249   0.0000       1.352088        36.7922 
 250   0.0000       1.378423        37.5088 
 251   0.0000       1.379395        37.5353 
 252   0.0000       1.389405        37.8076 
 253   0.0000       1.397992        38.0413 
 254   0.0000       1.399155        38.0729 
 255   0.0000       1.426602        38.8198 
 256   0.0000       1.429809        38.9071 
 257   0.0000       1.430401        38.9232 
 258   0.0000       1.436624        39.0925 
 259   0.0000       1.440733        39.2043 
 260   0.0000       1.447058        39.3764 
 261   0.0000       1.465542        39.8794 
 262   0.0000       1.467587        39.9351 
 263   0.0000       1.480254        40.2798 
 264   0.0000       1.500596        40.8333 
 265   0.0000       1.507282        41.0152 
 266   0.0000       1.514409        41.2092 
 267   0.0000       1.515187        41.2303 
 268   0.0000       1.520067        41.3631 
 269   0.0000       1.549015        42.1508 
 270   0.0000       1.559803        42.4444 
 271   0.0000       1.561563        42.4923 
 272   0.0000       1.564788        42.5800 
 273   0.0000       1.575964        42.8842 
 274   0.0000       1.588952        43.2376 
 275   0.0000       1.590266        43.2733 
 276   0.0000       1.593492        43.3611 
 277   0.0000       1.600953        43.5641 
 278   0.0000       1.604654        43.6649 
 279   0.0000       1.611971        43.8640 
 280   0.0000       1.626755        44.2663 
 281   0.0000       1.627576        44.2886 
 282   0.0000       1.636593        44.5339 
 283   0.0000       1.659268        45.1510 
 284   0.0000       1.663468        45.2653 
 285   0.0000       1.676202        45.6118 
 286   0.0000       1.685749        45.8716 
 287   0.0000       1.691128        46.0179 
 288   0.0000       1.698917        46.2299 
 289   0.0000       1.705332        46.4044 
 290   0.0000       1.710167        46.5360 
 291   0.0000       1.726669        46.9851 
 292   0.0000       1.729710        47.0678 
 293   0.0000       1.742108        47.4052 
 294   0.0000       1.745621        47.5008 
 295   0.0000       1.755886        47.7801 
 296   0.0000       1.769544        48.1517 
 297   0.0000       1.777824        48.3771 
 298   0.0000       1.778252        48.3887 
[...]
 A(ORB)         -0.0002               0.0002               0.0025    A(PC) =   0.0008
 A(DIA)          0.0006              -0.0004              -0.0002    A(PC) =   0.0000
             ----------           ----------           ----------
 A(Tot)         -3.5576              -9.0277             -12.0129    A(iso)=   -8.1994
 Orientation: 
  X          -0.9937168           -0.0128369            0.1111854
  Y           0.1111579            0.0028393            0.9937987
  Z          -0.0130730            0.9999136           -0.0013946

Notes:  (1) The A matrix conforms to the "SAI" spin Hamiltonian convention.
        (2) Tensor is right-handed.

 -----------------------------------------------------------
 Nucleus  36H : A:ISTP=    1 I=  0.5 P=533.5514 MHz/au**3
                Q:ISTP=    2 I=  1.0 Q=  0.0029 barn     
 -----------------------------------------------------------
 Solving for nuclear perturbation:
Forming RHS of the CP-SCF equations         ... 
Calc. nucleus orbit integrals (SHARK)       ... done

------------------------------------------------------------------------------
                           ORCA CP-SCF CALCULATION
------------------------------------------------------------------------------

Input orbitals are from        ... EPRII.gbw
Input Perturbation             ... EPRII.pin.tmp
Wavefunction output            ... EPRII.pout.tmp
Perturbation mode              ... Imaginary perturbation
Solver                         ... POPLE
Max. number of iterations      ... 64
Convergence tolerance          ... 1.000e-03
Integral handling              ... Direct
DFT GridXC                     ... 1
COSX GridX                     ... 1
COSX IntAccX                   ... 3.067
COSX Algorithm                 ... Auto
Number of perturbations        ... 3
Number of operators            ... 2
Orbital ranges used for CP-SCF:
 Operator 0:  Orbitals   0... 64  to  65...452
 Operator 1:  Orbitals   0... 63  to  64...452
Variables per perturbation     ... 50116
DFT calculation                         ... on
XC functional terms                     ... off
Hybrid DFT                              ... on
   Exchange mixing (SCF)                ...  0.200
   Exchange mixing (CP-SCF)             ...  0.200
   GGA exch. scaling(SCF)               ...  0.720
   GGA exch. scaling (CP-SCF)           ...  0.720
   GGA corr. scaling (SCF)              ...  0.810
   GGA corr. scaling (CP-SCF)           ...  0.810

CP-SCF GRID
-----------

General Integration Accuracy     IntAcc      ... 3.467
Radial Grid Type                 RadialGrid  ... OptM3 with GC (2021)
Angular Grid (max. ang.)         AngularGrid ... 1 (Lebedev-50)
Angular grid pruning method      GridPruning ... 4 (adaptive)
Weight generation scheme         WeightScheme... Becke
Basis function cutoff            BFCut       ... 1.0000e-10
Integration weight cutoff        WCut        ... 1.0000e-14
Angular grids for H and He will be reduced by one unit
Partially contracted basis set               ... off
Rotationally invariant grid construction     ... off

Total number of grid points                  ...    24801
Total number of batches                      ...      404
Average number of points per batch           ...       61
Average number of grid points per atom       ...      636

CP-SCF GRIDX
------------

General Integration Accuracy     IntAcc      ... 3.067
Radial Grid Type                 RadialGrid  ... OptM3 with GC (2021)
Angular Grid (max. ang.)         AngularGrid ... 1 (Lebedev-50)
Angular grid pruning method      GridPruning ... 4 (adaptive)
Weight generation scheme         WeightScheme... Becke
Basis function cutoff            BFCut       ... 1.0000e-10
Integration weight cutoff        WCut        ... 1.0000e-14
Angular grids for H and He will be reduced by one unit
Partially contracted basis set               ... on
Rotationally invariant grid construction     ... off

Total number of grid points                  ...    11664
Total number of batches                      ...      205
Average number of points per batch           ...       56
Average number of grid points per atom       ...      299

Memory available               ... 894.3 MB
Memory needed per perturbation ...  12.1 MB
Perturbations treated per batch... 3
Number of batches              ... 1
     CP-SCF ITERATION   0:   1.0370e-01 (   1.3 sec   0/  3 done)
     CP-SCF ITERATION   1:   1.7097e-03 (   1.3 sec   2/  3 done)
     CP-SCF ITERATION   2:   9.9893e-05 (   0.9 sec   3/  3 done)
                    *** THE CP-SCF HAS CONVERGED ***

Forming final perturbed densities           ... done
Transforming perturbed density to AO basis  ... done

 Raw HFC matrix (all values in MHz): 
 -----------------------------------
                 2.7309               0.1354              -0.0138
                 0.1354               5.4019              -0.0022
                -0.0138              -0.0022               3.7906

 A(FC)           3.9748               3.9748               3.9748
 A(SD)          -1.2508              -0.1841               1.4349
 A(ORB+DIA)     -0.0001               0.0001              -0.0009    A(PC) =  -0.0003
 A(ORB)          0.0001              -0.0001              -0.0010    A(PC) =  -0.0003
 A(DIA)         -0.0002               0.0002               0.0001    A(PC) =   0.0001
             ----------           ----------           ----------
 A(Tot)          2.7239               3.7908               5.4088    A(iso)=    3.9745
 Orientation: 
  X           0.9986428           -0.0127163           -0.0505058
  Y          -0.0504792            0.0024041           -0.9987222
  Z           0.0128215            0.9999163            0.0017589

Notes:  (1) The A matrix conforms to the "SAI" spin Hamiltonian convention.
        (2) Tensor is right-handed.

 -----------------------------------------------------------
 Nucleus  37H : A:ISTP=    1 I=  0.5 P=533.5514 MHz/au**3
                Q:ISTP=    2 I=  1.0 Q=  0.0029 barn     
 -----------------------------------------------------------
 Solving for nuclear perturbation:
Forming RHS of the CP-SCF equations         ... 
Calc. nucleus orbit integrals (SHARK)       ... done

------------------------------------------------------------------------------
                           ORCA CP-SCF CALCULATION
------------------------------------------------------------------------------

Input orbitals are from        ... EPRII.gbw
Input Perturbation             ... EPRII.pin.tmp
Wavefunction output            ... EPRII.pout.tmp
Perturbation mode              ... Imaginary perturbation
Solver                         ... POPLE
Max. number of iterations      ... 64
Convergence tolerance          ... 1.000e-03
Integral handling              ... Direct
DFT GridXC                     ... 1
COSX GridX                     ... 1
COSX IntAccX                   ... 3.067
COSX Algorithm                 ... Auto
Number of perturbations        ... 3
Number of operators            ... 2
Orbital ranges used for CP-SCF:
 Operator 0:  Orbitals   0... 64  to  65...452
 Operator 1:  Orbitals   0... 63  to  64...452
Variables per perturbation     ... 50116
DFT calculation                         ... on
XC functional terms                     ... off
Hybrid DFT                              ... on
   Exchange mixing (SCF)                ...  0.200
   Exchange mixing (CP-SCF)             ...  0.200
   GGA exch. scaling(SCF)               ...  0.720
   GGA exch. scaling (CP-SCF)           ...  0.720
   GGA corr. scaling (SCF)              ...  0.810
   GGA corr. scaling (CP-SCF)           ...  0.810

CP-SCF GRID
-----------

General Integration Accuracy     IntAcc      ... 3.467
Radial Grid Type                 RadialGrid  ... OptM3 with GC (2021)
Angular Grid (max. ang.)         AngularGrid ... 1 (Lebedev-50)
Angular grid pruning method      GridPruning ... 4 (adaptive)
Weight generation scheme         WeightScheme... Becke
Basis function cutoff            BFCut       ... 1.0000e-10
Integration weight cutoff        WCut        ... 1.0000e-14
Angular grids for H and He will be reduced by one unit
Partially contracted basis set               ... off
Rotationally invariant grid construction     ... off

Total number of grid points                  ...    24801
Total number of batches                      ...      404
Average number of points per batch           ...       61
Average number of grid points per atom       ...      636

CP-SCF GRIDX
------------

General Integration Accuracy     IntAcc      ... 3.067
Radial Grid Type                 RadialGrid  ... OptM3 with GC (2021)
Angular Grid (max. ang.)         AngularGrid ... 1 (Lebedev-50)
Angular grid pruning method      GridPruning ... 4 (adaptive)
Weight generation scheme         WeightScheme... Becke
Basis function cutoff            BFCut       ... 1.0000e-10
Integration weight cutoff        WCut        ... 1.0000e-14
Angular grids for H and He will be reduced by one unit
Partially contracted basis set               ... on
Rotationally invariant grid construction     ... off

Total number of grid points                  ...    11664
Total number of batches                      ...      205
Average number of points per batch           ...       56
Average number of grid points per atom       ...      299

Memory available               ... 893.8 MB
Memory needed per perturbation ...  12.1 MB
Perturbations treated per batch... 3
Number of batches              ... 1
     CP-SCF ITERATION   0:   3.7203e-02 (   1.3 sec   0/  3 done)
     CP-SCF ITERATION   1:   6.3398e-04 (   1.3 sec   3/  3 done)
                    *** THE CP-SCF HAS CONVERGED ***

Forming final perturbed densities           ... done
Transforming perturbed density to AO basis  ... done

 Raw HFC matrix (all values in MHz): 
 -----------------------------------
                -0.8187               0.2277               0.0030
                 0.2275               0.6823               0.0093
                 0.0030               0.0093              -0.8346

 A(FC)          -0.3238              -0.3238              -0.3238
 A(SD)           1.0394              -0.5107              -0.5288
 A(ORB+DIA)      0.0005              -0.0001              -0.0000    A(PC) =   0.0001
 A(ORB)          0.0004               0.0000               0.0000    A(PC) =   0.0001
 A(DIA)          0.0001              -0.0001              -0.0001    A(PC) =  -0.0000
             ----------           ----------           ----------
 A(Tot)          0.7161              -0.8345              -0.8526    A(iso)=   -0.3237
 Orientation: 
  X          -0.1467312           -0.0872558            0.9853204
  Y          -0.9891570            0.0191860           -0.1456035
  Z          -0.0061996           -0.9960012           -0.0891249

Notes:  (1) The A matrix conforms to the "SAI" spin Hamiltonian convention.
        (2) Tensor is right-handed.

 -----------------------------------------------------------
 Nucleus  38H : A:ISTP=    1 I=  0.5 P=533.5514 MHz/au**3
                Q:ISTP=    2 I=  1.0 Q=  0.0029 barn     
 -----------------------------------------------------------
 Solving for nuclear perturbation:
Forming RHS of the CP-SCF equations         ... 
Calc. nucleus orbit integrals (SHARK)       ... done

------------------------------------------------------------------------------
                           ORCA CP-SCF CALCULATION
------------------------------------------------------------------------------

Input orbitals are from        ... EPRII.gbw
Input Perturbation             ... EPRII.pin.tmp
Wavefunction output            ... EPRII.pout.tmp
Perturbation mode              ... Imaginary perturbation
Solver                         ... POPLE
Max. number of iterations      ... 64
Convergence tolerance          ... 1.000e-03
Integral handling              ... Direct
DFT GridXC                     ... 1
COSX GridX                     ... 1
COSX IntAccX                   ... 3.067
COSX Algorithm                 ... Auto
Number of perturbations        ... 3
Number of operators            ... 2
Orbital ranges used for CP-SCF:
 Operator 0:  Orbitals   0... 64  to  65...452
 Operator 1:  Orbitals   0... 63  to  64...452
Variables per perturbation     ... 50116
DFT calculation                         ... on
XC functional terms                     ... off
Hybrid DFT                              ... on
   Exchange mixing (SCF)                ...  0.200
   Exchange mixing (CP-SCF)             ...  0.200
   GGA exch. scaling(SCF)               ...  0.720
   GGA exch. scaling (CP-SCF)           ...  0.720
   GGA corr. scaling (SCF)              ...  0.810
   GGA corr. scaling (CP-SCF)           ...  0.810

CP-SCF GRID
-----------

General Integration Accuracy     IntAcc      ... 3.467
Radial Grid Type                 RadialGrid  ... OptM3 with GC (2021)
Angular Grid (max. ang.)         AngularGrid ... 1 (Lebedev-50)
Angular grid pruning method      GridPruning ... 4 (adaptive)
Weight generation scheme         WeightScheme... Becke
Basis function cutoff            BFCut       ... 1.0000e-10
Integration weight cutoff        WCut        ... 1.0000e-14
Angular grids for H and He will be reduced by one unit
Partially contracted basis set               ... off
Rotationally invariant grid construction     ... off

Total number of grid points                  ...    24801
Total number of batches                      ...      404
Average number of points per batch           ...       61
Average number of grid points per atom       ...      636

CP-SCF GRIDX
------------

General Integration Accuracy     IntAcc      ... 3.067
Radial Grid Type                 RadialGrid  ... OptM3 with GC (2021)
Angular Grid (max. ang.)         AngularGrid ... 1 (Lebedev-50)
Angular grid pruning method      GridPruning ... 4 (adaptive)
Weight generation scheme         WeightScheme... Becke
Basis function cutoff            BFCut       ... 1.0000e-10
Integration weight cutoff        WCut        ... 1.0000e-14
Angular grids for H and He will be reduced by one unit
Partially contracted basis set               ... on
Rotationally invariant grid construction     ... off

Total number of grid points                  ...    11664
Total number of batches                      ...      205
Average number of points per batch           ...       56
Average number of grid points per atom       ...      299

Memory available               ... 893.3 MB
Memory needed per perturbation ...  12.1 MB
Perturbations treated per batch... 3
Number of batches              ... 1
     CP-SCF ITERATION   0:   3.7294e-02 (   1.3 sec   0/  3 done)
     CP-SCF ITERATION   1:   6.4933e-04 (   1.3 sec   3/  3 done)
                    *** THE CP-SCF HAS CONVERGED ***

Forming final perturbed densities           ... done
Transforming perturbed density to AO basis  ... done

 Raw HFC matrix (all values in MHz): 
 -----------------------------------
                -0.1219               0.0636              -0.0001
                 0.0637               0.2273              -0.0006
                -0.0001              -0.0006              -0.1330

 A(FC)          -0.0092              -0.0092              -0.0092
 A(SD)          -0.1238              -0.1239               0.2477
 A(ORB+DIA)      0.0000              -0.0000               0.0001    A(PC) =   0.0000
 A(ORB)          0.0000              -0.0000               0.0001    A(PC) =   0.0000
 A(DIA)          0.0000               0.0000               0.0000    A(PC) =   0.0000
             ----------           ----------           ----------
 A(Tot)         -0.1330              -0.1331               0.2386    A(iso)=   -0.0092
 Orientation: 
  X           0.1148683            0.9780539            0.1738273
  Y          -0.0186199           -0.1728350            0.9847748
  Z           0.9932062           -0.1163561           -0.0016420

Notes:  (1) The A matrix conforms to the "SAI" spin Hamiltonian convention.
        (2) Tensor is right-handed.


--------------------------------------------------------------------------------
----------------------------------------------------------------------------
                           ORCA EULER ANGLE PROGRAM
----------------------------------------------------------------------------

Only g-tensor available        -->  using g-tensor as reference tensor

Reference tensor               ...  g

g-tensor ordering              ...  |g_min> --> |gx>
                                    |g_mid> --> |gy>
                                    |g_max> --> |gz>

A- and EFG-tensor ordering     ...  the axes |Ax>, |Qx>, |Ay>, etc. are assigned
                                    such that the Euler rotation is minimal. You
                                    can find the respective eigenvalues as Ax,
                                    EFGx, Ay, etc. in the tables below.
                                    The relation of |Ax>, |Ay>,  etc. to Amin, Amid, etc.
                                    (as printed in the ORCA EPR/NMR CALCULATION Output)
                                    is obtained in the detailed printout.

Euler rotation around          ...  z - y - z
   First rotation              -->  by alpha around z
   Second rotation             -->  by beta around y'
   Third rotation              -->  by gamma around z''
   Positive / Negative angle   -->  clockwise / counterclockwise rotation

Plot EFG-tensors                    (-)
Plot HFC-tensors                    (-)
Detailed Printout                   (-)

-------------------------------------------------------------------------
          Euler rotation of hyperfine tensor to g-tensor
-------------------------------------------------------------------------

-------------------------------------------------------------------
 Atom  |   Alpha    Beta    Gamma   |   Ax       Ay       Az 
       |          [degrees]         |           [MHz]         
-------------------------------------------------------------------
  9H      -89.2     14.7     89.2     -17.28    -8.01   -20.93
 10H      -89.8     17.6     89.9       4.65     5.23    10.28
 12H       90.0     35.3    -89.9     -49.17   -20.17   -74.84
 14H     -128.5     17.6    148.4      67.79    77.59    69.28
 15H      -55.2     16.2     36.1      66.09    75.88    67.61
 17H      172.9     20.2   -136.6      -3.29    -3.12     3.08
 18H        6.6     19.4    -44.5      -3.26    -3.12     3.06
 20H      143.4     45.2   -104.3       0.04    -0.06     2.28
 21H       37.8     44.7    -76.1       0.05    -0.06     2.28
 23H      -70.7     20.2     29.0      24.05    24.68    27.85
 24H     -109.1     20.1    151.4      24.17    24.81    27.97
 26H      -99.6     41.1     86.8      -1.04     0.94    -0.92
 27H      -80.6     41.0     94.0      -1.04     0.94    -0.92
 29H       95.4     19.8    -63.3      -0.10    -0.14     0.82
 30H       83.8     19.8   -115.8      -0.10    -0.14     0.82
 32H       82.1     36.6    -77.3      -0.13    -0.10     0.38
 33H       97.8     36.6   -102.0      -0.13    -0.10     0.38
 35H       90.0     30.1    -89.8      -9.03    -3.56   -12.01
 36H       90.0     33.6    -89.8       3.79     2.72     5.41
 37H       84.9     28.1    -90.6      -0.83    -0.85     0.72
 38H       82.5     26.5    -89.6      -0.13    -0.13     0.24
-------------------------------------------------------------------


Maximum memory used throughout the entire EPRNMR-calculation: 178.2 MB

Timings for individual modules:

Sum of individual times         ...     2128.327 sec (=  35.472 min)
GTO integral calculation        ...        4.608 sec (=   0.077 min)   0.2 %
Spin-Orbit-Coupling Matrices    ...        9.131 sec (=   0.152 min)   0.4 %
SCF iterations                  ...       55.637 sec (=   0.927 min)   2.6 %
EPR/NMR calculation             ...     2058.951 sec (=  34.316 min)  96.7 %
                             ****ORCA TERMINATED NORMALLY****
TOTAL RUN TIME: 0 days 0 hours 35 minutes 32 seconds 867 msec
