
                                 *****************
                                 * O   R   C   A *
                                 *****************

                                            #,                                       
                                            ###                                      
                                            ####                                     
                                            #####                                    
                                            ######                                   
                                           ########,                                 
                                     ,,################,,,,,                         
                               ,,#################################,,                 
                          ,,##########################################,,             
                       ,#########################################, ''#####,          
                    ,#############################################,,   '####,        
                  ,##################################################,,,,####,       
                ,###########''''           ''''###############################       
              ,#####''   ,,,,##########,,,,          '''####'''          '####       
            ,##' ,,,,###########################,,,                        '##       
           ' ,,###''''                  '''############,,,                           
         ,,##''                                '''############,,,,        ,,,,,,###''
      ,#''                                            '''#######################'''  
     '                                                          ''''####''''         
             ,#######,   #######,   ,#######,      ##                                
            ,#'     '#,  ##    ##  ,#'     '#,    #''#        ######   ,####,        
            ##       ##  ##   ,#'  ##            #'  '#       #        #'  '#        
            ##       ##  #######   ##           ,######,      #####,   #    #        
            '#,     ,#'  ##    ##  '#,     ,#' ,#      #,         ##   #,  ,#        
             '#######'   ##     ##  '#######'  #'      '#     #####' # '####'        



                  #######################################################
                  #                        -***-                        #
                  #          Department of theory and spectroscopy      #
                  #    Directorship and core code : Frank Neese         #
                  #        Max Planck Institute fuer Kohlenforschung    #
                  #                Kaiser Wilhelm Platz 1               #
                  #                 D-45470 Muelheim/Ruhr               #
                  #                      Germany                        #
                  #                                                     #
                  #                  All rights reserved                #
                  #                        -***-                        #
                  #######################################################


                         Program Version 5.0.4 -  RELEASE  -


 With contributions from (in alphabetic order):
   Daniel Aravena         : Magnetic Suceptibility
   Michael Atanasov       : Ab Initio Ligand Field Theory (pilot matlab implementation)
   Alexander A. Auer      : GIAO ZORA, VPT2 properties, NMR spectrum
   Ute Becker             : Parallelization
   Giovanni Bistoni       : ED, misc. LED, open-shell LED, HFLD
   Martin Brehm           : Molecular dynamics
   Dmytro Bykov           : SCF Hessian
   Vijay G. Chilkuri      : MRCI spin determinant printing, contributions to CSF-ICE
   Dipayan Datta          : RHF DLPNO-CCSD density
   Achintya Kumar Dutta   : EOM-CC, STEOM-CC
   Dmitry Ganyushin       : Spin-Orbit,Spin-Spin,Magnetic field MRCI
   Miquel Garcia          : C-PCM and meta-GGA Hessian, CC/C-PCM, Gaussian charge scheme
   Yang Guo               : DLPNO-NEVPT2, F12-NEVPT2, CIM, IAO-localization
   Andreas Hansen         : Spin unrestricted coupled pair/coupled cluster methods
   Benjamin Helmich-Paris : MC-RPA, TRAH-SCF, COSX integrals
   Lee Huntington         : MR-EOM, pCC
   Robert Izsak           : Overlap fitted RIJCOSX, COSX-SCS-MP3, EOM
   Marcus Kettner         : VPT2
   Christian Kollmar      : KDIIS, OOCD, Brueckner-CCSD(T), CCSD density, CASPT2, CASPT2-K
   Simone Kossmann        : Meta GGA functionals, TD-DFT gradient, OOMP2, MP2 Hessian
   Martin Krupicka        : Initial AUTO-CI
   Lucas Lang             : DCDCAS
   Marvin Lechner         : AUTO-CI (C++ implementation), FIC-MRCC
   Dagmar Lenk            : GEPOL surface, SMD
   Dimitrios Liakos       : Extrapolation schemes; Compound Job, initial MDCI parallelization
   Dimitrios Manganas     : Further ROCIS development; embedding schemes
   Dimitrios Pantazis     : SARC Basis sets
   Anastasios Papadopoulos: AUTO-CI, single reference methods and gradients
   Taras Petrenko         : DFT Hessian,TD-DFT gradient, ASA, ECA, R-Raman, ABS, FL, XAS/XES, NRVS
   Peter Pinski           : DLPNO-MP2, DLPNO-MP2 Gradient
   Christoph Reimann      : Effective Core Potentials
   Marius Retegan         : Local ZFS, SOC
   Christoph Riplinger    : Optimizer, TS searches, QM/MM, DLPNO-CCSD(T), (RO)-DLPNO pert. Triples
   Tobias Risthaus        : Range-separated hybrids, TD-DFT gradient, RPA, STAB
   Michael Roemelt        : Original ROCIS implementation
   Masaaki Saitow         : Open-shell DLPNO-CCSD energy and density
   Barbara Sandhoefer     : DKH picture change effects
   Avijit Sen             : IP-ROCIS
   Kantharuban Sivalingam : CASSCF convergence, NEVPT2, FIC-MRCI
   Bernardo de Souza      : ESD, SOC TD-DFT
   Georgi Stoychev        : AutoAux, RI-MP2 NMR, DLPNO-MP2 response
   Willem Van den Heuvel  : Paramagnetic NMR
   Boris Wezisla          : Elementary symmetry handling
   Frank Wennmohs         : Technical directorship


 We gratefully acknowledge several colleagues who have allowed us to
 interface, adapt or use parts of their codes:
   Stefan Grimme, W. Hujo, H. Kruse, P. Pracht,  : VdW corrections, initial TS optimization,
                  C. Bannwarth, S. Ehlert          DFT functionals, gCP, sTDA/sTD-DF
   Ed Valeev, F. Pavosevic, A. Kumar             : LibInt (2-el integral package), F12 methods
   Garnet Chan, S. Sharma, J. Yang, R. Olivares  : DMRG
   Ulf Ekstrom                                   : XCFun DFT Library
   Mihaly Kallay                                 : mrcc  (arbitrary order and MRCC methods)
   Jiri Pittner, Ondrej Demel                    : Mk-CCSD
   Frank Weinhold                                : gennbo (NPA and NBO analysis)
   Christopher J. Cramer and Donald G. Truhlar   : smd solvation model
   Lars Goerigk                                  : TD-DFT with DH, B97 family of functionals
   V. Asgeirsson, H. Jonsson                     : NEB implementation
   FAccTs GmbH                                   : IRC, NEB, NEB-TS, DLPNO-Multilevel, CI-OPT
                                                   MM, QMMM, 2- and 3-layer-ONIOM, Crystal-QMMM,
                                                   LR-CPCM, SF, NACMEs, symmetry and pop. for TD-DFT,
                                                   nearIR, NL-DFT gradient (VV10), updates on ESD,
                                                   ML-optimized integration grids
   S Lehtola, MJT Oliveira, MAL Marques          : LibXC Library
   Liviu Ungur et al                             : ANISO software


 Your calculation uses the libint2 library for the computation of 2-el integrals
 For citations please refer to: http://libint.valeyev.net

 Your ORCA version has been built with support for libXC version: 5.1.0
 For citations please refer to: https://tddft.org/programs/libxc/

 This ORCA versions uses:
   CBLAS   interface :  Fast vector & matrix operations
   LAPACKE interface :  Fast linear algebra routines
   SCALAPACK package :  Parallel linear algebra routines
   Shared memory     :  Shared parallel matrices
   BLAS/LAPACK       :  OpenBLAS 0.3.15  USE64BITINT DYNAMIC_ARCH NO_AFFINITY SkylakeX SINGLE_THREADED
        Core in use  :  SkylakeX
   Copyright (c) 2011-2014, The OpenBLAS Project




***************************************
The coordinates will be read from file: opt.xyz
***************************************


================================================================================

----- Orbital basis set information -----
Your calculation utilizes the basis: EPR-II
   V. Barone, in Recent Advances in Density Functional Methods, Part 1 (ed. D. P. Chong), World Scientific, Singapore, 1995, p. 287.

----- AuxJ basis set information -----
Your calculation utilizes the AutoAux generation procedure.
  G. L. Stoychev, A. A. Auer, F. Neese, J. Chem. Theory Comput. 13, 554 (2017)

----- AuxC basis set information -----
Your calculation utilizes the AutoAux generation procedure.
  G. L. Stoychev, A. A. Auer, F. Neese, J. Chem. Theory Comput. 13, 554 (2017)

----- AuxJK basis set information -----
Your calculation utilizes the AutoAux generation procedure.
  G. L. Stoychev, A. A. Auer, F. Neese, J. Chem. Theory Comput. 13, 554 (2017)

================================================================================
                                        WARNINGS
                       Please study these warnings very carefully!
================================================================================


WARNING: your system is open-shell and RHF/RKS was chosen
  ===> : WILL SWITCH to UHF/UKS


INFO   : the flag for use of the SHARK integral package has been found!

================================================================================
                                       INPUT FILE
================================================================================
NAME = EPRII.inp
|  1> ! B3LYP EPR-II AUTOAUX
|  2> %pal nprocs 16 end
|  3> *XYZFile 0 2 opt.xyz
|  4> %EPRNMR
|  5>         GTENSOR   TRUE
|  6>         NUCLEI    = ALL H {SHIFT, AISO, ADIP, AORB}
|  7>         ORI       GIAO
|  8> END
|  9> 
| 10>                          ****END OF INPUT****
================================================================================

                       ****************************
                       * Single Point Calculation *
                       ****************************

---------------------------------
CARTESIAN COORDINATES (ANGSTROEM)
---------------------------------
  C      3.991788   -0.049240    0.058108
  C      2.775740    0.000818    0.040924
  C     -2.904926    0.001969   -0.021065
  C      1.348501    0.035970    0.024651
  C      0.635243    1.290110    0.014122
  C     -0.786025    1.210124   -0.000914
  C     -1.471080   -0.005896   -0.005830
  C     -0.755051   -1.242724    0.004473
  C      0.640732   -1.178015    0.019328
  H     -1.371296    2.129824   -0.008865
  H      1.223342   -2.098995    0.027465
  C      1.310813    2.530858    0.018832
  H      2.403663    2.505003    0.030818
  C      0.641084    3.872285    0.008661
  H     -0.020408    3.959192   -0.878174
  H     -0.042671    3.961660    0.878176
  C      1.626345    5.048246    0.019383
  H      2.275422    4.965813    0.910219
  H      2.296697    4.963937   -0.855394
  C      0.933467    6.412041    0.009601
  H      0.280768    6.536675    0.890987
  H      0.302265    6.534793   -0.887575
  C     -1.517430   -2.551443   -0.000599
  H     -2.203439   -2.555198    0.867109
  H     -2.188523   -2.557024   -0.879837
  C     -0.686654   -3.837261    0.007762
  H     -0.015119   -3.856287   -0.870392
  H     -0.031197   -3.855470    0.897992
  C     -1.555555   -5.100742    0.000739
  H     -2.229365   -5.083796    0.877444
  H     -2.214538   -5.084219   -0.887176
  C     -0.737137   -6.394159    0.007906
  H     -0.093627   -6.456407    0.902512
  H     -0.079125   -6.457034   -0.876030
  C     -4.120621    0.011732   -0.035488
  H      5.062776   -0.099657    0.078803
  H     -5.192882    0.026348   -0.050615
  H      1.665288    7.235733    0.017560
  H     -1.387506   -7.283908    0.002941

----------------------------
CARTESIAN COORDINATES (A.U.)
----------------------------
  NO LB      ZA    FRAG     MASS         X           Y           Z
   0 C     6.0000    0    12.011    7.543387   -0.093050    0.109809
   1 C     6.0000    0    12.011    5.245389    0.001546    0.077335
   2 C     6.0000    0    12.011   -5.489514    0.003722   -0.039807
   3 C     6.0000    0    12.011    2.548298    0.067973    0.046584
   4 C     6.0000    0    12.011    1.200436    2.437954    0.026687
   5 C     6.0000    0    12.011   -1.485371    2.286804   -0.001728
   6 C     6.0000    0    12.011   -2.779939   -0.011142   -0.011018
   7 C     6.0000    0    12.011   -1.426839   -2.348407    0.008453
   8 C     6.0000    0    12.011    1.210808   -2.226125    0.036525
   9 H     1.0000    0     1.008   -2.591374    4.024784   -0.016753
  10 H     1.0000    0     1.008    2.311781   -3.966526    0.051902
  11 C     6.0000    0    12.011    2.477077    4.782628    0.035587
  12 H     1.0000    0     1.008    4.542265    4.733770    0.058237
  13 C     6.0000    0    12.011    1.211473    7.317559    0.016367
  14 H     1.0000    0     1.008   -0.038565    7.481789   -1.659508
  15 H     1.0000    0     1.008   -0.080636    7.486452    1.659512
  16 C     6.0000    0    12.011    3.073346    9.539803    0.036628
  17 H     1.0000    0     1.008    4.299925    9.384027    1.720066
  18 H     1.0000    0     1.008    4.340129    9.380481   -1.616460
  19 C     6.0000    0    12.011    1.763996   12.117001    0.018144
  20 H     1.0000    0     1.008    0.530575   12.352525    1.683722
  21 H     1.0000    0     1.008    0.571197   12.348970   -1.677274
  22 C     6.0000    0    12.011   -2.867527   -4.821529   -0.001132
  23 H     1.0000    0     1.008   -4.163895   -4.828624    1.638599
  24 H     1.0000    0     1.008   -4.135709   -4.832075   -1.662650
  25 C     6.0000    0    12.011   -1.297588   -7.251373    0.014668
  26 H     1.0000    0     1.008   -0.028571   -7.287325   -1.644802
  27 H     1.0000    0     1.008   -0.058953   -7.285783    1.696960
  28 C     6.0000    0    12.011   -2.939572   -9.639005    0.001397
  29 H     1.0000    0     1.008   -4.212890   -9.606983    1.658129
  30 H     1.0000    0     1.008   -4.184870   -9.607782   -1.676520
  31 C     6.0000    0    12.011   -1.392986  -12.083209    0.014940
  32 H     1.0000    0     1.008   -0.176929  -12.200840    1.705500
  33 H     1.0000    0     1.008   -0.149525  -12.202026   -1.655456
  34 C     6.0000    0    12.011   -7.786844    0.022171   -0.067063
  35 H     1.0000    0     1.008    9.567261   -0.188325    0.148916
  36 H     1.0000    0     1.008   -9.813124    0.049791   -0.095648
  37 H     1.0000    0     1.008    3.146937   13.673554    0.033183
  38 H     1.0000    0     1.008   -2.622006  -13.764592    0.005558

--------------------------------
INTERNAL COORDINATES (ANGSTROEM)
--------------------------------
 C      0   0   0     0.000000000000     0.00000000     0.00000000
 C      1   0   0     1.217198970430     0.00000000     0.00000000
 C      2   1   0     5.681004601816   177.64740133     0.00000000
 C      2   1   3     1.427764709600   179.04098789     4.88395755
 C      4   2   1     1.442814618264   121.04115943   170.73551055
 C      5   4   2     1.423596374880   116.40940875   180.04250256
 C      6   5   4     1.395719002335   122.61642772     0.00000000
 C      7   6   5     1.429176852768   120.53451430     0.00000000
 C      8   7   6     1.397360852263   117.41574141     0.00000000
 H      6   5   4     1.090161686004   119.25290446   179.97372195
 H      9   8   7     1.089819105179   119.66547878   180.00401020
 C      5   4   2     1.412753188159   121.80168353     0.02653600
 H     12   5   4     1.093222111356   117.21282872     0.00000000
 C     12   5   4     1.499356079612   124.89824281   180.00328768
 H     14  12   5     1.109774899194   109.98224078   302.52491495
 H     14  12   5     1.109758438535   109.99562980    57.25191299
 C     14  12   5     1.534189837895   113.50703085   179.89831305
 H     17  14  12     1.105299665650   109.00159080   302.38291560
 H     17  14  12     1.105312042978   108.99511489    57.67838119
 C     17  14  12     1.529742060448   113.10575114   180.02885686
 H     20  17  14     1.103807064559   111.30839233    59.86338153
 H     20  17  14     1.103815962708   111.30588770   300.13928564
 C      8   7   6     1.514593813755   119.70734801   179.97863328
 H     23   8   7     1.106137308186   108.20869318   303.63256908
 H     23   8   7     1.106099383299   108.20498756    56.10248812
 C     23   8   7     1.530877907707   116.90901800   179.86322827
 H     26  23   8     1.105655588828   109.85973483   301.79885745
 H     26  23   8     1.105651982388   109.87342160    58.29631173
 C     26  23   8     1.533434330866   112.61459569   180.04061859
 H     29  26  23     1.105857029927   109.20818453   302.29266698
 H     29  26  23     1.105859668289   109.20968051    57.61940548
 C     29  26  23     1.530616666740   113.15782013   179.95573414
 H     32  29  26     1.103765994710   111.29604661    59.83705599
 H     32  29  26     1.103754258905   111.29386646   300.13043542
 C      3   2   1     1.215819505462   179.54822432   182.44144594
 H      1   2   4     1.072374000531   179.55017476   328.05163120
 H     35   3   7     1.072467397770   179.65444167   355.85773913
 H     20  17  14     1.101859419311   111.44324752   180.00312326
 H     32  29  26     1.102115761963   111.50913426   179.98299719

---------------------------
INTERNAL COORDINATES (A.U.)
---------------------------
 C      0   0   0     0.000000000000     0.00000000     0.00000000
 C      1   0   0     2.300172704604     0.00000000     0.00000000
 C      2   1   0    10.735542862978   177.64740133     0.00000000
 C      2   1   3     2.698084284822   179.04098789     4.88395755
 C      4   2   1     2.726524490537   121.04115943   170.73551055
 C      5   4   2     2.690207273767   116.40940875   180.04250256
 C      6   5   4     2.637526674323   122.61642772     0.00000000
 C      7   6   5     2.700752848671   120.53451430     0.00000000
 C      8   7   6     2.640629321039   117.41574141     0.00000000
 H      6   5   4     2.060107028241   119.25290446   179.97372195
 H      9   8   7     2.059459644304   119.66547878   180.00401020
 C      5   4   2     2.669716620445   121.80168353     0.02653600
 H     12   5   4     2.065890394010   117.21282872     0.00000000
 C     12   5   4     2.833372367697   124.89824281   180.00328768
 H     14  12   5     2.097170629776   109.98224078   302.52491495
 H     14  12   5     2.097139523638   109.99562980    57.25191299
 C     14  12   5     2.899198631066   113.50703085   179.89831305
 H     17  14  12     2.088713663994   109.00159080   302.38291560
 H     17  14  12     2.088737053754   108.99511489    57.67838119
 C     17  14  12     2.890793549788   113.10575114   180.02885686
 H     20  17  14     2.085893056704   111.30839233    59.86338153
 H     20  17  14     2.085909871769   111.30588770   300.13928564
 C      8   7   6     2.862167512128   119.70734801   179.97863328
 H     23   8   7     2.090296578984   108.20869318   303.63256908
 H     23   8   7     2.090224911335   108.20498756    56.10248812
 C     23   8   7     2.892939990037   116.90901800   179.86322827
 H     26  23   8     2.089386261324   109.85973483   301.79885745
 H     26  23   8     2.089379446140   109.87342160    58.29631173
 C     26  23   8     2.897770929690   112.61459569   180.04061859
 H     29  26  23     2.089766929834   109.20818453   302.29266698
 H     29  26  23     2.089771915615   109.20968051    57.61940548
 C     29  26  23     2.892446316155   113.15782013   179.95573414
 H     32  29  26     2.085815445937   111.29604661    59.83705599
 H     32  29  26     2.085793268480   111.29386646   300.13043542
 C      3   2   1     2.297565893602   179.54822432   182.44144594
 H      1   2   4     2.026493174142   179.55017476   328.05163120
 H     35   3   7     2.026669669345   179.65444167   355.85773913
 H     20  17  14     2.082212540579   111.44324752   180.00312326
 H     32  29  26     2.082696957988   111.50913426   179.98299719

---------------------
BASIS SET INFORMATION
---------------------
There are 2 groups of distinct atoms

 Group   1 Type C   : 10s5p1d contracted to 6s2p1d pattern {511111/41/1}
 Group   2 Type H   : 6s1p contracted to 4s1p pattern {3111/1}

Atom   0C    basis set group =>   1
Atom   1C    basis set group =>   1
Atom   2C    basis set group =>   1
Atom   3C    basis set group =>   1
Atom   4C    basis set group =>   1
Atom   5C    basis set group =>   1
Atom   6C    basis set group =>   1
Atom   7C    basis set group =>   1
Atom   8C    basis set group =>   1
Atom   9H    basis set group =>   2
Atom  10H    basis set group =>   2
Atom  11C    basis set group =>   1
Atom  12H    basis set group =>   2
Atom  13C    basis set group =>   1
Atom  14H    basis set group =>   2
Atom  15H    basis set group =>   2
Atom  16C    basis set group =>   1
Atom  17H    basis set group =>   2
Atom  18H    basis set group =>   2
Atom  19C    basis set group =>   1
Atom  20H    basis set group =>   2
Atom  21H    basis set group =>   2
Atom  22C    basis set group =>   1
Atom  23H    basis set group =>   2
Atom  24H    basis set group =>   2
Atom  25C    basis set group =>   1
Atom  26H    basis set group =>   2
Atom  27H    basis set group =>   2
Atom  28C    basis set group =>   1
Atom  29H    basis set group =>   2
Atom  30H    basis set group =>   2
Atom  31C    basis set group =>   1
Atom  32H    basis set group =>   2
Atom  33H    basis set group =>   2
Atom  34C    basis set group =>   1
Atom  35H    basis set group =>   2
Atom  36H    basis set group =>   2
Atom  37H    basis set group =>   2
Atom  38H    basis set group =>   2
---------------------------------
AUXILIARY/J BASIS SET INFORMATION
---------------------------------
There are 2 groups of distinct atoms

 Group   1 Type C   : 17s13p12d2f contracted to 17s13p12d2f pattern {11111111111111111/1111111111111/111111111111/11}
 Group   2 Type H   : 15s6p1d contracted to 15s6p1d pattern {111111111111111/111111/1}

Atom   0C    basis set group =>   1
Atom   1C    basis set group =>   1
Atom   2C    basis set group =>   1
Atom   3C    basis set group =>   1
Atom   4C    basis set group =>   1
Atom   5C    basis set group =>   1
Atom   6C    basis set group =>   1
Atom   7C    basis set group =>   1
Atom   8C    basis set group =>   1
Atom   9H    basis set group =>   2
Atom  10H    basis set group =>   2
Atom  11C    basis set group =>   1
Atom  12H    basis set group =>   2
Atom  13C    basis set group =>   1
Atom  14H    basis set group =>   2
Atom  15H    basis set group =>   2
Atom  16C    basis set group =>   1
Atom  17H    basis set group =>   2
Atom  18H    basis set group =>   2
Atom  19C    basis set group =>   1
Atom  20H    basis set group =>   2
Atom  21H    basis set group =>   2
Atom  22C    basis set group =>   1
Atom  23H    basis set group =>   2
Atom  24H    basis set group =>   2
Atom  25C    basis set group =>   1
Atom  26H    basis set group =>   2
Atom  27H    basis set group =>   2
Atom  28C    basis set group =>   1
Atom  29H    basis set group =>   2
Atom  30H    basis set group =>   2
Atom  31C    basis set group =>   1
Atom  32H    basis set group =>   2
Atom  33H    basis set group =>   2
Atom  34C    basis set group =>   1
Atom  35H    basis set group =>   2
Atom  36H    basis set group =>   2
Atom  37H    basis set group =>   2
Atom  38H    basis set group =>   2
---------------------------------
AUXILIARY/C BASIS SET INFORMATION
---------------------------------
There are 2 groups of distinct atoms

 Group   1 Type C   : 17s13p12d2f contracted to 17s13p12d2f pattern {11111111111111111/1111111111111/111111111111/11}
 Group   2 Type H   : 15s6p1d contracted to 15s6p1d pattern {111111111111111/111111/1}

Atom   0C    basis set group =>   1
Atom   1C    basis set group =>   1
Atom   2C    basis set group =>   1
Atom   3C    basis set group =>   1
Atom   4C    basis set group =>   1
Atom   5C    basis set group =>   1
Atom   6C    basis set group =>   1
Atom   7C    basis set group =>   1
Atom   8C    basis set group =>   1
Atom   9H    basis set group =>   2
Atom  10H    basis set group =>   2
Atom  11C    basis set group =>   1
Atom  12H    basis set group =>   2
Atom  13C    basis set group =>   1
Atom  14H    basis set group =>   2
Atom  15H    basis set group =>   2
Atom  16C    basis set group =>   1
Atom  17H    basis set group =>   2
Atom  18H    basis set group =>   2
Atom  19C    basis set group =>   1
Atom  20H    basis set group =>   2
Atom  21H    basis set group =>   2
Atom  22C    basis set group =>   1
Atom  23H    basis set group =>   2
Atom  24H    basis set group =>   2
Atom  25C    basis set group =>   1
Atom  26H    basis set group =>   2
Atom  27H    basis set group =>   2
Atom  28C    basis set group =>   1
Atom  29H    basis set group =>   2
Atom  30H    basis set group =>   2
Atom  31C    basis set group =>   1
Atom  32H    basis set group =>   2
Atom  33H    basis set group =>   2
Atom  34C    basis set group =>   1
Atom  35H    basis set group =>   2
Atom  36H    basis set group =>   2
Atom  37H    basis set group =>   2
Atom  38H    basis set group =>   2
----------------------------------
AUXILIARY/JK BASIS SET INFORMATION
----------------------------------
There are 2 groups of distinct atoms

 Group   1 Type C   : 17s13p12d2f contracted to 17s13p12d2f pattern {11111111111111111/1111111111111/111111111111/11}
 Group   2 Type H   : 15s6p1d contracted to 15s6p1d pattern {111111111111111/111111/1}

Atom   0C    basis set group =>   1
Atom   1C    basis set group =>   1
Atom   2C    basis set group =>   1
Atom   3C    basis set group =>   1
Atom   4C    basis set group =>   1
Atom   5C    basis set group =>   1
Atom   6C    basis set group =>   1
Atom   7C    basis set group =>   1
Atom   8C    basis set group =>   1
Atom   9H    basis set group =>   2
Atom  10H    basis set group =>   2
Atom  11C    basis set group =>   1
Atom  12H    basis set group =>   2
Atom  13C    basis set group =>   1
Atom  14H    basis set group =>   2
Atom  15H    basis set group =>   2
Atom  16C    basis set group =>   1
Atom  17H    basis set group =>   2
Atom  18H    basis set group =>   2
Atom  19C    basis set group =>   1
Atom  20H    basis set group =>   2
Atom  21H    basis set group =>   2
Atom  22C    basis set group =>   1
Atom  23H    basis set group =>   2
Atom  24H    basis set group =>   2
Atom  25C    basis set group =>   1
Atom  26H    basis set group =>   2
Atom  27H    basis set group =>   2
Atom  28C    basis set group =>   1
Atom  29H    basis set group =>   2
Atom  30H    basis set group =>   2
Atom  31C    basis set group =>   1
Atom  32H    basis set group =>   2
Atom  33H    basis set group =>   2
Atom  34C    basis set group =>   1
Atom  35H    basis set group =>   2
Atom  36H    basis set group =>   2
Atom  37H    basis set group =>   2
Atom  38H    basis set group =>   2


           ************************************************************
           *        Program running with 16 parallel MPI-processes    *
           *              working on a common directory               *
           ************************************************************
------------------------------------------------------------------------------
                           ORCA GTO INTEGRAL CALCULATION
                           -- RI-GTO INTEGRALS CHOSEN --
------------------------------------------------------------------------------
------------------------------------------------------------------------------
                   ___                                                        
                  /   \      - P O W E R E D   B Y -                         
                 /     \                                                     
                 |  |  |   _    _      __       _____    __    __             
                 |  |  |  | |  | |    /  \     |  _  \  |  |  /  |          
                  \  \/   | |  | |   /    \    | | | |  |  | /  /          
                 / \  \   | |__| |  /  /\  \   | |_| |  |  |/  /          
                |  |  |   |  __  | /  /__\  \  |    /   |      \           
                |  |  |   | |  | | |   __   |  |    \   |  |\   \          
                \     /   | |  | | |  |  |  |  | |\  \  |  | \   \       
                 \___/    |_|  |_| |__|  |__|  |_| \__\ |__|  \__/        
                                                                              
                      - O R C A' S   B I G   F R I E N D -                    
                                      &                                       
                       - I N T E G R A L  F E E D E R -                       
                                                                              
 v1 FN, 2020, v2 2021                                                         
------------------------------------------------------------------------------


Reading SHARK input file EPRII.SHARKINP.tmp ... ok
----------------------
SHARK INTEGRAL PACKAGE
----------------------

Number of atoms                             ...     39
Number of basis functions                   ...    453
Number of shells                            ...    267
Maximum angular momentum                    ...      2
Integral batch strategy                     ... SHARK/LIBINT Hybrid
RI-J (if used) integral strategy            ... SPLIT-RIJ (Revised 2003 algorithm where possible)
Printlevel                                  ...      1
Contraction scheme used                     ... SEGMENTED contraction
Coulomb Range Separation                    ... NOT USED
Exchange Range Separation                   ... NOT USED
Finite Nucleus Model                        ... NOT USED
Auxiliary Coulomb fitting basis             ... AVAILABLE
   # of basis functions in Aux-J            ...   3138
   # of shells in Aux-J                     ...   1254
   Maximum angular momentum in Aux-J        ...      3
Auxiliary J/K fitting basis                 ... AVAILABLE
   # of basis functions in Aux-JK           ...   3138
   # of shells in Aux-JK                    ...   1254
   Maximum angular momentum in Aux-JK       ...      3
Auxiliary Correlation fitting basis         ... AVAILABLE
   # of basis functions in Aux-C            ...   3138
   # of shells in Aux-C                     ...   1254
   Maximum angular momentum in Aux-C        ...      3
Auxiliary 'external' fitting basis          ... NOT available
Integral threshold                          ...     1.000000e-10
Primitive cut-off                           ...     1.000000e-11
Primitive pair pre-selection threshold      ...     1.000000e-11

Calculating pre-screening integrals         ... done (  0.0 sec) Dimension = 267
Organizing shell pair data                  ... done (  0.1 sec)
Shell pair information
Total number of shell pairs                 ...     35778
Shell pairs after pre-screening             ...     20491
Total number of primitive shell pairs       ...     95181
Primitive shell pairs kept                  ...     39182
          la=0 lb=0:   9377 shell pairs
          la=1 lb=0:   7080 shell pairs
          la=1 lb=1:   1238 shell pairs
          la=2 lb=0:   1951 shell pairs
          la=2 lb=1:    724 shell pairs
          la=2 lb=2:    121 shell pairs

Calculating one electron integrals          ... done (  0.0 sec)
Calculating RI/J V-Matrix + Cholesky decomp.... done (  0.6 sec)
Calculating RI/JK V-Matrix + Cholesky decomp... done (  0.6 sec)
Calculating RI/C V-Matrix + Cholesky decomp.... done (  0.6 sec)
Calculating Nuclear repulsion               ... done (  0.0 sec) ENN=   1144.886103824135 Eh

SHARK setup successfully completed in   2.3 seconds

Maximum memory used throughout the entire GTOINT-calculation: 39.5 MB


           ************************************************************
           *        Program running with 16 parallel MPI-processes    *
           *              working on a common directory               *
           ************************************************************
-------------------------------------------------------------------------------
                                 ORCA SCF
-------------------------------------------------------------------------------

------------
SCF SETTINGS
------------
Hamiltonian:
 Density Functional     Method          .... DFT(GTOs)
 Exchange Functional    Exchange        .... B88
   X-Alpha parameter    XAlpha          ....  0.666667
   Becke's b parameter  XBeta           ....  0.004200
 Correlation Functional Correlation     .... LYP
 LDA part of GGA corr.  LDAOpt          .... VWN-5
 Gradients option       PostSCFGGA      .... off
 Hybrid DFT is turned on
   Fraction HF Exchange ScalHFX         ....  0.200000
   Scaling of DF-GGA-X  ScalDFX         ....  0.720000
   Scaling of DF-GGA-C  ScalDFC         ....  0.810000
   Scaling of DF-LDA-C  ScalLDAC        ....  1.000000
   Perturbative correction              ....  0.000000
   Density functional embedding theory  .... OFF
   NL short-range parameter             ....  4.800000
 RI-approximation to the Coulomb term is turned on
   Number of AuxJ basis functions       .... 3138
   RIJ-COSX (HFX calculated with COS-X)).... on


General Settings:
 Integral files         IntName         .... EPRII
 Hartree-Fock type      HFTyp           .... UHF
 Total Charge           Charge          ....    0
 Multiplicity           Mult            ....    2
 Number of Electrons    NEL             ....  129
 Basis Dimension        Dim             ....  453
 Nuclear Repulsion      ENuc            ....   1144.8861038241 Eh

Convergence Acceleration:
 DIIS                   CNVDIIS         .... on
   Start iteration      DIISMaxIt       ....    12
   Startup error        DIISStart       ....  0.200000
   # of expansion vecs  DIISMaxEq       ....     5
   Bias factor          DIISBfac        ....   1.050
   Max. coefficient     DIISMaxC        ....  10.000
 Trust-Rad. Augm. Hess. CNVTRAH         .... auto
   Auto Start mean grad. ratio tolernc. ....  1.125000
   Auto Start start iteration           ....    20
   Auto Start num. interpolation iter.  ....    10
   Max. Number of Micro iterations      ....    16
   Max. Number of Macro iterations      .... Maxiter - #DIIS iter
   Number of Davidson start vectors     ....     2
   Converg. threshold I  (grad. norm)   ....   5.000e-05
   Converg. threshold II (energy diff.) ....   1.000e-06
   Grad. Scal. Fac. for Micro threshold ....   0.100
   Minimum threshold for Micro iter.    ....   0.010
   NR start threshold (gradient norm)   ....   0.001
   Initial trust radius                 ....   0.400
   Minimum AH scaling param. (alpha)    ....   1.000
   Maximum AH scaling param. (alpha)    .... 1000.000
   Orbital update algorithm             .... Taylor
   White noise on init. David. guess    .... on
   Maximum white noise                  ....   0.010
   Quad. conv. algorithm                .... NR
 SOSCF                  CNVSOSCF        .... off
 Level Shifting         CNVShift        .... on
   Level shift para.    LevelShift      ....    0.2500
   Turn off err/grad.   ShiftErr        ....    0.0010
 Zerner damping         CNVZerner       .... off
 Static damping         CNVDamp         .... on
   Fraction old density DampFac         ....    0.7000
   Max. Damping (<1)    DampMax         ....    0.9800
   Min. Damping (>=0)   DampMin         ....    0.0000
   Turn off err/grad.   DampErr         ....    0.1000
 Fernandez-Rico         CNVRico         .... off

SCF Procedure:
 Maximum # iterations   MaxIter         ....   125
 SCF integral mode      SCFMode         .... Direct
   Integral package                     .... SHARK and LIBINT hybrid scheme
 Reset frequency        DirectResetFreq ....    20
 Integral Threshold     Thresh          ....  1.000e-10 Eh
 Primitive CutOff       TCut            ....  1.000e-11 Eh

Convergence Tolerance:
 Convergence Check Mode ConvCheckMode   .... Total+1el-Energy
 Convergence forced     ConvForced      .... 0
 Energy Change          TolE            ....  1.000e-06 Eh
 1-El. energy change                    ....  1.000e-03 Eh
 DIIS Error             TolErr          ....  1.000e-06


Diagonalization of the overlap matrix:
Smallest eigenvalue                        ... 1.322e-04
Time for diagonalization                   ...    0.037 sec
Threshold for overlap eigenvalues          ... 1.000e-08
Number of eigenvalues below threshold      ... 0
Time for construction of square roots      ...    0.043 sec
Total time needed                          ...    0.082 sec

Time for model grid setup =    0.209 sec

------------------------------
INITIAL GUESS: MODEL POTENTIAL
------------------------------
Loading Hartree-Fock densities                     ... done
Calculating cut-offs                               ... done
Initializing the effective Hamiltonian             ... done
Setting up the integral package (SHARK)            ... done
Starting the Coulomb interaction                   ... done (   0.3 sec)
Reading the grid                                   ... done
Mapping shells                                     ... done
Starting the XC term evaluation                    ... done (   0.1 sec)
  promolecular density results
     # of electrons  =    128.989777565
     EX              =    -98.637901169
     EC              =     -4.220030095
     EX+EC           =   -102.857931264
Transforming the Hamiltonian                       ... done (   0.0 sec)
Diagonalizing the Hamiltonian                      ... done (   0.0 sec)
Back transforming the eigenvectors                 ... done (   0.0 sec)
Now organizing SCF variables                       ... done
                      ------------------
                      INITIAL GUESS DONE (   0.8 sec)
                      ------------------
-------------------
DFT GRID GENERATION
-------------------

General Integration Accuracy     IntAcc      ... 4.388
Radial Grid Type                 RadialGrid  ... OptM3 with GC (2021)
Angular Grid (max. ang.)         AngularGrid ... 4 (Lebedev-302)
Angular grid pruning method      GridPruning ... 4 (adaptive)
Weight generation scheme         WeightScheme... Becke
Basis function cutoff            BFCut       ... 1.0000e-10
Integration weight cutoff        WCut        ... 1.0000e-14
Angular grids for H and He will be reduced by one unit
Partially contracted basis set               ... off
Rotationally invariant grid construction     ... off

Total number of grid points                  ...   174685
Total number of batches                      ...     2747
Average number of points per batch           ...       63
Average number of grid points per atom       ...     4479
Time for grid setup =    0.942 sec

--------------------
COSX GRID GENERATION
--------------------

GRIDX 1
-------
General Integration Accuracy     IntAcc      ... 3.816
Radial Grid Type                 RadialGrid  ... OptM3 with GC (2021)
Angular Grid (max. ang.)         AngularGrid ... 1 (Lebedev-50)
Angular grid pruning method      GridPruning ... 4 (adaptive)
Weight generation scheme         WeightScheme... Becke
Basis function cutoff            BFCut       ... 1.0000e-10
Integration weight cutoff        WCut        ... 1.0000e-14
Angular grids for H and He will be reduced by one unit
Partially contracted basis set               ... on
Rotationally invariant grid construction     ... off

Total number of grid points                  ...    22264
Total number of batches                      ...      371
Average number of points per batch           ...       60
Average number of grid points per atom       ...      571
UseSFitting                                  ... on

GRIDX 2
-------
General Integration Accuracy     IntAcc      ... 4.020
Radial Grid Type                 RadialGrid  ... OptM3 with GC (2021)
Angular Grid (max. ang.)         AngularGrid ... 2 (Lebedev-110)
Angular grid pruning method      GridPruning ... 4 (adaptive)
Weight generation scheme         WeightScheme... Becke
Basis function cutoff            BFCut       ... 1.0000e-10
Integration weight cutoff        WCut        ... 1.0000e-14
Angular grids for H and He will be reduced by one unit
Partially contracted basis set               ... on
Rotationally invariant grid construction     ... off

Total number of grid points                  ...    47311
Total number of batches                      ...      761
Average number of points per batch           ...       62
Average number of grid points per atom       ...     1213
UseSFitting                                  ... on

GRIDX 3
-------
General Integration Accuracy     IntAcc      ... 4.338
Radial Grid Type                 RadialGrid  ... OptM3 with GC (2021)
Angular Grid (max. ang.)         AngularGrid ... 3 (Lebedev-194)
Angular grid pruning method      GridPruning ... 4 (adaptive)
Weight generation scheme         WeightScheme... Becke
Basis function cutoff            BFCut       ... 1.0000e-10
Integration weight cutoff        WCut        ... 1.0000e-14
Angular grids for H and He will be reduced by one unit
Partially contracted basis set               ... on
Rotationally invariant grid construction     ... off

Total number of grid points                  ...   103513
Total number of batches                      ...     1637
Average number of points per batch           ...       63
Average number of grid points per atom       ...     2654
UseSFitting                                  ... on

Time for X-Grid setup             =    1.780 sec

--------------
SCF ITERATIONS
--------------
ITER       Energy         Delta-E        Max-DP      RMS-DP      [F,P]     Damp
               ***  Starting incremental Fock matrix formation  ***
  0   -697.5943813065   0.000000000000 0.07304427  0.00098271  0.0796441 0.7000
  1   -697.7856712442  -0.191289937654 0.04833599  0.00073920  0.0426350 0.7000
                               ***Turning on DIIS***
  2   -697.8719591976  -0.086287953471 0.12819778  0.00160979  0.0165408 0.0000
  3   -697.9923335538  -0.120374356190 0.02543459  0.00040405  0.0233808 0.0000
  4   -698.0256612599  -0.033327706072 0.02863461  0.00024110  0.0052224 0.0000
  5   -698.0273559729  -0.001694713045 0.01644127  0.00012574  0.0029642 0.0000
  6   -698.0276402166  -0.000284243634 0.00630591  0.00005222  0.0021550 0.0000
  7   -698.0277536679  -0.000113451292 0.00284641  0.00002680  0.0014765 0.0000
  8   -698.0278158456  -0.000062177730 0.00462371  0.00003174  0.0009376 0.0000
               *** Restarting incremental Fock matrix formation ***
                                   *** Resetting DIIS ***
  9   -698.0281607870  -0.000344941355 0.00261258  0.00002274  0.0005696 0.0000
 10   -698.0281592357   0.000001551223 0.00054779  0.00000412  0.0012062 0.0000
 11   -698.0281690546  -0.000009818854 0.00061170  0.00000417  0.0003854 0.0000
 12   -698.0281718781  -0.000002823541 0.00087807  0.00000525  0.0001506 0.0000
 13   -698.0281737606  -0.000001882432 0.00025359  0.00000191  0.0000756 0.0000
                 **** Energy Check signals convergence ****

               *****************************************************
               *                     SUCCESS                       *
               *           SCF CONVERGED AFTER  14 CYCLES          *
               *****************************************************

Old exchange energy                            =    -20.106273348 Eh
New exchange energy                            =    -20.106248442 Eh
Exchange energy change after final integration =      0.000024907 Eh
Total energy after final integration           =   -698.028149002 Eh
Final COS-X integration done in                =     7.503 sec

----------------
TOTAL SCF ENERGY
----------------

Total Energy       :         -698.02814900 Eh          -18994.31159 eV

Components:
Nuclear Repulsion  :         1144.88610382 Eh           31153.93472 eV
Electronic Energy  :        -1842.91425283 Eh          -50148.24631 eV
One Electron Energy:        -3212.80304448 Eh          -87424.81543 eV
Two Electron Energy:         1369.88879165 Eh           37276.56913 eV
Max COSX asymmetry :            0.00000330 Eh               0.00009 eV

Virial components:
Potential Energy   :        -1390.45908784 Eh          -37836.31534 eV
Kinetic Energy     :          692.43093884 Eh           18842.00375 eV
Virial Ratio       :            2.00808342


DFT components:
N(Alpha)           :       65.000101580750 electrons
N(Beta)            :       64.000088950946 electrons
N(Total)           :      129.000190531695 electrons
E(X)               :      -79.748298834483 Eh       
E(C)               :       -4.991108572730 Eh       
E(XC)              :      -84.739407407213 Eh       
DFET-embed. en.    :        0.000000000000 Eh       

---------------
SCF CONVERGENCE
---------------

  Last Energy change         ...   -1.4837e-07  Tolerance :   1.0000e-06
  Last MAX-Density change    ...    0.0000e+00  Tolerance :   1.0000e-05
  Last RMS-Density change    ...    0.0000e+00  Tolerance :   1.0000e-06
  Last DIIS Error            ...    5.7999e-05  Tolerance :   1.0000e-06

             **** THE GBW FILE WAS UPDATED (EPRII.gbw) ****
             **** DENSITY EPRII.scfp WAS UPDATED ****
             **** ENERGY FILE WAS UPDATED (EPRII.en.tmp) ****
----------------------
UHF SPIN CONTAMINATION
----------------------

Warning: in a DFT calculation there is little theoretical justification to 
         calculate <S**2> as in Hartree-Fock theory. We will do it anyways
         but you should keep in mind that the values have only limited relevance

Expectation value of <S**2>     :     0.785655
Ideal value S*(S+1) for S=0.5   :     0.750000
Deviation                       :     0.035655

             **** THE GBW FILE WAS UPDATED (EPRII.gbw) ****
             **** DENSITY EPRII.scfp WAS UPDATED ****
----------------
ORBITAL ENERGIES
----------------
                 SPIN UP ORBITALS
  NO   OCC          E(Eh)            E(eV) 
   0   1.0000     -10.225933      -278.2618 
   1   1.0000     -10.224166      -278.2137 
   2   1.0000     -10.213687      -277.9285 
   3   1.0000     -10.210619      -277.8451 
   4   1.0000     -10.207182      -277.7516 
   5   1.0000     -10.205207      -277.6978 
   6   1.0000     -10.204212      -277.6707 
   7   1.0000     -10.199658      -277.5468 
   8   1.0000     -10.199181      -277.5338 
   9   1.0000     -10.198462      -277.5143 
  10   1.0000     -10.197808      -277.4965 
  11   1.0000     -10.190820      -277.3063 
  12   1.0000     -10.188768      -277.2505 
  13   1.0000     -10.185566      -277.1633 
  14   1.0000     -10.182997      -277.0934 
  15   1.0000     -10.182570      -277.0818 
  16   1.0000     -10.175501      -276.8894 
  17   1.0000     -10.173274      -276.8289 
  18   1.0000      -0.875737       -23.8300 
  19   1.0000      -0.820698       -22.3323 
  20   1.0000      -0.798475       -21.7276 
  21   1.0000      -0.795174       -21.6378 
  22   1.0000      -0.768077       -20.9004 
  23   1.0000      -0.754666       -20.5355 
  24   1.0000      -0.730858       -19.8876 
  25   1.0000      -0.723217       -19.6797 
  26   1.0000      -0.697814       -18.9885 
  27   1.0000      -0.656897       -17.8751 
  28   1.0000      -0.641121       -17.4458 
  29   1.0000      -0.617391       -16.8001 
  30   1.0000      -0.594556       -16.1787 
  31   1.0000      -0.580395       -15.7933 
  32   1.0000      -0.563379       -15.3303 
  33   1.0000      -0.544055       -14.8045 
  34   1.0000      -0.526238       -14.3197 
  35   1.0000      -0.500574       -13.6213 
  36   1.0000      -0.488000       -13.2792 
  37   1.0000      -0.478650       -13.0247 
  38   1.0000      -0.470830       -12.8119 
  39   1.0000      -0.463051       -12.6003 
  40   1.0000      -0.434490       -11.8231 
  41   1.0000      -0.430693       -11.7198 
  42   1.0000      -0.426361       -11.6019 
  43   1.0000      -0.422456       -11.4956 
  44   1.0000      -0.412257       -11.2181 
  45   1.0000      -0.399357       -10.8671 
  46   1.0000      -0.398329       -10.8391 
  47   1.0000      -0.381453       -10.3799 
  48   1.0000      -0.379958       -10.3392 
  49   1.0000      -0.365633        -9.9494 
  50   1.0000      -0.358187        -9.7468 
  51   1.0000      -0.355167        -9.6646 
  52   1.0000      -0.340556        -9.2670 
  53   1.0000      -0.333066        -9.0632 
  54   1.0000      -0.332413        -9.0454 
  55   1.0000      -0.331269        -9.0143 
  56   1.0000      -0.327699        -8.9171 
  57   1.0000      -0.324120        -8.8198 
  58   1.0000      -0.321142        -8.7387 
  59   1.0000      -0.287061        -7.8113 
  60   1.0000      -0.278690        -7.5835 
  61   1.0000      -0.277054        -7.5390 
  62   1.0000      -0.272091        -7.4040 
  63   1.0000      -0.232841        -6.3359 
  64   1.0000      -0.175546        -4.7769 
  65   0.0000      -0.051440        -1.3998 
  66   0.0000       0.008179         0.2226 
  67   0.0000       0.018714         0.5092 
  68   0.0000       0.021118         0.5747 
  69   0.0000       0.024388         0.6636 
  70   0.0000       0.030076         0.8184 
  71   0.0000       0.036765         1.0004 
  72   0.0000       0.038436         1.0459 
  73   0.0000       0.040967         1.1148 
  74   0.0000       0.045171         1.2292 
  75   0.0000       0.046859         1.2751 
  76   0.0000       0.049055         1.3348 
  77   0.0000       0.050646         1.3782 
  78   0.0000       0.073359         1.9962 
  79   0.0000       0.078847         2.1455 
  80   0.0000       0.087476         2.3804 
  81   0.0000       0.097361         2.6493 
  82   0.0000       0.107183         2.9166 
  83   0.0000       0.108370         2.9489 
  84   0.0000       0.123455         3.3594 
  85   0.0000       0.136724         3.7205 
  86   0.0000       0.149883         4.0785 
  87   0.0000       0.157227         4.2784 
  88   0.0000       0.157629         4.2893 
  89   0.0000       0.160517         4.3679 
  90   0.0000       0.174441         4.7468 
  91   0.0000       0.180670         4.9163 
  92   0.0000       0.184389         5.0175 
  93   0.0000       0.188093         5.1183 
  94   0.0000       0.194878         5.3029 
  95   0.0000       0.198279         5.3954 
  96   0.0000       0.199384         5.4255 
  97   0.0000       0.199924         5.4402 
  98   0.0000       0.202387         5.5072 
  99   0.0000       0.206697         5.6245 
 100   0.0000       0.214382         5.8336 
 101   0.0000       0.218127         5.9355 
 102   0.0000       0.221608         6.0303 
 103   0.0000       0.232623         6.3300 
 104   0.0000       0.237859         6.4725 
 105   0.0000       0.243886         6.6365 
 106   0.0000       0.250789         6.8243 
 107   0.0000       0.251064         6.8318 
 108   0.0000       0.258705         7.0397 
 109   0.0000       0.259660         7.0657 
 110   0.0000       0.266803         7.2601 
 111   0.0000       0.272638         7.4189 
 112   0.0000       0.276521         7.5245 
 113   0.0000       0.279694         7.6109 
 114   0.0000       0.284864         7.7515 
 115   0.0000       0.287941         7.8353 
 116   0.0000       0.296891         8.0788 
 117   0.0000       0.298457         8.1214 
 118   0.0000       0.300073         8.1654 
 119   0.0000       0.300813         8.1855 
 120   0.0000       0.310439         8.4475 
 121   0.0000       0.315240         8.5781 
 122   0.0000       0.318049         8.6546 
 123   0.0000       0.322280         8.7697 
 124   0.0000       0.325262         8.8508 
 125   0.0000       0.330478         8.9928 
 126   0.0000       0.334532         9.1031 
 127   0.0000       0.338131         9.2010 
 128   0.0000       0.349958         9.5229 
 129   0.0000       0.352133         9.5820 
 130   0.0000       0.358801         9.7635 
 131   0.0000       0.361775         9.8444 
 132   0.0000       0.363790         9.8992 
 133   0.0000       0.368293        10.0218 
 134   0.0000       0.377294        10.2667 
 135   0.0000       0.380324        10.3492 
 136   0.0000       0.383930        10.4473 
 137   0.0000       0.394306        10.7296 
 138   0.0000       0.397952        10.8288 
 139   0.0000       0.398856        10.8534 
 140   0.0000       0.407902        11.0996 
 141   0.0000       0.409826        11.1519 
 142   0.0000       0.416431        11.3317 
 143   0.0000       0.423920        11.5354 
 144   0.0000       0.435551        11.8520 
 145   0.0000       0.442339        12.0367 
 146   0.0000       0.443030        12.0555 
 147   0.0000       0.447912        12.1883 
 148   0.0000       0.457169        12.4402 
 149   0.0000       0.463900        12.6234 
 150   0.0000       0.473272        12.8784 
 151   0.0000       0.479895        13.0586 
 152   0.0000       0.484331        13.1793 
 153   0.0000       0.497213        13.5299 
 154   0.0000       0.507153        13.8003 
 155   0.0000       0.508424        13.8349 
 156   0.0000       0.517202        14.0738 
 157   0.0000       0.521095        14.1797 
 158   0.0000       0.533855        14.5269 
 159   0.0000       0.540498        14.7077 
 160   0.0000       0.545292        14.8382 
 161   0.0000       0.551182        14.9984 
 162   0.0000       0.551741        15.0136 
 163   0.0000       0.562488        15.3061 
 164   0.0000       0.571063        15.5394 
 165   0.0000       0.585671        15.9369 
 166   0.0000       0.591600        16.0982 
 167   0.0000       0.592446        16.1213 
 168   0.0000       0.594241        16.1701 
 169   0.0000       0.603437        16.4204 
 170   0.0000       0.624380        16.9902 
 171   0.0000       0.634077        17.2541 
 172   0.0000       0.653527        17.7834 
 173   0.0000       0.668997        18.2043 
 174   0.0000       0.675318        18.3763 
 175   0.0000       0.706562        19.2265 
 176   0.0000       0.729805        19.8590 
 177   0.0000       0.769004        20.9257 
 178   0.0000       0.785094        21.3635 
 179   0.0000       0.788103        21.4454 
 180   0.0000       0.790433        21.5088 
 181   0.0000       0.810341        22.0505 
 182   0.0000       0.821459        22.3530 
 183   0.0000       0.835363        22.7314 
 184   0.0000       0.839728        22.8502 
 185   0.0000       0.847022        23.0487 
 186   0.0000       0.856935        23.3184 
 187   0.0000       0.857666        23.3383 
 188   0.0000       0.861071        23.4309 
 189   0.0000       0.879011        23.9191 
 190   0.0000       0.879478        23.9318 
 191   0.0000       0.883838        24.0505 
 192   0.0000       0.892544        24.2874 
 193   0.0000       0.905038        24.6273 
 194   0.0000       0.911860        24.8130 
 195   0.0000       0.913175        24.8488 
 196   0.0000       0.919575        25.0229 
 197   0.0000       0.923054        25.1176 
 198   0.0000       0.926614        25.2144 
 199   0.0000       0.934404        25.4264 
 200   0.0000       0.942615        25.6499 
 201   0.0000       0.955209        25.9926 
 202   0.0000       0.957995        26.0684 
 203   0.0000       0.968423        26.3521 
 204   0.0000       0.969005        26.3680 
 205   0.0000       0.976608        26.5749 
 206   0.0000       0.982599        26.7379 
 207   0.0000       0.984826        26.7985 
 208   0.0000       0.997013        27.1301 
 209   0.0000       1.002244        27.2724 
 210   0.0000       1.008901        27.4536 
 211   0.0000       1.026108        27.9218 
 212   0.0000       1.031465        28.0676 
 213   0.0000       1.037889        28.2424 
 214   0.0000       1.040286        28.3076 
 215   0.0000       1.045914        28.4608 
 216   0.0000       1.050537        28.5866 
 217   0.0000       1.059133        28.8205 
 218   0.0000       1.062824        28.9209 
 219   0.0000       1.085886        29.5485 
 220   0.0000       1.101641        29.9772 
 221   0.0000       1.106087        30.0981 
 222   0.0000       1.110394        30.2154 
 223   0.0000       1.119159        30.4539 
 224   0.0000       1.127685        30.6859 
 225   0.0000       1.137018        30.9398 
 226   0.0000       1.149992        31.2929 
 227   0.0000       1.160753        31.5857 
 228   0.0000       1.170122        31.8406 
 229   0.0000       1.176157        32.0049 
 230   0.0000       1.183250        32.1979 
 231   0.0000       1.185814        32.2676 
 232   0.0000       1.201496        32.6944 
 233   0.0000       1.205682        32.8083 
 234   0.0000       1.219793        33.1922 
 235   0.0000       1.227408        33.3995 
 236   0.0000       1.236533        33.6478 
 237   0.0000       1.239304        33.7232 
 238   0.0000       1.252093        34.0712 
 239   0.0000       1.253691        34.1147 
 240   0.0000       1.258549        34.2469 
 241   0.0000       1.261256        34.3205 
 242   0.0000       1.279230        34.8096 
 243   0.0000       1.285965        34.9929 
 244   0.0000       1.304024        35.4843 
 245   0.0000       1.316462        35.8228 
 246   0.0000       1.320737        35.9391 
 247   0.0000       1.332482        36.2587 
 248   0.0000       1.342559        36.5329 
 249   0.0000       1.352122        36.7931 
 250   0.0000       1.369997        37.2795 
 251   0.0000       1.376487        37.4561 
 252   0.0000       1.386754        37.7355 
 253   0.0000       1.397960        38.0404 
 254   0.0000       1.399473        38.0816 
 255   0.0000       1.423433        38.7336 
 256   0.0000       1.426839        38.8263 
 257   0.0000       1.427815        38.8528 
 258   0.0000       1.432882        38.9907 
 259   0.0000       1.441497        39.2251 
 260   0.0000       1.445159        39.3248 
 261   0.0000       1.463766        39.8311 
 262   0.0000       1.465981        39.8914 
 263   0.0000       1.480041        40.2740 
 264   0.0000       1.499675        40.8082 
 265   0.0000       1.507595        41.0238 
 266   0.0000       1.512391        41.1542 
 267   0.0000       1.514749        41.2184 
 268   0.0000       1.520520        41.3755 
 269   0.0000       1.548202        42.1287 
 270   0.0000       1.559687        42.4412 
 271   0.0000       1.560807        42.4717 
 272   0.0000       1.562573        42.5198 
 273   0.0000       1.571893        42.7734 
 274   0.0000       1.586283        43.1650 
 275   0.0000       1.589465        43.2516 
 276   0.0000       1.590127        43.2696 
 277   0.0000       1.599193        43.5163 
 278   0.0000       1.603581        43.6357 
 279   0.0000       1.613175        43.8967 
 280   0.0000       1.624748        44.2116 
 281   0.0000       1.627463        44.2855 
 282   0.0000       1.635464        44.5033 
 283   0.0000       1.656026        45.0628 
 284   0.0000       1.658435        45.1283 
 285   0.0000       1.675936        45.6045 
 286   0.0000       1.687131        45.9092 
 287   0.0000       1.689233        45.9664 
 288   0.0000       1.692914        46.0665 
 289   0.0000       1.703235        46.3474 
 290   0.0000       1.704063        46.3699 
 291   0.0000       1.723687        46.9039 
 292   0.0000       1.728467        47.0340 
 293   0.0000       1.740477        47.3608 
 294   0.0000       1.741389        47.3856 
 295   0.0000       1.748979        47.5921 
 296   0.0000       1.769391        48.1476 
 297   0.0000       1.771507        48.2052 
 298   0.0000       1.778050        48.3832 
 299   0.0000       1.786331        48.6085 
 300   0.0000       1.798356        48.9358 
 301   0.0000       1.803005        49.0623 
 302   0.0000       1.804949        49.1152 
 303   0.0000       1.819158        49.5018 
 304   0.0000       1.826555        49.7031 
 305   0.0000       1.843952        50.1765 
 306   0.0000       1.864326        50.7309 
 307   0.0000       1.899817        51.6967 
 308   0.0000       1.917587        52.1802 
 309   0.0000       1.927836        52.4591 
 310   0.0000       1.928118        52.4668 
 311   0.0000       1.933509        52.6135 
 312   0.0000       1.937985        52.7353 
 313   0.0000       1.952214        53.1225 
 314   0.0000       1.979925        53.8765 
 315   0.0000       2.008227        54.6466 
 316   0.0000       2.035263        55.3823 
 317   0.0000       2.043988        55.6198 
 318   0.0000       2.054681        55.9107 
 319   0.0000       2.074484        56.4496 
 320   0.0000       2.088176        56.8222 
 321   0.0000       2.102933        57.2237 
 322   0.0000       2.105600        57.2963 
 323   0.0000       2.125626        57.8412 
 324   0.0000       2.127060        57.8803 
 325   0.0000       2.155962        58.6667 
 326   0.0000       2.157959        58.7211 
 327   0.0000       2.180665        59.3389 
 328   0.0000       2.189897        59.5901 
 329   0.0000       2.208533        60.0972 
 330   0.0000       2.213247        60.2255 
 331   0.0000       2.238372        60.9092 
 332   0.0000       2.243886        61.0593 
 333   0.0000       2.250707        61.2449 
 334   0.0000       2.256823        61.4113 
 335   0.0000       2.268121        61.7187 
 336   0.0000       2.279837        62.0375 
 337   0.0000       2.303105        62.6707 
 338   0.0000       2.310525        62.8726 
 339   0.0000       2.314977        62.9937 
 340   0.0000       2.325688        63.2852 
 341   0.0000       2.330405        63.4136 
 342   0.0000       2.353904        64.0530 
 343   0.0000       2.374917        64.6248 
 344   0.0000       2.384426        64.8835 
 345   0.0000       2.411339        65.6159 
 346   0.0000       2.427661        66.0600 
 347   0.0000       2.432008        66.1783 
 348   0.0000       2.442749        66.4706 
 349   0.0000       2.457834        66.8811 
 350   0.0000       2.471625        67.2563 
 351   0.0000       2.474670        67.3392 
 352   0.0000       2.482768        67.5595 
 353   0.0000       2.505907        68.1892 
 354   0.0000       2.510521        68.3148 
 355   0.0000       2.524628        68.6986 
 356   0.0000       2.534621        68.9705 
 357   0.0000       2.551341        69.4255 
 358   0.0000       2.558949        69.6326 
 359   0.0000       2.560717        69.6806 
 360   0.0000       2.571119        69.9637 
 361   0.0000       2.581272        70.2400 
 362   0.0000       2.603919        70.8562 
 363   0.0000       2.615127        71.1612 
 364   0.0000       2.626358        71.4668 
 365   0.0000       2.628552        71.5265 
 366   0.0000       2.716410        73.9173 
 367   0.0000       2.773705        75.4763 
 368   0.0000       2.795436        76.0677 
 369   0.0000       2.830549        77.0232 
 370   0.0000       2.905541        79.0638 
 371   0.0000       2.959789        80.5399 
 372   0.0000       2.967633        80.7534 
 373   0.0000       2.984817        81.2210 
 374   0.0000       3.291015        89.5531 
 375   0.0000       4.977987       135.4579 
 376   0.0000       4.984853       135.6447 
 377   0.0000       4.997173       135.9800 
 378   0.0000       5.009634       136.3191 
 379   0.0000       5.010501       136.3427 
 380   0.0000       5.019531       136.5884 
 381   0.0000       5.023609       136.6994 
 382   0.0000       5.024553       136.7250 
 383   0.0000       5.034423       136.9936 
 384   0.0000       5.046715       137.3281 
 385   0.0000       5.201254       141.5333 
 386   0.0000       5.216050       141.9359 
 387   0.0000       5.234165       142.4289 
 388   0.0000       5.245029       142.7245 
 389   0.0000       5.277116       143.5976 
 390   0.0000       5.287472       143.8794 
 391   0.0000       5.296176       144.1163 
 392   0.0000       5.305165       144.3609 
 393   0.0000       5.308331       144.4470 
 394   0.0000       5.337608       145.2437 
 395   0.0000       5.362385       145.9179 
 396   0.0000       5.374880       146.2579 
 397   0.0000       5.394407       146.7893 
 398   0.0000       5.407740       147.1521 
 399   0.0000       5.446739       148.2133 
 400   0.0000       5.550785       151.0446 
 401   0.0000       5.563511       151.3908 
 402   0.0000       5.601214       152.4168 
 403   0.0000       5.628429       153.1574 
 404   0.0000       5.634025       153.3096 
 405   0.0000       5.726462       155.8249 
 406   0.0000       5.735908       156.0820 
 407   0.0000       5.758390       156.6938 
 408   0.0000       5.821476       158.4104 
 409   0.0000       5.848859       159.1555 
 410   0.0000       5.882395       160.0681 
 411   0.0000       6.021865       163.8633 
 412   0.0000       6.246656       169.9802 
 413   0.0000       6.371389       173.3743 
 414   0.0000      29.632983       806.3545 
 415   0.0000      29.809305       811.1524 
 416   0.0000      29.847370       812.1882 
 417   0.0000      29.858594       812.4936 
 418   0.0000      29.976658       815.7063 
 419   0.0000      29.985170       815.9380 
 420   0.0000      30.057867       817.9162 
 421   0.0000      30.081453       818.5579 
 422   0.0000      30.107587       819.2691 
 423   0.0000      30.120881       819.6309 
 424   0.0000      30.159879       820.6920 
 425   0.0000      30.199636       821.7739 
 426   0.0000      30.219986       822.3276 
 427   0.0000      30.256977       823.3342 
 428   0.0000      30.284504       824.0832 
 429   0.0000      30.333617       825.4197 
 430   0.0000      30.454034       828.6964 
 431   0.0000      30.589199       832.3744 
 432   0.0000      36.603681       996.0368 
 433   0.0000      36.612856       996.2865 
 434   0.0000      36.628564       996.7139 
 435   0.0000      36.634754       996.8823 
 436   0.0000      36.638747       996.9910 
 437   0.0000      36.645641       997.1786 
 438   0.0000      36.650215       997.3030 
 439   0.0000      36.660838       997.5921 
 440   0.0000      36.671710       997.8880 
 441   0.0000      36.809835      1001.6465 
 442   0.0000      36.824588      1002.0480 
 443   0.0000      36.849632      1002.7295 
 444   0.0000      36.864957      1003.1465 
 445   0.0000      36.868829      1003.2519 
 446   0.0000      36.876101      1003.4497 
 447   0.0000      36.882036      1003.6112 
 448   0.0000      36.916801      1004.5572 
 449   0.0000      36.933925      1005.0232 
 450   0.0000      36.936106      1005.0825 
 451   0.0000      36.965225      1005.8749 
 452   0.0000      37.009492      1007.0795 

                 SPIN DOWN ORBITALS
  NO   OCC          E(Eh)            E(eV) 
   0   1.0000     -10.225777      -278.2575 
   1   1.0000     -10.222521      -278.1689 
   2   1.0000     -10.213042      -277.9110 
   3   1.0000     -10.210238      -277.8347 
   4   1.0000     -10.206787      -277.7408 
   5   1.0000     -10.206001      -277.7194 
   6   1.0000     -10.201146      -277.5873 
   7   1.0000     -10.200763      -277.5769 
   8   1.0000     -10.199080      -277.5311 
   9   1.0000     -10.196524      -277.4615 
  10   1.0000     -10.191488      -277.3245 
  11   1.0000     -10.189749      -277.2772 
  12   1.0000     -10.188966      -277.2559 
  13   1.0000     -10.185529      -277.1623 
  14   1.0000     -10.182995      -277.0934 
  15   1.0000     -10.182571      -277.0818 
  16   1.0000     -10.175509      -276.8897 
  17   1.0000     -10.173275      -276.8289 
  18   1.0000      -0.872319       -23.7370 
  19   1.0000      -0.815692       -22.1961 
  20   1.0000      -0.795933       -21.6584 
  21   1.0000      -0.793522       -21.5928 
  22   1.0000      -0.766119       -20.8472 
  23   1.0000      -0.753903       -20.5147 
  24   1.0000      -0.726660       -19.7734 
  25   1.0000      -0.721796       -19.6411 
  26   1.0000      -0.695452       -18.9242 
  27   1.0000      -0.653784       -17.7904 
  28   1.0000      -0.639243       -17.3947 
  29   1.0000      -0.611889       -16.6503 
  30   1.0000      -0.593585       -16.1523 
  31   1.0000      -0.578796       -15.7498 
  32   1.0000      -0.560963       -15.2646 
  33   1.0000      -0.542743       -14.7688 
  34   1.0000      -0.523841       -14.2544 
  35   1.0000      -0.498212       -13.5570 
  36   1.0000      -0.486555       -13.2398 
  37   1.0000      -0.477203       -12.9854 
  38   1.0000      -0.469929       -12.7874 
  39   1.0000      -0.459539       -12.5047 
  40   1.0000      -0.432773       -11.7763 
  41   1.0000      -0.428765       -11.6673 
  42   1.0000      -0.425074       -11.5669 
  43   1.0000      -0.419740       -11.4217 
  44   1.0000      -0.411819       -11.2062 
  45   1.0000      -0.397203       -10.8085 
  46   1.0000      -0.391576       -10.6553 
  47   1.0000      -0.377641       -10.2761 
  48   1.0000      -0.377525       -10.2730 
  49   1.0000      -0.364417        -9.9163 
  50   1.0000      -0.357192        -9.7197 
  51   1.0000      -0.351960        -9.5773 
  52   1.0000      -0.338154        -9.2016 
  53   1.0000      -0.332570        -9.0497 
  54   1.0000      -0.330625        -8.9968 
  55   1.0000      -0.328953        -8.9513 
  56   1.0000      -0.327349        -8.9076 
  57   1.0000      -0.323438        -8.8012 
  58   1.0000      -0.320550        -8.7226 
  59   1.0000      -0.281868        -7.6700 
  60   1.0000      -0.278635        -7.5820 
  61   1.0000      -0.276415        -7.5216 
  62   1.0000      -0.259401        -7.0586 
  63   1.0000      -0.224938        -6.1209 
  64   0.0000      -0.085903        -2.3375 
  65   0.0000      -0.042573        -1.1585 
  66   0.0000       0.019062         0.5187 
  67   0.0000       0.021328         0.5804 
  68   0.0000       0.023997         0.6530 
  69   0.0000       0.024582         0.6689 
  70   0.0000       0.030285         0.8241 
  71   0.0000       0.036995         1.0067 
  72   0.0000       0.038734         1.0540 
  73   0.0000       0.041012         1.1160 
  74   0.0000       0.045274         1.2320 
  75   0.0000       0.049263         1.3405 
  76   0.0000       0.051154         1.3920 
  77   0.0000       0.052722         1.4346 
  78   0.0000       0.073540         2.0011 
  79   0.0000       0.079101         2.1525 
  80   0.0000       0.088062         2.3963 
  81   0.0000       0.097746         2.6598 
  82   0.0000       0.109403         2.9770 
  83   0.0000       0.110150         2.9973 
  84   0.0000       0.124303         3.3825 
  85   0.0000       0.136959         3.7268 
  86   0.0000       0.150313         4.0902 
  87   0.0000       0.157760         4.2929 
  88   0.0000       0.158650         4.3171 
  89   0.0000       0.164513         4.4766 
  90   0.0000       0.175232         4.7683 
  91   0.0000       0.181952         4.9512 
  92   0.0000       0.184953         5.0328 
  93   0.0000       0.191234         5.2037 
  94   0.0000       0.195463         5.3188 
  95   0.0000       0.198573         5.4035 
  96   0.0000       0.199788         5.4365 
  97   0.0000       0.200384         5.4527 
  98   0.0000       0.206544         5.6204 
  99   0.0000       0.207765         5.6536 
 100   0.0000       0.214780         5.8445 
 101   0.0000       0.218495         5.9455 
 102   0.0000       0.222353         6.0505 
 103   0.0000       0.233355         6.3499 
 104   0.0000       0.238413         6.4875 
 105   0.0000       0.246334         6.7031 
 106   0.0000       0.251485         6.8433 
 107   0.0000       0.252120         6.8605 
 108   0.0000       0.260000         7.0750 
 109   0.0000       0.260772         7.0960 
 110   0.0000       0.268186         7.2977 
 111   0.0000       0.273915         7.4536 
 112   0.0000       0.278866         7.5883 
 113   0.0000       0.280028         7.6200 
 114   0.0000       0.289227         7.8703 
 115   0.0000       0.289979         7.8907 
 116   0.0000       0.298558         8.1242 
 117   0.0000       0.298948         8.1348 
 118   0.0000       0.301332         8.1997 
 119   0.0000       0.304288         8.2801 
 120   0.0000       0.312302         8.4982 
 121   0.0000       0.317457         8.6384 
 122   0.0000       0.319831         8.7030 
 123   0.0000       0.325023         8.8443 
 124   0.0000       0.326500         8.8845 
 125   0.0000       0.331707         9.0262 
 126   0.0000       0.340620         9.2687 
 127   0.0000       0.341098         9.2817 
 128   0.0000       0.352551         9.5934 
 129   0.0000       0.353531         9.6201 
 130   0.0000       0.359672         9.7872 
 131   0.0000       0.362936         9.8760 
 132   0.0000       0.364321         9.9137 
 133   0.0000       0.369455        10.0534 
 134   0.0000       0.378077        10.2880 
 135   0.0000       0.381477        10.3805 
 136   0.0000       0.389299        10.5934 
 137   0.0000       0.395274        10.7559 
 138   0.0000       0.399492        10.8707 
 139   0.0000       0.404285        11.0011 
 140   0.0000       0.409085        11.1318 
 141   0.0000       0.413084        11.2406 
 142   0.0000       0.417667        11.3653 
 143   0.0000       0.430876        11.7247 
 144   0.0000       0.436354        11.8738 
 145   0.0000       0.444021        12.0824 
 146   0.0000       0.445372        12.1192 
 147   0.0000       0.449066        12.2197 
 148   0.0000       0.458155        12.4670 
 149   0.0000       0.465421        12.6648 
 150   0.0000       0.474016        12.8986 
 151   0.0000       0.481233        13.0950 
 152   0.0000       0.489113        13.3094 
 153   0.0000       0.499145        13.5824 
 154   0.0000       0.508008        13.8236 
 155   0.0000       0.510085        13.8801 
 156   0.0000       0.517656        14.0861 
 157   0.0000       0.526714        14.3326 
 158   0.0000       0.534893        14.5552 
 159   0.0000       0.541423        14.7329 
 160   0.0000       0.546517        14.8715 
 161   0.0000       0.552240        15.0272 
 162   0.0000       0.552592        15.0368 
 163   0.0000       0.561708        15.2849 
 164   0.0000       0.571902        15.5622 
 165   0.0000       0.586687        15.9646 
 166   0.0000       0.592478        16.1221 
 167   0.0000       0.595483        16.2039 
 168   0.0000       0.595842        16.2137 
 169   0.0000       0.604318        16.4443 
 170   0.0000       0.628787        17.1102 
 171   0.0000       0.634842        17.2749 
 172   0.0000       0.655268        17.8307 
 173   0.0000       0.670703        18.2508 
 174   0.0000       0.677188        18.4272 
 175   0.0000       0.708456        19.2781 
 176   0.0000       0.730954        19.8903 
 177   0.0000       0.769606        20.9420 
 178   0.0000       0.786904        21.4127 
 179   0.0000       0.789742        21.4900 
 180   0.0000       0.791815        21.5464 
 181   0.0000       0.811241        22.0750 
 182   0.0000       0.823180        22.3999 
 183   0.0000       0.836856        22.7720 
 184   0.0000       0.840170        22.8622 
 185   0.0000       0.847854        23.0713 
 186   0.0000       0.858727        23.3672 
 187   0.0000       0.859031        23.3754 
 188   0.0000       0.862561        23.4715 
 189   0.0000       0.879644        23.9363 
 190   0.0000       0.881200        23.9787 
 191   0.0000       0.887795        24.1581 
 192   0.0000       0.893551        24.3148 
 193   0.0000       0.906857        24.6768 
 194   0.0000       0.912793        24.8384 
 195   0.0000       0.916040        24.9267 
 196   0.0000       0.920395        25.0452 
 197   0.0000       0.923470        25.1289 
 198   0.0000       0.929873        25.3031 
 199   0.0000       0.934984        25.4422 
 200   0.0000       0.944143        25.6914 
 201   0.0000       0.958694        26.0874 
 202   0.0000       0.961647        26.1677 
 203   0.0000       0.969904        26.3924 
 204   0.0000       0.971054        26.4237 
 205   0.0000       0.978070        26.6146 
 206   0.0000       0.984344        26.7854 
 207   0.0000       0.985610        26.8198 
 208   0.0000       0.998213        27.1628 
 209   0.0000       1.006310        27.3831 
 210   0.0000       1.010455        27.4959 
 211   0.0000       1.026828        27.9414 
 212   0.0000       1.031811        28.0770 
 213   0.0000       1.039362        28.2825 
 214   0.0000       1.044830        28.4313 
 215   0.0000       1.047534        28.5048 
 216   0.0000       1.051766        28.6200 
 217   0.0000       1.059218        28.8228 
 218   0.0000       1.063975        28.9522 
 219   0.0000       1.088312        29.6145 
 220   0.0000       1.102652        30.0047 
 221   0.0000       1.107195        30.1283 
 222   0.0000       1.111494        30.2453 
 223   0.0000       1.121497        30.5175 
 224   0.0000       1.129744        30.7419 
 225   0.0000       1.140925        31.0462 
 226   0.0000       1.150571        31.3086 
 227   0.0000       1.160848        31.5883 
 228   0.0000       1.172744        31.9120 
 229   0.0000       1.176727        32.0204 
 230   0.0000       1.186025        32.2734 
 231   0.0000       1.187461        32.3125 
 232   0.0000       1.201799        32.7026 
 233   0.0000       1.206811        32.8390 
 234   0.0000       1.221420        33.2365 
 235   0.0000       1.228388        33.4261 
 236   0.0000       1.239246        33.7216 
 237   0.0000       1.240997        33.7692 
 238   0.0000       1.253092        34.0984 
 239   0.0000       1.256464        34.1901 
 240   0.0000       1.260827        34.3088 
 241   0.0000       1.264072        34.3971 
 242   0.0000       1.280164        34.8350 
 243   0.0000       1.292493        35.1705 
 244   0.0000       1.305450        35.5231 
 245   0.0000       1.317192        35.8426 
 246   0.0000       1.331228        36.2246 
 247   0.0000       1.334615        36.3167 
 248   0.0000       1.344231        36.5784 
 249   0.0000       1.352834        36.8125 
 250   0.0000       1.378659        37.5152 
 251   0.0000       1.379222        37.5305 
 252   0.0000       1.387703        37.7613 
 253   0.0000       1.399312        38.0772 
 254   0.0000       1.400340        38.1052 
 255   0.0000       1.424528        38.7634 
 256   0.0000       1.426953        38.8294 
 257   0.0000       1.429308        38.8934 
 258   0.0000       1.435791        39.0699 
 259   0.0000       1.441880        39.2356 
 260   0.0000       1.446004        39.3478 
 261   0.0000       1.465434        39.8765 
 262   0.0000       1.467238        39.9256 
 263   0.0000       1.481483        40.3132 
 264   0.0000       1.501394        40.8550 
 265   0.0000       1.508258        41.0418 
 266   0.0000       1.514237        41.2045 
 267   0.0000       1.515554        41.2403 
 268   0.0000       1.521324        41.3973 
 269   0.0000       1.549535        42.1650 
 270   0.0000       1.560408        42.4609 
 271   0.0000       1.560963        42.4760 
 272   0.0000       1.564181        42.5635 
 273   0.0000       1.574643        42.8482 
 274   0.0000       1.588066        43.2135 
 275   0.0000       1.590386        43.2766 
 276   0.0000       1.592830        43.3431 
 277   0.0000       1.600543        43.5530 
 278   0.0000       1.604027        43.6478 
 279   0.0000       1.613705        43.9111 
 280   0.0000       1.626832        44.2684 
 281   0.0000       1.628292        44.3081 
 282   0.0000       1.637070        44.5470 
 283   0.0000       1.660676        45.1893 
 284   0.0000       1.660799        45.1926 
 285   0.0000       1.678769        45.6816 
 286   0.0000       1.688282        45.9405 
 287   0.0000       1.690479        46.0003 
 288   0.0000       1.694826        46.1186 
[...]
 A(ORB)         -0.0002               0.0002               0.0025    A(PC) =   0.0008
 A(DIA)          0.0006              -0.0004              -0.0002    A(PC) =   0.0000
             ----------           ----------           ----------
 A(Tot)         -3.4853              -8.8785             -11.7909    A(iso)=   -8.0516
 Orientation: 
  X          -0.9919227           -0.0178966            0.1255751
  Y           0.1255410            0.0030204            0.9920838
  Z          -0.0181342            0.9998353           -0.0007493

Notes:  (1) The A matrix conforms to the "SAI" spin Hamiltonian convention.
        (2) Tensor is right-handed.

 -----------------------------------------------------------
 Nucleus  36H : A:ISTP=    1 I=  0.5 P=533.5514 MHz/au**3
                Q:ISTP=    2 I=  1.0 Q=  0.0029 barn     
 -----------------------------------------------------------
 Solving for nuclear perturbation:
Forming RHS of the CP-SCF equations         ... 
Calc. nucleus orbit integrals (SHARK)       ... done

------------------------------------------------------------------------------
                           ORCA CP-SCF CALCULATION
------------------------------------------------------------------------------

Input orbitals are from        ... EPRII.gbw
Input Perturbation             ... EPRII.pin.tmp
Wavefunction output            ... EPRII.pout.tmp
Perturbation mode              ... Imaginary perturbation
Solver                         ... POPLE
Max. number of iterations      ... 64
Convergence tolerance          ... 1.000e-03
Integral handling              ... Direct
DFT GridXC                     ... 1
COSX GridX                     ... 1
COSX IntAccX                   ... 3.067
COSX Algorithm                 ... Auto
Number of perturbations        ... 3
Number of operators            ... 2
Orbital ranges used for CP-SCF:
 Operator 0:  Orbitals   0... 64  to  65...452
 Operator 1:  Orbitals   0... 63  to  64...452
Variables per perturbation     ... 50116
DFT calculation                         ... on
XC functional terms                     ... off
Hybrid DFT                              ... on
   Exchange mixing (SCF)                ...  0.200
   Exchange mixing (CP-SCF)             ...  0.200
   GGA exch. scaling(SCF)               ...  0.720
   GGA exch. scaling (CP-SCF)           ...  0.720
   GGA corr. scaling (SCF)              ...  0.810
   GGA corr. scaling (CP-SCF)           ...  0.810

CP-SCF GRID
-----------

General Integration Accuracy     IntAcc      ... 3.467
Radial Grid Type                 RadialGrid  ... OptM3 with GC (2021)
Angular Grid (max. ang.)         AngularGrid ... 1 (Lebedev-50)
Angular grid pruning method      GridPruning ... 4 (adaptive)
Weight generation scheme         WeightScheme... Becke
Basis function cutoff            BFCut       ... 1.0000e-10
Integration weight cutoff        WCut        ... 1.0000e-14
Angular grids for H and He will be reduced by one unit
Partially contracted basis set               ... off
Rotationally invariant grid construction     ... off

Total number of grid points                  ...    24798
Total number of batches                      ...      406
Average number of points per batch           ...       61
Average number of grid points per atom       ...      636

CP-SCF GRIDX
------------

General Integration Accuracy     IntAcc      ... 3.067
Radial Grid Type                 RadialGrid  ... OptM3 with GC (2021)
Angular Grid (max. ang.)         AngularGrid ... 1 (Lebedev-50)
Angular grid pruning method      GridPruning ... 4 (adaptive)
Weight generation scheme         WeightScheme... Becke
Basis function cutoff            BFCut       ... 1.0000e-10
Integration weight cutoff        WCut        ... 1.0000e-14
Angular grids for H and He will be reduced by one unit
Partially contracted basis set               ... on
Rotationally invariant grid construction     ... off

Total number of grid points                  ...    11665
Total number of batches                      ...      205
Average number of points per batch           ...       56
Average number of grid points per atom       ...      299

Memory available               ... 894.0 MB
Memory needed per perturbation ...  12.1 MB
Perturbations treated per batch... 3
Number of batches              ... 1
     CP-SCF ITERATION   0:   1.0089e-01 (   1.3 sec   0/  3 done)
     CP-SCF ITERATION   1:   1.6684e-03 (   1.3 sec   2/  3 done)
     CP-SCF ITERATION   2:   9.6709e-05 (   1.0 sec   3/  3 done)
                    *** THE CP-SCF HAS CONVERGED ***

Forming final perturbed densities           ... done
Transforming perturbed density to AO basis  ... done

 Raw HFC matrix (all values in MHz): 
 -----------------------------------
                 2.6059               0.1617              -0.0163
                 0.1616               5.1226              -0.0013
                -0.0163              -0.0013               3.5689

 A(FC)           3.7661               3.7661               3.7661
 A(SD)          -1.1707              -0.1970               1.3677
 A(ORB+DIA)     -0.0001               0.0001              -0.0008    A(PC) =  -0.0003
 A(ORB)          0.0001              -0.0001              -0.0010    A(PC) =  -0.0003
 A(DIA)         -0.0002               0.0002               0.0001    A(PC) =   0.0001
             ----------           ----------           ----------
 A(Tot)          2.5953               3.5692               5.1329    A(iso)=    3.7658
 Orientation: 
  X           0.9978224           -0.0165346           -0.0638511
  Y          -0.0638177            0.0025426           -0.9979583
  Z           0.0166632            0.9998601            0.0014819

Notes:  (1) The A matrix conforms to the "SAI" spin Hamiltonian convention.
        (2) Tensor is right-handed.

 -----------------------------------------------------------
 Nucleus  37H : A:ISTP=    1 I=  0.5 P=533.5514 MHz/au**3
                Q:ISTP=    2 I=  1.0 Q=  0.0029 barn     
 -----------------------------------------------------------
 Solving for nuclear perturbation:
Forming RHS of the CP-SCF equations         ... 
Calc. nucleus orbit integrals (SHARK)       ... done

------------------------------------------------------------------------------
                           ORCA CP-SCF CALCULATION
------------------------------------------------------------------------------

Input orbitals are from        ... EPRII.gbw
Input Perturbation             ... EPRII.pin.tmp
Wavefunction output            ... EPRII.pout.tmp
Perturbation mode              ... Imaginary perturbation
Solver                         ... POPLE
Max. number of iterations      ... 64
Convergence tolerance          ... 1.000e-03
Integral handling              ... Direct
DFT GridXC                     ... 1
COSX GridX                     ... 1
COSX IntAccX                   ... 3.067
COSX Algorithm                 ... Auto
Number of perturbations        ... 3
Number of operators            ... 2
Orbital ranges used for CP-SCF:
 Operator 0:  Orbitals   0... 64  to  65...452
 Operator 1:  Orbitals   0... 63  to  64...452
Variables per perturbation     ... 50116
DFT calculation                         ... on
XC functional terms                     ... off
Hybrid DFT                              ... on
   Exchange mixing (SCF)                ...  0.200
   Exchange mixing (CP-SCF)             ...  0.200
   GGA exch. scaling(SCF)               ...  0.720
   GGA exch. scaling (CP-SCF)           ...  0.720
   GGA corr. scaling (SCF)              ...  0.810
   GGA corr. scaling (CP-SCF)           ...  0.810

CP-SCF GRID
-----------

General Integration Accuracy     IntAcc      ... 3.467
Radial Grid Type                 RadialGrid  ... OptM3 with GC (2021)
Angular Grid (max. ang.)         AngularGrid ... 1 (Lebedev-50)
Angular grid pruning method      GridPruning ... 4 (adaptive)
Weight generation scheme         WeightScheme... Becke
Basis function cutoff            BFCut       ... 1.0000e-10
Integration weight cutoff        WCut        ... 1.0000e-14
Angular grids for H and He will be reduced by one unit
Partially contracted basis set               ... off
Rotationally invariant grid construction     ... off

Total number of grid points                  ...    24798
Total number of batches                      ...      406
Average number of points per batch           ...       61
Average number of grid points per atom       ...      636

CP-SCF GRIDX
------------

General Integration Accuracy     IntAcc      ... 3.067
Radial Grid Type                 RadialGrid  ... OptM3 with GC (2021)
Angular Grid (max. ang.)         AngularGrid ... 1 (Lebedev-50)
Angular grid pruning method      GridPruning ... 4 (adaptive)
Weight generation scheme         WeightScheme... Becke
Basis function cutoff            BFCut       ... 1.0000e-10
Integration weight cutoff        WCut        ... 1.0000e-14
Angular grids for H and He will be reduced by one unit
Partially contracted basis set               ... on
Rotationally invariant grid construction     ... off

Total number of grid points                  ...    11665
Total number of batches                      ...      205
Average number of points per batch           ...       56
Average number of grid points per atom       ...      299

Memory available               ... 893.5 MB
Memory needed per perturbation ...  12.1 MB
Perturbations treated per batch... 3
Number of batches              ... 1
     CP-SCF ITERATION   0:   3.6984e-02 (   1.3 sec   0/  3 done)
     CP-SCF ITERATION   1:   6.3153e-04 (   1.5 sec   3/  3 done)
                    *** THE CP-SCF HAS CONVERGED ***

Forming final perturbed densities           ... done
Transforming perturbed density to AO basis  ... done

 Raw HFC matrix (all values in MHz): 
 -----------------------------------
                -0.8210               0.2329               0.0003
                 0.2327               0.6805               0.0009
                 0.0003               0.0009              -0.8406

 A(FC)          -0.3271              -0.3271              -0.3271
 A(SD)           1.0424              -0.5134              -0.5291
 A(ORB+DIA)      0.0005              -0.0001              -0.0000    A(PC) =   0.0001
 A(ORB)          0.0004               0.0000               0.0000    A(PC) =   0.0001
 A(DIA)          0.0001              -0.0001              -0.0001    A(PC) =  -0.0000
             ----------           ----------           ----------
 A(Tot)          0.7158              -0.8406              -0.8562    A(iso)=   -0.3270
 Orientation: 
  X          -0.1498154           -0.0083527            0.9886787
  Y          -0.9887138            0.0018567           -0.1498051
  Z          -0.0005844           -0.9999634           -0.0085366

Notes:  (1) The A matrix conforms to the "SAI" spin Hamiltonian convention.
        (2) Tensor is right-handed.

 -----------------------------------------------------------
 Nucleus  38H : A:ISTP=    1 I=  0.5 P=533.5514 MHz/au**3
                Q:ISTP=    2 I=  1.0 Q=  0.0029 barn     
 -----------------------------------------------------------
 Solving for nuclear perturbation:
Forming RHS of the CP-SCF equations         ... 
Calc. nucleus orbit integrals (SHARK)       ... done

------------------------------------------------------------------------------
                           ORCA CP-SCF CALCULATION
------------------------------------------------------------------------------

Input orbitals are from        ... EPRII.gbw
Input Perturbation             ... EPRII.pin.tmp
Wavefunction output            ... EPRII.pout.tmp
Perturbation mode              ... Imaginary perturbation
Solver                         ... POPLE
Max. number of iterations      ... 64
Convergence tolerance          ... 1.000e-03
Integral handling              ... Direct
DFT GridXC                     ... 1
COSX GridX                     ... 1
COSX IntAccX                   ... 3.067
COSX Algorithm                 ... Auto
Number of perturbations        ... 3
Number of operators            ... 2
Orbital ranges used for CP-SCF:
 Operator 0:  Orbitals   0... 64  to  65...452
 Operator 1:  Orbitals   0... 63  to  64...452
Variables per perturbation     ... 50116
DFT calculation                         ... on
XC functional terms                     ... off
Hybrid DFT                              ... on
   Exchange mixing (SCF)                ...  0.200
   Exchange mixing (CP-SCF)             ...  0.200
   GGA exch. scaling(SCF)               ...  0.720
   GGA exch. scaling (CP-SCF)           ...  0.720
   GGA corr. scaling (SCF)              ...  0.810
   GGA corr. scaling (CP-SCF)           ...  0.810

CP-SCF GRID
-----------

General Integration Accuracy     IntAcc      ... 3.467
Radial Grid Type                 RadialGrid  ... OptM3 with GC (2021)
Angular Grid (max. ang.)         AngularGrid ... 1 (Lebedev-50)
Angular grid pruning method      GridPruning ... 4 (adaptive)
Weight generation scheme         WeightScheme... Becke
Basis function cutoff            BFCut       ... 1.0000e-10
Integration weight cutoff        WCut        ... 1.0000e-14
Angular grids for H and He will be reduced by one unit
Partially contracted basis set               ... off
Rotationally invariant grid construction     ... off

Total number of grid points                  ...    24798
Total number of batches                      ...      406
Average number of points per batch           ...       61
Average number of grid points per atom       ...      636

CP-SCF GRIDX
------------

General Integration Accuracy     IntAcc      ... 3.067
Radial Grid Type                 RadialGrid  ... OptM3 with GC (2021)
Angular Grid (max. ang.)         AngularGrid ... 1 (Lebedev-50)
Angular grid pruning method      GridPruning ... 4 (adaptive)
Weight generation scheme         WeightScheme... Becke
Basis function cutoff            BFCut       ... 1.0000e-10
Integration weight cutoff        WCut        ... 1.0000e-14
Angular grids for H and He will be reduced by one unit
Partially contracted basis set               ... on
Rotationally invariant grid construction     ... off

Total number of grid points                  ...    11665
Total number of batches                      ...      205
Average number of points per batch           ...       56
Average number of grid points per atom       ...      299

Memory available               ... 893.0 MB
Memory needed per perturbation ...  12.1 MB
Perturbations treated per batch... 3
Number of batches              ... 1
     CP-SCF ITERATION   0:   3.7073e-02 (   1.3 sec   0/  3 done)
     CP-SCF ITERATION   1:   6.4683e-04 (   1.5 sec   3/  3 done)
                    *** THE CP-SCF HAS CONVERGED ***

Forming final perturbed densities           ... done
Transforming perturbed density to AO basis  ... done

 Raw HFC matrix (all values in MHz): 
 -----------------------------------
                -0.1220               0.0641               0.0001
                 0.0642               0.2291               0.0003
                 0.0001               0.0003              -0.1337

 A(FC)          -0.0089              -0.0089              -0.0089
 A(SD)          -0.1244              -0.1248               0.2493
 A(ORB+DIA)     -0.0000               0.0000               0.0001    A(PC) =   0.0000
 A(ORB)         -0.0000               0.0000               0.0001    A(PC) =   0.0000
 A(DIA)          0.0000               0.0000               0.0000    A(PC) =   0.0000
             ----------           ----------           ----------
 A(Tot)         -0.1334              -0.1337               0.2404    A(iso)=   -0.0089
 Orientation: 
  X           0.9847069           -0.0004671            0.1742184
  Y          -0.1742178            0.0010368            0.9847066
  Z          -0.0006406           -0.9999994            0.0009396

Notes:  (1) The A matrix conforms to the "SAI" spin Hamiltonian convention.
        (2) Tensor is right-handed.


--------------------------------------------------------------------------------
----------------------------------------------------------------------------
                           ORCA EULER ANGLE PROGRAM
----------------------------------------------------------------------------

Only g-tensor available        -->  using g-tensor as reference tensor

Reference tensor               ...  g

g-tensor ordering              ...  |g_min> --> |gx>
                                    |g_mid> --> |gy>
                                    |g_max> --> |gz>

A- and EFG-tensor ordering     ...  the axes |Ax>, |Qx>, |Ay>, etc. are assigned
                                    such that the Euler rotation is minimal. You
                                    can find the respective eigenvalues as Ax,
                                    EFGx, Ay, etc. in the tables below.
                                    The relation of |Ax>, |Ay>,  etc. to Amin, Amid, etc.
                                    (as printed in the ORCA EPR/NMR CALCULATION Output)
                                    is obtained in the detailed printout.

Euler rotation around          ...  z - y - z
   First rotation              -->  by alpha around z
   Second rotation             -->  by beta around y'
   Third rotation              -->  by gamma around z''
   Positive / Negative angle   -->  clockwise / counterclockwise rotation

Plot EFG-tensors                    (-)
Plot HFC-tensors                    (-)
Detailed Printout                   (-)

-------------------------------------------------------------------------
          Euler rotation of hyperfine tensor to g-tensor
-------------------------------------------------------------------------

-------------------------------------------------------------------
 Atom  |   Alpha    Beta    Gamma   |   Ax       Ay       Az 
       |          [degrees]         |           [MHz]         
-------------------------------------------------------------------
  9H      -90.4      4.9     90.4     -17.21    -8.03   -20.68
 10H      -90.0      7.7     90.0       4.56     5.21    10.08
 12H       90.0     44.8    -90.0     -49.43   -20.51   -74.51
 14H      -19.2     13.5      0.9      69.52    79.21    71.04
 15H     -160.7     13.2    178.9      69.24    78.93    70.76
 17H       23.2     27.2    -57.5      -3.36    -3.20     3.00
 18H      156.7     27.1   -122.3      -3.36    -3.20     2.99
 20H     -128.8     48.5    152.9      -0.02     2.34     0.10
 21H      -51.1     48.8     26.9      -0.02     2.34     0.09
 23H     -138.0     17.6    177.9      24.85    25.48    28.62
 24H      -42.1     17.5      2.4      24.72    25.34    28.48
 26H      -81.3     31.7     94.4      -1.06     0.93    -0.93
 27H      -99.1     31.7     86.3      -1.05     0.93    -0.92
 29H       73.4     28.7   -108.3      -0.09    -0.13     0.83
 30H      106.5     28.6    -71.5      -0.09    -0.13     0.83
 32H      -94.8     44.2     86.5      -0.12     0.39    -0.10
 33H      -85.3     44.2     93.9      -0.12     0.39    -0.10
 35H       89.6     38.8    -90.0      -8.88    -3.49   -11.79
 36H       89.7     42.3    -90.0       3.57     2.60     5.13
 37H       91.1     37.4    -89.9      -0.84    -0.86     0.72
 38H       90.6     36.0    -89.9      -0.13    -0.13     0.24
-------------------------------------------------------------------


Maximum memory used throughout the entire EPRNMR-calculation: 178.5 MB

Timings for individual modules:

Sum of individual times         ...     2209.708 sec (=  36.828 min)
GTO integral calculation        ...        4.518 sec (=   0.075 min)   0.2 %
Spin-Orbit-Coupling Matrices    ...        9.137 sec (=   0.152 min)   0.4 %
SCF iterations                  ...       82.791 sec (=   1.380 min)   3.7 %
EPR/NMR calculation             ...     2113.262 sec (=  35.221 min)  95.6 %
                             ****ORCA TERMINATED NORMALLY****
TOTAL RUN TIME: 0 days 0 hours 36 minutes 53 seconds 730 msec
