
                                 *****************
                                 * O   R   C   A *
                                 *****************

                                            #,                                       
                                            ###                                      
                                            ####                                     
                                            #####                                    
                                            ######                                   
                                           ########,                                 
                                     ,,################,,,,,                         
                               ,,#################################,,                 
                          ,,##########################################,,             
                       ,#########################################, ''#####,          
                    ,#############################################,,   '####,        
                  ,##################################################,,,,####,       
                ,###########''''           ''''###############################       
              ,#####''   ,,,,##########,,,,          '''####'''          '####       
            ,##' ,,,,###########################,,,                        '##       
           ' ,,###''''                  '''############,,,                           
         ,,##''                                '''############,,,,        ,,,,,,###''
      ,#''                                            '''#######################'''  
     '                                                          ''''####''''         
             ,#######,   #######,   ,#######,      ##                                
            ,#'     '#,  ##    ##  ,#'     '#,    #''#        ######   ,####,        
            ##       ##  ##   ,#'  ##            #'  '#       #        #'  '#        
            ##       ##  #######   ##           ,######,      #####,   #    #        
            '#,     ,#'  ##    ##  '#,     ,#' ,#      #,         ##   #,  ,#        
             '#######'   ##     ##  '#######'  #'      '#     #####' # '####'        



                  #######################################################
                  #                        -***-                        #
                  #          Department of theory and spectroscopy      #
                  #    Directorship and core code : Frank Neese         #
                  #        Max Planck Institute fuer Kohlenforschung    #
                  #                Kaiser Wilhelm Platz 1               #
                  #                 D-45470 Muelheim/Ruhr               #
                  #                      Germany                        #
                  #                                                     #
                  #                  All rights reserved                #
                  #                        -***-                        #
                  #######################################################


                         Program Version 5.0.4 -  RELEASE  -


 With contributions from (in alphabetic order):
   Daniel Aravena         : Magnetic Suceptibility
   Michael Atanasov       : Ab Initio Ligand Field Theory (pilot matlab implementation)
   Alexander A. Auer      : GIAO ZORA, VPT2 properties, NMR spectrum
   Ute Becker             : Parallelization
   Giovanni Bistoni       : ED, misc. LED, open-shell LED, HFLD
   Martin Brehm           : Molecular dynamics
   Dmytro Bykov           : SCF Hessian
   Vijay G. Chilkuri      : MRCI spin determinant printing, contributions to CSF-ICE
   Dipayan Datta          : RHF DLPNO-CCSD density
   Achintya Kumar Dutta   : EOM-CC, STEOM-CC
   Dmitry Ganyushin       : Spin-Orbit,Spin-Spin,Magnetic field MRCI
   Miquel Garcia          : C-PCM and meta-GGA Hessian, CC/C-PCM, Gaussian charge scheme
   Yang Guo               : DLPNO-NEVPT2, F12-NEVPT2, CIM, IAO-localization
   Andreas Hansen         : Spin unrestricted coupled pair/coupled cluster methods
   Benjamin Helmich-Paris : MC-RPA, TRAH-SCF, COSX integrals
   Lee Huntington         : MR-EOM, pCC
   Robert Izsak           : Overlap fitted RIJCOSX, COSX-SCS-MP3, EOM
   Marcus Kettner         : VPT2
   Christian Kollmar      : KDIIS, OOCD, Brueckner-CCSD(T), CCSD density, CASPT2, CASPT2-K
   Simone Kossmann        : Meta GGA functionals, TD-DFT gradient, OOMP2, MP2 Hessian
   Martin Krupicka        : Initial AUTO-CI
   Lucas Lang             : DCDCAS
   Marvin Lechner         : AUTO-CI (C++ implementation), FIC-MRCC
   Dagmar Lenk            : GEPOL surface, SMD
   Dimitrios Liakos       : Extrapolation schemes; Compound Job, initial MDCI parallelization
   Dimitrios Manganas     : Further ROCIS development; embedding schemes
   Dimitrios Pantazis     : SARC Basis sets
   Anastasios Papadopoulos: AUTO-CI, single reference methods and gradients
   Taras Petrenko         : DFT Hessian,TD-DFT gradient, ASA, ECA, R-Raman, ABS, FL, XAS/XES, NRVS
   Peter Pinski           : DLPNO-MP2, DLPNO-MP2 Gradient
   Christoph Reimann      : Effective Core Potentials
   Marius Retegan         : Local ZFS, SOC
   Christoph Riplinger    : Optimizer, TS searches, QM/MM, DLPNO-CCSD(T), (RO)-DLPNO pert. Triples
   Tobias Risthaus        : Range-separated hybrids, TD-DFT gradient, RPA, STAB
   Michael Roemelt        : Original ROCIS implementation
   Masaaki Saitow         : Open-shell DLPNO-CCSD energy and density
   Barbara Sandhoefer     : DKH picture change effects
   Avijit Sen             : IP-ROCIS
   Kantharuban Sivalingam : CASSCF convergence, NEVPT2, FIC-MRCI
   Bernardo de Souza      : ESD, SOC TD-DFT
   Georgi Stoychev        : AutoAux, RI-MP2 NMR, DLPNO-MP2 response
   Willem Van den Heuvel  : Paramagnetic NMR
   Boris Wezisla          : Elementary symmetry handling
   Frank Wennmohs         : Technical directorship


 We gratefully acknowledge several colleagues who have allowed us to
 interface, adapt or use parts of their codes:
   Stefan Grimme, W. Hujo, H. Kruse, P. Pracht,  : VdW corrections, initial TS optimization,
                  C. Bannwarth, S. Ehlert          DFT functionals, gCP, sTDA/sTD-DF
   Ed Valeev, F. Pavosevic, A. Kumar             : LibInt (2-el integral package), F12 methods
   Garnet Chan, S. Sharma, J. Yang, R. Olivares  : DMRG
   Ulf Ekstrom                                   : XCFun DFT Library
   Mihaly Kallay                                 : mrcc  (arbitrary order and MRCC methods)
   Jiri Pittner, Ondrej Demel                    : Mk-CCSD
   Frank Weinhold                                : gennbo (NPA and NBO analysis)
   Christopher J. Cramer and Donald G. Truhlar   : smd solvation model
   Lars Goerigk                                  : TD-DFT with DH, B97 family of functionals
   V. Asgeirsson, H. Jonsson                     : NEB implementation
   FAccTs GmbH                                   : IRC, NEB, NEB-TS, DLPNO-Multilevel, CI-OPT
                                                   MM, QMMM, 2- and 3-layer-ONIOM, Crystal-QMMM,
                                                   LR-CPCM, SF, NACMEs, symmetry and pop. for TD-DFT,
                                                   nearIR, NL-DFT gradient (VV10), updates on ESD,
                                                   ML-optimized integration grids
   S Lehtola, MJT Oliveira, MAL Marques          : LibXC Library
   Liviu Ungur et al                             : ANISO software


 Your calculation uses the libint2 library for the computation of 2-el integrals
 For citations please refer to: http://libint.valeyev.net

 Your ORCA version has been built with support for libXC version: 5.1.0
 For citations please refer to: https://tddft.org/programs/libxc/

 This ORCA versions uses:
   CBLAS   interface :  Fast vector & matrix operations
   LAPACKE interface :  Fast linear algebra routines
   SCALAPACK package :  Parallel linear algebra routines
   Shared memory     :  Shared parallel matrices
   BLAS/LAPACK       :  OpenBLAS 0.3.15  USE64BITINT DYNAMIC_ARCH NO_AFFINITY SkylakeX SINGLE_THREADED
        Core in use  :  SkylakeX
   Copyright (c) 2011-2014, The OpenBLAS Project




***************************************
The coordinates will be read from file: opt.xyz
***************************************


================================================================================

----- Orbital basis set information -----
Your calculation utilizes the basis: EPR-II
   V. Barone, in Recent Advances in Density Functional Methods, Part 1 (ed. D. P. Chong), World Scientific, Singapore, 1995, p. 287.

----- AuxJ basis set information -----
Your calculation utilizes the AutoAux generation procedure.
  G. L. Stoychev, A. A. Auer, F. Neese, J. Chem. Theory Comput. 13, 554 (2017)

----- AuxC basis set information -----
Your calculation utilizes the AutoAux generation procedure.
  G. L. Stoychev, A. A. Auer, F. Neese, J. Chem. Theory Comput. 13, 554 (2017)

----- AuxJK basis set information -----
Your calculation utilizes the AutoAux generation procedure.
  G. L. Stoychev, A. A. Auer, F. Neese, J. Chem. Theory Comput. 13, 554 (2017)

================================================================================
                                        WARNINGS
                       Please study these warnings very carefully!
================================================================================

WARNING: Old DensityContainer found on disk!
         Will remove this file - 
         If you want to keep old densities, please start your calculation with a different basename. 


WARNING: your system is open-shell and RHF/RKS was chosen
  ===> : WILL SWITCH to UHF/UKS


INFO   : the flag for use of the SHARK integral package has been found!

================================================================================
                                       INPUT FILE
================================================================================
NAME = EPRII.inp
|  1> ! B3LYP EPR-II AUTOAUX
|  2> %pal nprocs 16 end
|  3> *XYZFile 0 2 opt.xyz
|  4> %EPRNMR
|  5>         GTENSOR   TRUE
|  6>         NUCLEI    = ALL H {SHIFT, AISO, ADIP, AORB}
|  7>         ORI       CenterOfElCharge
|  8> END
|  9> 
| 10>                          ****END OF INPUT****
================================================================================

                       ****************************
                       * Single Point Calculation *
                       ****************************

---------------------------------
CARTESIAN COORDINATES (ANGSTROEM)
---------------------------------
  C      3.991788   -0.049240    0.058108
  C      2.775740    0.000818    0.040924
  C     -2.904926    0.001969   -0.021065
  C      1.348501    0.035970    0.024651
  C      0.635243    1.290110    0.014122
  C     -0.786025    1.210124   -0.000914
  C     -1.471080   -0.005896   -0.005830
  C     -0.755051   -1.242724    0.004473
  C      0.640732   -1.178015    0.019328
  H     -1.371296    2.129824   -0.008865
  H      1.223342   -2.098995    0.027465
  C      1.310813    2.530858    0.018832
  H      2.403663    2.505003    0.030818
  C      0.641084    3.872285    0.008661
  H     -0.020408    3.959192   -0.878174
  H     -0.042671    3.961660    0.878176
  C      1.626345    5.048246    0.019383
  H      2.275422    4.965813    0.910219
  H      2.296697    4.963937   -0.855394
  C      0.933467    6.412041    0.009601
  H      0.280768    6.536675    0.890987
  H      0.302265    6.534793   -0.887575
  C     -1.517430   -2.551443   -0.000599
  H     -2.203439   -2.555198    0.867109
  H     -2.188523   -2.557024   -0.879837
  C     -0.686654   -3.837261    0.007762
  H     -0.015119   -3.856287   -0.870392
  H     -0.031197   -3.855470    0.897992
  C     -1.555555   -5.100742    0.000739
  H     -2.229365   -5.083796    0.877444
  H     -2.214538   -5.084219   -0.887176
  C     -0.737137   -6.394159    0.007906
  H     -0.093627   -6.456407    0.902512
  H     -0.079125   -6.457034   -0.876030
  C     -4.120621    0.011732   -0.035488
  H      5.062776   -0.099657    0.078803
  H     -5.192882    0.026348   -0.050615
  H      1.665288    7.235733    0.017560
  H     -1.387506   -7.283908    0.002941

----------------------------
CARTESIAN COORDINATES (A.U.)
----------------------------
  NO LB      ZA    FRAG     MASS         X           Y           Z
   0 C     6.0000    0    12.011    7.543387   -0.093050    0.109809
   1 C     6.0000    0    12.011    5.245389    0.001546    0.077335
   2 C     6.0000    0    12.011   -5.489514    0.003722   -0.039807
   3 C     6.0000    0    12.011    2.548298    0.067973    0.046584
   4 C     6.0000    0    12.011    1.200436    2.437954    0.026687
   5 C     6.0000    0    12.011   -1.485371    2.286804   -0.001728
   6 C     6.0000    0    12.011   -2.779939   -0.011142   -0.011018
   7 C     6.0000    0    12.011   -1.426839   -2.348407    0.008453
   8 C     6.0000    0    12.011    1.210808   -2.226125    0.036525
   9 H     1.0000    0     1.008   -2.591374    4.024784   -0.016753
  10 H     1.0000    0     1.008    2.311781   -3.966526    0.051902
  11 C     6.0000    0    12.011    2.477077    4.782628    0.035587
  12 H     1.0000    0     1.008    4.542265    4.733770    0.058237
  13 C     6.0000    0    12.011    1.211473    7.317559    0.016367
  14 H     1.0000    0     1.008   -0.038565    7.481789   -1.659508
  15 H     1.0000    0     1.008   -0.080636    7.486452    1.659512
  16 C     6.0000    0    12.011    3.073346    9.539803    0.036628
  17 H     1.0000    0     1.008    4.299925    9.384027    1.720066
  18 H     1.0000    0     1.008    4.340129    9.380481   -1.616460
  19 C     6.0000    0    12.011    1.763996   12.117001    0.018144
  20 H     1.0000    0     1.008    0.530575   12.352525    1.683722
  21 H     1.0000    0     1.008    0.571197   12.348970   -1.677274
  22 C     6.0000    0    12.011   -2.867527   -4.821529   -0.001132
  23 H     1.0000    0     1.008   -4.163895   -4.828624    1.638599
  24 H     1.0000    0     1.008   -4.135709   -4.832075   -1.662650
  25 C     6.0000    0    12.011   -1.297588   -7.251373    0.014668
  26 H     1.0000    0     1.008   -0.028571   -7.287325   -1.644802
  27 H     1.0000    0     1.008   -0.058953   -7.285783    1.696960
  28 C     6.0000    0    12.011   -2.939572   -9.639005    0.001397
  29 H     1.0000    0     1.008   -4.212890   -9.606983    1.658129
  30 H     1.0000    0     1.008   -4.184870   -9.607782   -1.676520
  31 C     6.0000    0    12.011   -1.392986  -12.083209    0.014940
  32 H     1.0000    0     1.008   -0.176929  -12.200840    1.705500
  33 H     1.0000    0     1.008   -0.149525  -12.202026   -1.655456
  34 C     6.0000    0    12.011   -7.786844    0.022171   -0.067063
  35 H     1.0000    0     1.008    9.567261   -0.188325    0.148916
  36 H     1.0000    0     1.008   -9.813124    0.049791   -0.095648
  37 H     1.0000    0     1.008    3.146937   13.673554    0.033183
  38 H     1.0000    0     1.008   -2.622006  -13.764592    0.005558

--------------------------------
INTERNAL COORDINATES (ANGSTROEM)
--------------------------------
 C      0   0   0     0.000000000000     0.00000000     0.00000000
 C      1   0   0     1.217198970430     0.00000000     0.00000000
 C      2   1   0     5.681004601816   177.64740133     0.00000000
 C      2   1   3     1.427764709600   179.04098789     4.88395755
 C      4   2   1     1.442814618264   121.04115943   170.73551055
 C      5   4   2     1.423596374880   116.40940875   180.04250256
 C      6   5   4     1.395719002335   122.61642772     0.00000000
 C      7   6   5     1.429176852768   120.53451430     0.00000000
 C      8   7   6     1.397360852263   117.41574141     0.00000000
 H      6   5   4     1.090161686004   119.25290446   179.97372195
 H      9   8   7     1.089819105179   119.66547878   180.00401020
 C      5   4   2     1.412753188159   121.80168353     0.02653600
 H     12   5   4     1.093222111356   117.21282872     0.00000000
 C     12   5   4     1.499356079612   124.89824281   180.00328768
 H     14  12   5     1.109774899194   109.98224078   302.52491495
 H     14  12   5     1.109758438535   109.99562980    57.25191299
 C     14  12   5     1.534189837895   113.50703085   179.89831305
 H     17  14  12     1.105299665650   109.00159080   302.38291560
 H     17  14  12     1.105312042978   108.99511489    57.67838119
 C     17  14  12     1.529742060448   113.10575114   180.02885686
 H     20  17  14     1.103807064559   111.30839233    59.86338153
 H     20  17  14     1.103815962708   111.30588770   300.13928564
 C      8   7   6     1.514593813755   119.70734801   179.97863328
 H     23   8   7     1.106137308186   108.20869318   303.63256908
 H     23   8   7     1.106099383299   108.20498756    56.10248812
 C     23   8   7     1.530877907707   116.90901800   179.86322827
 H     26  23   8     1.105655588828   109.85973483   301.79885745
 H     26  23   8     1.105651982388   109.87342160    58.29631173
 C     26  23   8     1.533434330866   112.61459569   180.04061859
 H     29  26  23     1.105857029927   109.20818453   302.29266698
 H     29  26  23     1.105859668289   109.20968051    57.61940548
 C     29  26  23     1.530616666740   113.15782013   179.95573414
 H     32  29  26     1.103765994710   111.29604661    59.83705599
 H     32  29  26     1.103754258905   111.29386646   300.13043542
 C      3   2   1     1.215819505462   179.54822432   182.44144594
 H      1   2   4     1.072374000531   179.55017476   328.05163120
 H     35   3   7     1.072467397770   179.65444167   355.85773913
 H     20  17  14     1.101859419311   111.44324752   180.00312326
 H     32  29  26     1.102115761963   111.50913426   179.98299719

---------------------------
INTERNAL COORDINATES (A.U.)
---------------------------
 C      0   0   0     0.000000000000     0.00000000     0.00000000
 C      1   0   0     2.300172704604     0.00000000     0.00000000
 C      2   1   0    10.735542862978   177.64740133     0.00000000
 C      2   1   3     2.698084284822   179.04098789     4.88395755
 C      4   2   1     2.726524490537   121.04115943   170.73551055
 C      5   4   2     2.690207273767   116.40940875   180.04250256
 C      6   5   4     2.637526674323   122.61642772     0.00000000
 C      7   6   5     2.700752848671   120.53451430     0.00000000
 C      8   7   6     2.640629321039   117.41574141     0.00000000
 H      6   5   4     2.060107028241   119.25290446   179.97372195
 H      9   8   7     2.059459644304   119.66547878   180.00401020
 C      5   4   2     2.669716620445   121.80168353     0.02653600
 H     12   5   4     2.065890394010   117.21282872     0.00000000
 C     12   5   4     2.833372367697   124.89824281   180.00328768
 H     14  12   5     2.097170629776   109.98224078   302.52491495
 H     14  12   5     2.097139523638   109.99562980    57.25191299
 C     14  12   5     2.899198631066   113.50703085   179.89831305
 H     17  14  12     2.088713663994   109.00159080   302.38291560
 H     17  14  12     2.088737053754   108.99511489    57.67838119
 C     17  14  12     2.890793549788   113.10575114   180.02885686
 H     20  17  14     2.085893056704   111.30839233    59.86338153
 H     20  17  14     2.085909871769   111.30588770   300.13928564
 C      8   7   6     2.862167512128   119.70734801   179.97863328
 H     23   8   7     2.090296578984   108.20869318   303.63256908
 H     23   8   7     2.090224911335   108.20498756    56.10248812
 C     23   8   7     2.892939990037   116.90901800   179.86322827
 H     26  23   8     2.089386261324   109.85973483   301.79885745
 H     26  23   8     2.089379446140   109.87342160    58.29631173
 C     26  23   8     2.897770929690   112.61459569   180.04061859
 H     29  26  23     2.089766929834   109.20818453   302.29266698
 H     29  26  23     2.089771915615   109.20968051    57.61940548
 C     29  26  23     2.892446316155   113.15782013   179.95573414
 H     32  29  26     2.085815445937   111.29604661    59.83705599
 H     32  29  26     2.085793268480   111.29386646   300.13043542
 C      3   2   1     2.297565893602   179.54822432   182.44144594
 H      1   2   4     2.026493174142   179.55017476   328.05163120
 H     35   3   7     2.026669669345   179.65444167   355.85773913
 H     20  17  14     2.082212540579   111.44324752   180.00312326
 H     32  29  26     2.082696957988   111.50913426   179.98299719

---------------------
BASIS SET INFORMATION
---------------------
There are 2 groups of distinct atoms

 Group   1 Type C   : 10s5p1d contracted to 6s2p1d pattern {511111/41/1}
 Group   2 Type H   : 6s1p contracted to 4s1p pattern {3111/1}

Atom   0C    basis set group =>   1
Atom   1C    basis set group =>   1
Atom   2C    basis set group =>   1
Atom   3C    basis set group =>   1
Atom   4C    basis set group =>   1
Atom   5C    basis set group =>   1
Atom   6C    basis set group =>   1
Atom   7C    basis set group =>   1
Atom   8C    basis set group =>   1
Atom   9H    basis set group =>   2
Atom  10H    basis set group =>   2
Atom  11C    basis set group =>   1
Atom  12H    basis set group =>   2
Atom  13C    basis set group =>   1
Atom  14H    basis set group =>   2
Atom  15H    basis set group =>   2
Atom  16C    basis set group =>   1
Atom  17H    basis set group =>   2
Atom  18H    basis set group =>   2
Atom  19C    basis set group =>   1
Atom  20H    basis set group =>   2
Atom  21H    basis set group =>   2
Atom  22C    basis set group =>   1
Atom  23H    basis set group =>   2
Atom  24H    basis set group =>   2
Atom  25C    basis set group =>   1
Atom  26H    basis set group =>   2
Atom  27H    basis set group =>   2
Atom  28C    basis set group =>   1
Atom  29H    basis set group =>   2
Atom  30H    basis set group =>   2
Atom  31C    basis set group =>   1
Atom  32H    basis set group =>   2
Atom  33H    basis set group =>   2
Atom  34C    basis set group =>   1
Atom  35H    basis set group =>   2
Atom  36H    basis set group =>   2
Atom  37H    basis set group =>   2
Atom  38H    basis set group =>   2
---------------------------------
AUXILIARY/J BASIS SET INFORMATION
---------------------------------
There are 2 groups of distinct atoms

 Group   1 Type C   : 17s13p12d2f contracted to 17s13p12d2f pattern {11111111111111111/1111111111111/111111111111/11}
 Group   2 Type H   : 15s6p1d contracted to 15s6p1d pattern {111111111111111/111111/1}

Atom   0C    basis set group =>   1
Atom   1C    basis set group =>   1
Atom   2C    basis set group =>   1
Atom   3C    basis set group =>   1
Atom   4C    basis set group =>   1
Atom   5C    basis set group =>   1
Atom   6C    basis set group =>   1
Atom   7C    basis set group =>   1
Atom   8C    basis set group =>   1
Atom   9H    basis set group =>   2
Atom  10H    basis set group =>   2
Atom  11C    basis set group =>   1
Atom  12H    basis set group =>   2
Atom  13C    basis set group =>   1
Atom  14H    basis set group =>   2
Atom  15H    basis set group =>   2
Atom  16C    basis set group =>   1
Atom  17H    basis set group =>   2
Atom  18H    basis set group =>   2
Atom  19C    basis set group =>   1
Atom  20H    basis set group =>   2
Atom  21H    basis set group =>   2
Atom  22C    basis set group =>   1
Atom  23H    basis set group =>   2
Atom  24H    basis set group =>   2
Atom  25C    basis set group =>   1
Atom  26H    basis set group =>   2
Atom  27H    basis set group =>   2
Atom  28C    basis set group =>   1
Atom  29H    basis set group =>   2
Atom  30H    basis set group =>   2
Atom  31C    basis set group =>   1
Atom  32H    basis set group =>   2
Atom  33H    basis set group =>   2
Atom  34C    basis set group =>   1
Atom  35H    basis set group =>   2
Atom  36H    basis set group =>   2
Atom  37H    basis set group =>   2
Atom  38H    basis set group =>   2
---------------------------------
AUXILIARY/C BASIS SET INFORMATION
---------------------------------
There are 2 groups of distinct atoms

 Group   1 Type C   : 17s13p12d2f contracted to 17s13p12d2f pattern {11111111111111111/1111111111111/111111111111/11}
 Group   2 Type H   : 15s6p1d contracted to 15s6p1d pattern {111111111111111/111111/1}

Atom   0C    basis set group =>   1
Atom   1C    basis set group =>   1
Atom   2C    basis set group =>   1
Atom   3C    basis set group =>   1
Atom   4C    basis set group =>   1
Atom   5C    basis set group =>   1
Atom   6C    basis set group =>   1
Atom   7C    basis set group =>   1
Atom   8C    basis set group =>   1
Atom   9H    basis set group =>   2
Atom  10H    basis set group =>   2
Atom  11C    basis set group =>   1
Atom  12H    basis set group =>   2
Atom  13C    basis set group =>   1
Atom  14H    basis set group =>   2
Atom  15H    basis set group =>   2
Atom  16C    basis set group =>   1
Atom  17H    basis set group =>   2
Atom  18H    basis set group =>   2
Atom  19C    basis set group =>   1
Atom  20H    basis set group =>   2
Atom  21H    basis set group =>   2
Atom  22C    basis set group =>   1
Atom  23H    basis set group =>   2
Atom  24H    basis set group =>   2
Atom  25C    basis set group =>   1
Atom  26H    basis set group =>   2
Atom  27H    basis set group =>   2
Atom  28C    basis set group =>   1
Atom  29H    basis set group =>   2
Atom  30H    basis set group =>   2
Atom  31C    basis set group =>   1
Atom  32H    basis set group =>   2
Atom  33H    basis set group =>   2
Atom  34C    basis set group =>   1
Atom  35H    basis set group =>   2
Atom  36H    basis set group =>   2
Atom  37H    basis set group =>   2
Atom  38H    basis set group =>   2
----------------------------------
AUXILIARY/JK BASIS SET INFORMATION
----------------------------------
There are 2 groups of distinct atoms

 Group   1 Type C   : 17s13p12d2f contracted to 17s13p12d2f pattern {11111111111111111/1111111111111/111111111111/11}
 Group   2 Type H   : 15s6p1d contracted to 15s6p1d pattern {111111111111111/111111/1}

Atom   0C    basis set group =>   1
Atom   1C    basis set group =>   1
Atom   2C    basis set group =>   1
Atom   3C    basis set group =>   1
Atom   4C    basis set group =>   1
Atom   5C    basis set group =>   1
Atom   6C    basis set group =>   1
Atom   7C    basis set group =>   1
Atom   8C    basis set group =>   1
Atom   9H    basis set group =>   2
Atom  10H    basis set group =>   2
Atom  11C    basis set group =>   1
Atom  12H    basis set group =>   2
Atom  13C    basis set group =>   1
Atom  14H    basis set group =>   2
Atom  15H    basis set group =>   2
Atom  16C    basis set group =>   1
Atom  17H    basis set group =>   2
Atom  18H    basis set group =>   2
Atom  19C    basis set group =>   1
Atom  20H    basis set group =>   2
Atom  21H    basis set group =>   2
Atom  22C    basis set group =>   1
Atom  23H    basis set group =>   2
Atom  24H    basis set group =>   2
Atom  25C    basis set group =>   1
Atom  26H    basis set group =>   2
Atom  27H    basis set group =>   2
Atom  28C    basis set group =>   1
Atom  29H    basis set group =>   2
Atom  30H    basis set group =>   2
Atom  31C    basis set group =>   1
Atom  32H    basis set group =>   2
Atom  33H    basis set group =>   2
Atom  34C    basis set group =>   1
Atom  35H    basis set group =>   2
Atom  36H    basis set group =>   2
Atom  37H    basis set group =>   2
Atom  38H    basis set group =>   2

Checking for AutoStart:
The File: EPRII.gbw exists
Trying to determine its content:
     ... Fine, the file contains calculation information
     ... Fine, the calculation information was read
     ... Fine, the file contains a basis set
     ... Fine, the basis set was read
     ... Fine, the file contains a geometry
     ... Fine, the geometry was read
     ... Fine, the file contains a set of orbitals
     ... Fine, the orbitals can be read
     => possible old guess file was deleted
     => GBW file was renamed to GES file
     => GES file is set as startup file
     => Guess is set to MORead
     ... now leaving AutoStart



           ************************************************************
           *        Program running with 16 parallel MPI-processes    *
           *              working on a common directory               *
           ************************************************************
------------------------------------------------------------------------------
                           ORCA GTO INTEGRAL CALCULATION
                           -- RI-GTO INTEGRALS CHOSEN --
------------------------------------------------------------------------------
------------------------------------------------------------------------------
                   ___                                                        
                  /   \      - P O W E R E D   B Y -                         
                 /     \                                                     
                 |  |  |   _    _      __       _____    __    __             
                 |  |  |  | |  | |    /  \     |  _  \  |  |  /  |          
                  \  \/   | |  | |   /    \    | | | |  |  | /  /          
                 / \  \   | |__| |  /  /\  \   | |_| |  |  |/  /          
                |  |  |   |  __  | /  /__\  \  |    /   |      \           
                |  |  |   | |  | | |   __   |  |    \   |  |\   \          
                \     /   | |  | | |  |  |  |  | |\  \  |  | \   \       
                 \___/    |_|  |_| |__|  |__|  |_| \__\ |__|  \__/        
                                                                              
                      - O R C A' S   B I G   F R I E N D -                    
                                      &                                       
                       - I N T E G R A L  F E E D E R -                       
                                                                              
 v1 FN, 2020, v2 2021                                                         
------------------------------------------------------------------------------


Reading SHARK input file EPRII.SHARKINP.tmp ... ok
----------------------
SHARK INTEGRAL PACKAGE
----------------------

Number of atoms                             ...     39
Number of basis functions                   ...    453
Number of shells                            ...    267
Maximum angular momentum                    ...      2
Integral batch strategy                     ... SHARK/LIBINT Hybrid
RI-J (if used) integral strategy            ... SPLIT-RIJ (Revised 2003 algorithm where possible)
Printlevel                                  ...      1
Contraction scheme used                     ... SEGMENTED contraction
Coulomb Range Separation                    ... NOT USED
Exchange Range Separation                   ... NOT USED
Finite Nucleus Model                        ... NOT USED
Auxiliary Coulomb fitting basis             ... AVAILABLE
   # of basis functions in Aux-J            ...   3138
   # of shells in Aux-J                     ...   1254
   Maximum angular momentum in Aux-J        ...      3
Auxiliary J/K fitting basis                 ... AVAILABLE
   # of basis functions in Aux-JK           ...   3138
   # of shells in Aux-JK                    ...   1254
   Maximum angular momentum in Aux-JK       ...      3
Auxiliary Correlation fitting basis         ... AVAILABLE
   # of basis functions in Aux-C            ...   3138
   # of shells in Aux-C                     ...   1254
   Maximum angular momentum in Aux-C        ...      3
Auxiliary 'external' fitting basis          ... NOT available
Integral threshold                          ...     1.000000e-10
Primitive cut-off                           ...     1.000000e-11
Primitive pair pre-selection threshold      ...     1.000000e-11

Calculating pre-screening integrals         ... done (  0.0 sec) Dimension = 267
Organizing shell pair data                  ... done (  0.1 sec)
Shell pair information
Total number of shell pairs                 ...     35778
Shell pairs after pre-screening             ...     20491
Total number of primitive shell pairs       ...     95181
Primitive shell pairs kept                  ...     39182
          la=0 lb=0:   9377 shell pairs
          la=1 lb=0:   7080 shell pairs
          la=1 lb=1:   1238 shell pairs
          la=2 lb=0:   1951 shell pairs
          la=2 lb=1:    724 shell pairs
          la=2 lb=2:    121 shell pairs

Calculating one electron integrals          ... done (  0.0 sec)
Calculating RI/J V-Matrix + Cholesky decomp.... done (  0.8 sec)
Calculating RI/JK V-Matrix + Cholesky decomp... done (  0.7 sec)
Calculating RI/C V-Matrix + Cholesky decomp.... done (  0.8 sec)
Calculating Nuclear repulsion               ... done (  0.0 sec) ENN=   1144.886103824135 Eh

SHARK setup successfully completed in   3.1 seconds

Maximum memory used throughout the entire GTOINT-calculation: 39.5 MB


           ************************************************************
           *        Program running with 16 parallel MPI-processes    *
           *              working on a common directory               *
           ************************************************************
-------------------------------------------------------------------------------
                                 ORCA SCF
-------------------------------------------------------------------------------

------------
SCF SETTINGS
------------
Hamiltonian:
 Density Functional     Method          .... DFT(GTOs)
 Exchange Functional    Exchange        .... B88
   X-Alpha parameter    XAlpha          ....  0.666667
   Becke's b parameter  XBeta           ....  0.004200
 Correlation Functional Correlation     .... LYP
 LDA part of GGA corr.  LDAOpt          .... VWN-5
 Gradients option       PostSCFGGA      .... off
 Hybrid DFT is turned on
   Fraction HF Exchange ScalHFX         ....  0.200000
   Scaling of DF-GGA-X  ScalDFX         ....  0.720000
   Scaling of DF-GGA-C  ScalDFC         ....  0.810000
   Scaling of DF-LDA-C  ScalLDAC        ....  1.000000
   Perturbative correction              ....  0.000000
   Density functional embedding theory  .... OFF
   NL short-range parameter             ....  4.800000
 RI-approximation to the Coulomb term is turned on
   Number of AuxJ basis functions       .... 3138
   RIJ-COSX (HFX calculated with COS-X)).... on


General Settings:
 Integral files         IntName         .... EPRII
 Hartree-Fock type      HFTyp           .... UHF
 Total Charge           Charge          ....    0
 Multiplicity           Mult            ....    2
 Number of Electrons    NEL             ....  129
 Basis Dimension        Dim             ....  453
 Nuclear Repulsion      ENuc            ....   1144.8861038241 Eh

Convergence Acceleration:
 DIIS                   CNVDIIS         .... on
   Start iteration      DIISMaxIt       ....    12
   Startup error        DIISStart       ....  0.200000
   # of expansion vecs  DIISMaxEq       ....     5
   Bias factor          DIISBfac        ....   1.050
   Max. coefficient     DIISMaxC        ....  10.000
 Trust-Rad. Augm. Hess. CNVTRAH         .... auto
   Auto Start mean grad. ratio tolernc. ....  1.125000
   Auto Start start iteration           ....     1
   Auto Start num. interpolation iter.  ....    10
   Max. Number of Micro iterations      ....    16
   Max. Number of Macro iterations      .... Maxiter - #DIIS iter
   Number of Davidson start vectors     ....     2
   Converg. threshold I  (grad. norm)   ....   5.000e-05
   Converg. threshold II (energy diff.) ....   1.000e-06
   Grad. Scal. Fac. for Micro threshold ....   0.100
   Minimum threshold for Micro iter.    ....   0.010
   NR start threshold (gradient norm)   ....   0.001
   Initial trust radius                 ....   0.400
   Minimum AH scaling param. (alpha)    ....   1.000
   Maximum AH scaling param. (alpha)    .... 1000.000
   Orbital update algorithm             .... Taylor
   White noise on init. David. guess    .... on
   Maximum white noise                  ....   0.010
   Quad. conv. algorithm                .... NR
 SOSCF                  CNVSOSCF        .... off
 Level Shifting         CNVShift        .... on
   Level shift para.    LevelShift      ....    0.2500
   Turn off err/grad.   ShiftErr        ....    0.0010
 Zerner damping         CNVZerner       .... off
 Static damping         CNVDamp         .... on
   Fraction old density DampFac         ....    0.7000
   Max. Damping (<1)    DampMax         ....    0.9800
   Min. Damping (>=0)   DampMin         ....    0.0000
   Turn off err/grad.   DampErr         ....    0.1000
 Fernandez-Rico         CNVRico         .... off

SCF Procedure:
 Maximum # iterations   MaxIter         ....   125
 SCF integral mode      SCFMode         .... Direct
   Integral package                     .... SHARK and LIBINT hybrid scheme
 Reset frequency        DirectResetFreq ....    20
 Integral Threshold     Thresh          ....  1.000e-10 Eh
 Primitive CutOff       TCut            ....  1.000e-11 Eh

Convergence Tolerance:
 Convergence Check Mode ConvCheckMode   .... Total+1el-Energy
 Convergence forced     ConvForced      .... 0
 Energy Change          TolE            ....  1.000e-06 Eh
 1-El. energy change                    ....  1.000e-03 Eh
 DIIS Error             TolErr          ....  1.000e-06


Diagonalization of the overlap matrix:
Smallest eigenvalue                        ... 1.322e-04
Time for diagonalization                   ...    0.044 sec
Threshold for overlap eigenvalues          ... 1.000e-08
Number of eigenvalues below threshold      ... 0
Time for construction of square roots      ...    0.035 sec
Total time needed                          ...    0.081 sec

---------------------
INITIAL GUESS: MOREAD
---------------------
Guess MOs are being read from file: EPRII.ges
Input Geometry matches current geometry (good)
Input basis set matches current basis set (good)
MOs were renormalized
MOs were reorthogonalized (Cholesky)
                      ------------------
                      INITIAL GUESS DONE (   0.2 sec)
                      ------------------
-------------------
DFT GRID GENERATION
-------------------

General Integration Accuracy     IntAcc      ... 4.388
Radial Grid Type                 RadialGrid  ... OptM3 with GC (2021)
Angular Grid (max. ang.)         AngularGrid ... 4 (Lebedev-302)
Angular grid pruning method      GridPruning ... 4 (adaptive)
Weight generation scheme         WeightScheme... Becke
Basis function cutoff            BFCut       ... 1.0000e-10
Integration weight cutoff        WCut        ... 1.0000e-14
Angular grids for H and He will be reduced by one unit
Partially contracted basis set               ... off
Rotationally invariant grid construction     ... off

Total number of grid points                  ...   174685
Total number of batches                      ...     2747
Average number of points per batch           ...       63
Average number of grid points per atom       ...     4479
Time for grid setup =    0.924 sec

--------------------
COSX GRID GENERATION
--------------------

GRIDX 1
-------
General Integration Accuracy     IntAcc      ... 3.816
Radial Grid Type                 RadialGrid  ... OptM3 with GC (2021)
Angular Grid (max. ang.)         AngularGrid ... 1 (Lebedev-50)
Angular grid pruning method      GridPruning ... 4 (adaptive)
Weight generation scheme         WeightScheme... Becke
Basis function cutoff            BFCut       ... 1.0000e-10
Integration weight cutoff        WCut        ... 1.0000e-14
Angular grids for H and He will be reduced by one unit
Partially contracted basis set               ... on
Rotationally invariant grid construction     ... off

Total number of grid points                  ...    22264
Total number of batches                      ...      371
Average number of points per batch           ...       60
Average number of grid points per atom       ...      571
UseSFitting                                  ... on

GRIDX 2
-------
General Integration Accuracy     IntAcc      ... 4.020
Radial Grid Type                 RadialGrid  ... OptM3 with GC (2021)
Angular Grid (max. ang.)         AngularGrid ... 2 (Lebedev-110)
Angular grid pruning method      GridPruning ... 4 (adaptive)
Weight generation scheme         WeightScheme... Becke
Basis function cutoff            BFCut       ... 1.0000e-10
Integration weight cutoff        WCut        ... 1.0000e-14
Angular grids for H and He will be reduced by one unit
Partially contracted basis set               ... on
Rotationally invariant grid construction     ... off

Total number of grid points                  ...    47311
Total number of batches                      ...      761
Average number of points per batch           ...       62
Average number of grid points per atom       ...     1213
UseSFitting                                  ... on

GRIDX 3
-------
General Integration Accuracy     IntAcc      ... 4.338
Radial Grid Type                 RadialGrid  ... OptM3 with GC (2021)
Angular Grid (max. ang.)         AngularGrid ... 3 (Lebedev-194)
Angular grid pruning method      GridPruning ... 4 (adaptive)
Weight generation scheme         WeightScheme... Becke
Basis function cutoff            BFCut       ... 1.0000e-10
Integration weight cutoff        WCut        ... 1.0000e-14
Angular grids for H and He will be reduced by one unit
Partially contracted basis set               ... on
Rotationally invariant grid construction     ... off

Total number of grid points                  ...   103513
Total number of batches                      ...     1637
Average number of points per batch           ...       63
Average number of grid points per atom       ...     2654
UseSFitting                                  ... on

Time for X-Grid setup             =    1.927 sec

--------------
SCF ITERATIONS
--------------
ITER       Energy         Delta-E        Max-DP      RMS-DP      [F,P]     Damp
               ***  Starting incremental Fock matrix formation  ***
  0   -698.0281740721   0.000000000000 0.00002464  0.00000028  0.0000614 0.7000
                 **** Energy Check signals convergence ****

               *****************************************************
               *                     SUCCESS                       *
               *           SCF CONVERGED AFTER   1 CYCLES          *
               *****************************************************

Old exchange energy                            =    -20.106274570 Eh
New exchange energy                            =    -20.106250324 Eh
Exchange energy change after final integration =      0.000024247 Eh
Total energy after final integration           =   -698.028149781 Eh
Final COS-X integration done in                =     5.941 sec

----------------
TOTAL SCF ENERGY
----------------

Total Energy       :         -698.02814978 Eh          -18994.31161 eV

Components:
Nuclear Repulsion  :         1144.88610382 Eh           31153.93472 eV
Electronic Energy  :        -1842.91425361 Eh          -50148.24633 eV
One Electron Energy:        -3212.80343975 Eh          -87424.82619 eV
Two Electron Energy:         1369.88918614 Eh           37276.57986 eV
Max COSX asymmetry :            0.00000330 Eh               0.00009 eV

Virial components:
Potential Energy   :        -1390.45908047 Eh          -37836.31514 eV
Kinetic Energy     :          692.43093069 Eh           18842.00353 eV
Virial Ratio       :            2.00808343


DFT components:
N(Alpha)           :       65.000101576239 electrons
N(Beta)            :       64.000088945020 electrons
N(Total)           :      129.000190521259 electrons
E(X)               :      -79.748297598398 Eh       
E(C)               :       -4.991107388872 Eh       
E(XC)              :      -84.739404987270 Eh       
DFET-embed. en.    :        0.000000000000 Eh       

---------------
SCF CONVERGENCE
---------------

  Last Energy change         ...    4.4305e-08  Tolerance :   1.0000e-06
  Last MAX-Density change    ...    9.6964e-06  Tolerance :   1.0000e-05
  Last RMS-Density change    ...    9.5120e-08  Tolerance :   1.0000e-06
  Last DIIS Error            ...    2.9539e-05  Tolerance :   1.0000e-06

             **** THE GBW FILE WAS UPDATED (EPRII.gbw) ****
             **** DENSITY EPRII.scfp WAS UPDATED ****
             **** ENERGY FILE WAS UPDATED (EPRII.en.tmp) ****
----------------------
UHF SPIN CONTAMINATION
----------------------

Warning: in a DFT calculation there is little theoretical justification to 
         calculate <S**2> as in Hartree-Fock theory. We will do it anyways
         but you should keep in mind that the values have only limited relevance

Expectation value of <S**2>     :     0.785738
Ideal value S*(S+1) for S=0.5   :     0.750000
Deviation                       :     0.035738

             **** THE GBW FILE WAS UPDATED (EPRII.gbw) ****
             **** DENSITY EPRII.scfp WAS UPDATED ****
----------------
ORBITAL ENERGIES
----------------
                 SPIN UP ORBITALS
  NO   OCC          E(Eh)            E(eV) 
   0   1.0000     -10.225976      -278.2630 
   1   1.0000     -10.224146      -278.2131 
   2   1.0000     -10.213651      -277.9276 
   3   1.0000     -10.210618      -277.8450 
   4   1.0000     -10.207166      -277.7511 
   5   1.0000     -10.205272      -277.6996 
   6   1.0000     -10.204197      -277.6703 
   7   1.0000     -10.199680      -277.5474 
   8   1.0000     -10.199168      -277.5335 
   9   1.0000     -10.198470      -277.5145 
  10   1.0000     -10.197757      -277.4951 
  11   1.0000     -10.190825      -277.3065 
  12   1.0000     -10.188752      -277.2500 
  13   1.0000     -10.185570      -277.1635 
  14   1.0000     -10.182993      -277.0933 
  15   1.0000     -10.182573      -277.0819 
  16   1.0000     -10.175497      -276.8894 
  17   1.0000     -10.173272      -276.8288 
  18   1.0000      -0.875734       -23.8299 
  19   1.0000      -0.820696       -22.3323 
  20   1.0000      -0.798480       -21.7277 
  21   1.0000      -0.795170       -21.6377 
  22   1.0000      -0.768075       -20.9004 
  23   1.0000      -0.754667       -20.5355 
  24   1.0000      -0.730855       -19.8876 
  25   1.0000      -0.723216       -19.6797 
  26   1.0000      -0.697812       -18.9884 
  27   1.0000      -0.656894       -17.8750 
  28   1.0000      -0.641120       -17.4458 
  29   1.0000      -0.617387       -16.7999 
  30   1.0000      -0.594556       -16.1787 
  31   1.0000      -0.580393       -15.7933 
  32   1.0000      -0.563377       -15.3303 
  33   1.0000      -0.544055       -14.8045 
  34   1.0000      -0.526236       -14.3196 
  35   1.0000      -0.500572       -13.6212 
  36   1.0000      -0.488001       -13.2792 
  37   1.0000      -0.478648       -13.0247 
  38   1.0000      -0.470827       -12.8119 
  39   1.0000      -0.463051       -12.6003 
  40   1.0000      -0.434486       -11.8230 
  41   1.0000      -0.430689       -11.7196 
  42   1.0000      -0.426360       -11.6019 
  43   1.0000      -0.422453       -11.4955 
  44   1.0000      -0.412255       -11.2180 
  45   1.0000      -0.399357       -10.8670 
  46   1.0000      -0.398327       -10.8390 
  47   1.0000      -0.381453       -10.3799 
  48   1.0000      -0.379955       -10.3391 
  49   1.0000      -0.365630        -9.9493 
  50   1.0000      -0.358184        -9.7467 
  51   1.0000      -0.355168        -9.6646 
  52   1.0000      -0.340558        -9.2670 
  53   1.0000      -0.333067        -9.0632 
  54   1.0000      -0.332412        -9.0454 
  55   1.0000      -0.331270        -9.0143 
  56   1.0000      -0.327696        -8.9171 
  57   1.0000      -0.324115        -8.8196 
  58   1.0000      -0.321141        -8.7387 
  59   1.0000      -0.287062        -7.8113 
  60   1.0000      -0.278685        -7.5834 
  61   1.0000      -0.277058        -7.5391 
  62   1.0000      -0.272086        -7.4038 
  63   1.0000      -0.232838        -6.3359 
  64   1.0000      -0.175549        -4.7769 
  65   0.0000      -0.051433        -1.3996 
  66   0.0000       0.008185         0.2227 
  67   0.0000       0.018717         0.5093 
  68   0.0000       0.021122         0.5747 
  69   0.0000       0.024389         0.6637 
  70   0.0000       0.030074         0.8184 
  71   0.0000       0.036765         1.0004 
  72   0.0000       0.038433         1.0458 
  73   0.0000       0.040967         1.1148 
  74   0.0000       0.045171         1.2292 
  75   0.0000       0.046858         1.2751 
  76   0.0000       0.049057         1.3349 
  77   0.0000       0.050647         1.3782 
  78   0.0000       0.073358         1.9962 
  79   0.0000       0.078848         2.1456 
  80   0.0000       0.087478         2.3804 
  81   0.0000       0.097420         2.6509 
  82   0.0000       0.107182         2.9166 
  83   0.0000       0.108368         2.9489 
  84   0.0000       0.123482         3.3601 
  85   0.0000       0.136717         3.7203 
  86   0.0000       0.149877         4.0784 
  87   0.0000       0.157239         4.2787 
  88   0.0000       0.157629         4.2893 
  89   0.0000       0.160516         4.3679 
  90   0.0000       0.174448         4.7470 
  91   0.0000       0.180670         4.9163 
  92   0.0000       0.184392         5.0176 
  93   0.0000       0.188094         5.1183 
  94   0.0000       0.194876         5.3028 
  95   0.0000       0.198280         5.3955 
  96   0.0000       0.199385         5.4255 
  97   0.0000       0.199932         5.4404 
  98   0.0000       0.202386         5.5072 
  99   0.0000       0.206704         5.6247 
 100   0.0000       0.214386         5.8338 
 101   0.0000       0.218131         5.9356 
 102   0.0000       0.221600         6.0300 
 103   0.0000       0.232623         6.3300 
 104   0.0000       0.237856         6.4724 
 105   0.0000       0.243885         6.6365 
 106   0.0000       0.250788         6.8243 
 107   0.0000       0.251068         6.8319 
 108   0.0000       0.258705         7.0397 
 109   0.0000       0.259664         7.0658 
 110   0.0000       0.266807         7.2602 
 111   0.0000       0.272661         7.4195 
 112   0.0000       0.276522         7.5245 
 113   0.0000       0.279697         7.6110 
 114   0.0000       0.284864         7.7515 
 115   0.0000       0.287947         7.8354 
 116   0.0000       0.296890         8.0788 
 117   0.0000       0.298451         8.1213 
 118   0.0000       0.300056         8.1649 
 119   0.0000       0.300814         8.1856 
 120   0.0000       0.310448         8.4477 
 121   0.0000       0.315243         8.5782 
 122   0.0000       0.318037         8.6542 
 123   0.0000       0.322279         8.7697 
 124   0.0000       0.325271         8.8511 
 125   0.0000       0.330484         8.9929 
 126   0.0000       0.334534         9.1031 
 127   0.0000       0.338134         9.2011 
 128   0.0000       0.349963         9.5230 
 129   0.0000       0.352139         9.5822 
 130   0.0000       0.358811         9.7637 
 131   0.0000       0.361777         9.8445 
 132   0.0000       0.363792         9.8993 
 133   0.0000       0.368304        10.0221 
 134   0.0000       0.377303        10.2669 
 135   0.0000       0.380332        10.3494 
 136   0.0000       0.383932        10.4473 
 137   0.0000       0.394306        10.7296 
 138   0.0000       0.397952        10.8288 
 139   0.0000       0.398846        10.8532 
 140   0.0000       0.407908        11.0997 
 141   0.0000       0.409829        11.1520 
 142   0.0000       0.416437        11.3318 
 143   0.0000       0.423923        11.5355 
 144   0.0000       0.435540        11.8516 
 145   0.0000       0.442339        12.0367 
 146   0.0000       0.443039        12.0557 
 147   0.0000       0.447910        12.1882 
 148   0.0000       0.457210        12.4413 
 149   0.0000       0.463923        12.6240 
 150   0.0000       0.473284        12.8787 
 151   0.0000       0.479887        13.0584 
 152   0.0000       0.484319        13.1790 
 153   0.0000       0.497219        13.5300 
 154   0.0000       0.507186        13.8012 
 155   0.0000       0.508425        13.8350 
 156   0.0000       0.517195        14.0736 
 157   0.0000       0.521097        14.1798 
 158   0.0000       0.533856        14.5270 
 159   0.0000       0.540514        14.7081 
 160   0.0000       0.545297        14.8383 
 161   0.0000       0.551187        14.9986 
 162   0.0000       0.551740        15.0136 
 163   0.0000       0.562488        15.3061 
 164   0.0000       0.571061        15.5394 
 165   0.0000       0.585658        15.9366 
 166   0.0000       0.591603        16.0983 
 167   0.0000       0.592445        16.1212 
 168   0.0000       0.594242        16.1701 
 169   0.0000       0.603438        16.4204 
 170   0.0000       0.624380        16.9902 
 171   0.0000       0.634084        17.2543 
 172   0.0000       0.653532        17.7835 
 173   0.0000       0.669000        18.2044 
 174   0.0000       0.675320        18.3764 
 175   0.0000       0.706565        19.2266 
 176   0.0000       0.729812        19.8592 
 177   0.0000       0.769006        20.9257 
 178   0.0000       0.785096        21.3635 
 179   0.0000       0.788113        21.4456 
 180   0.0000       0.790434        21.5088 
 181   0.0000       0.810341        22.0505 
 182   0.0000       0.821460        22.3531 
 183   0.0000       0.835366        22.7315 
 184   0.0000       0.839722        22.8500 
 185   0.0000       0.847021        23.0486 
 186   0.0000       0.856935        23.3184 
 187   0.0000       0.857666        23.3383 
 188   0.0000       0.861072        23.4310 
 189   0.0000       0.879013        23.9192 
 190   0.0000       0.879477        23.9318 
 191   0.0000       0.883838        24.0505 
 192   0.0000       0.892545        24.2874 
 193   0.0000       0.905030        24.6271 
 194   0.0000       0.911862        24.8130 
 195   0.0000       0.913176        24.8488 
 196   0.0000       0.919573        25.0228 
 197   0.0000       0.923053        25.1176 
 198   0.0000       0.926616        25.2145 
 199   0.0000       0.934405        25.4264 
 200   0.0000       0.942619        25.6500 
 201   0.0000       0.955210        25.9926 
 202   0.0000       0.958001        26.0685 
 203   0.0000       0.968421        26.3521 
 204   0.0000       0.969008        26.3680 
 205   0.0000       0.976620        26.5752 
 206   0.0000       0.982602        26.7380 
 207   0.0000       0.984834        26.7987 
 208   0.0000       0.997017        27.1302 
 209   0.0000       1.002244        27.2724 
 210   0.0000       1.008911        27.4539 
 211   0.0000       1.026108        27.9218 
 212   0.0000       1.031465        28.0676 
 213   0.0000       1.037890        28.2424 
 214   0.0000       1.040288        28.3077 
 215   0.0000       1.045912        28.4607 
 216   0.0000       1.050528        28.5863 
 217   0.0000       1.059136        28.8206 
 218   0.0000       1.062816        28.9207 
 219   0.0000       1.085890        29.5486 
 220   0.0000       1.101634        29.9770 
 221   0.0000       1.106090        30.0982 
 222   0.0000       1.110392        30.2153 
 223   0.0000       1.119159        30.4539 
 224   0.0000       1.127683        30.6858 
 225   0.0000       1.137018        30.9398 
 226   0.0000       1.150001        31.2931 
 227   0.0000       1.160759        31.5859 
 228   0.0000       1.170132        31.8409 
 229   0.0000       1.176159        32.0049 
 230   0.0000       1.183244        32.1977 
 231   0.0000       1.185814        32.2676 
 232   0.0000       1.201498        32.6944 
 233   0.0000       1.205688        32.8084 
 234   0.0000       1.219785        33.1920 
 235   0.0000       1.227401        33.3993 
 236   0.0000       1.236504        33.6470 
 237   0.0000       1.239307        33.7233 
 238   0.0000       1.252118        34.0719 
 239   0.0000       1.253694        34.1147 
 240   0.0000       1.258553        34.2470 
 241   0.0000       1.261257        34.3206 
 242   0.0000       1.279235        34.8098 
 243   0.0000       1.285966        34.9929 
 244   0.0000       1.304031        35.4845 
 245   0.0000       1.316464        35.8228 
 246   0.0000       1.320736        35.9390 
 247   0.0000       1.332499        36.2591 
 248   0.0000       1.342560        36.5329 
 249   0.0000       1.352117        36.7930 
 250   0.0000       1.369999        37.2796 
 251   0.0000       1.376488        37.4561 
 252   0.0000       1.386760        37.7357 
 253   0.0000       1.397960        38.0404 
 254   0.0000       1.399479        38.0818 
 255   0.0000       1.423434        38.7336 
 256   0.0000       1.426840        38.8263 
 257   0.0000       1.427822        38.8530 
 258   0.0000       1.432882        38.9907 
 259   0.0000       1.441496        39.2251 
 260   0.0000       1.445160        39.3248 
 261   0.0000       1.463766        39.8311 
 262   0.0000       1.465982        39.8914 
 263   0.0000       1.480042        40.2740 
 264   0.0000       1.499673        40.8082 
 265   0.0000       1.507598        41.0238 
 266   0.0000       1.512395        41.1544 
 267   0.0000       1.514752        41.2185 
 268   0.0000       1.520518        41.3754 
 269   0.0000       1.548206        42.1288 
 270   0.0000       1.559689        42.4413 
 271   0.0000       1.560808        42.4718 
 272   0.0000       1.562574        42.5198 
 273   0.0000       1.571895        42.7734 
 274   0.0000       1.586286        43.1650 
 275   0.0000       1.589467        43.2516 
 276   0.0000       1.590129        43.2696 
 277   0.0000       1.599193        43.5163 
 278   0.0000       1.603583        43.6357 
 279   0.0000       1.613174        43.8967 
 280   0.0000       1.624751        44.2117 
 281   0.0000       1.627463        44.2855 
 282   0.0000       1.635465        44.5033 
 283   0.0000       1.656026        45.0628 
 284   0.0000       1.658440        45.1284 
 285   0.0000       1.675937        45.6046 
 286   0.0000       1.687130        45.9091 
 287   0.0000       1.689232        45.9663 
 288   0.0000       1.692917        46.0666 
 289   0.0000       1.703235        46.3474 
 290   0.0000       1.704063        46.3699 
 291   0.0000       1.723686        46.9039 
 292   0.0000       1.728472        47.0341 
 293   0.0000       1.740479        47.3608 
 294   0.0000       1.741392        47.3857 
 295   0.0000       1.748980        47.5922 
 296   0.0000       1.769391        48.1476 
 297   0.0000       1.771509        48.2052 
 298   0.0000       1.778050        48.3832 
 299   0.0000       1.786331        48.6085 
 300   0.0000       1.798359        48.9358 
 301   0.0000       1.803007        49.0623 
 302   0.0000       1.804956        49.1154 
 303   0.0000       1.819156        49.5017 
 304   0.0000       1.826555        49.7031 
 305   0.0000       1.843955        50.1766 
 306   0.0000       1.864324        50.7308 
 307   0.0000       1.899819        51.6967 
 308   0.0000       1.917590        52.1803 
 309   0.0000       1.927836        52.4591 
 310   0.0000       1.928121        52.4668 
 311   0.0000       1.933512        52.6135 
 312   0.0000       1.937988        52.7353 
 313   0.0000       1.952216        53.1225 
 314   0.0000       1.979927        53.8765 
 315   0.0000       2.008229        54.6467 
 316   0.0000       2.035263        55.3823 
 317   0.0000       2.043989        55.6198 
 318   0.0000       2.054685        55.9108 
 319   0.0000       2.074485        56.4496 
 320   0.0000       2.088181        56.8223 
 321   0.0000       2.102934        57.2238 
 322   0.0000       2.105600        57.2963 
 323   0.0000       2.125626        57.8412 
 324   0.0000       2.127063        57.8803 
 325   0.0000       2.155965        58.6668 
 326   0.0000       2.157959        58.7211 
 327   0.0000       2.180665        59.3389 
 328   0.0000       2.189898        59.5902 
 329   0.0000       2.208534        60.0973 
 330   0.0000       2.213250        60.2256 
 331   0.0000       2.238373        60.9092 
 332   0.0000       2.243887        61.0593 
 333   0.0000       2.250709        61.2449 
 334   0.0000       2.256828        61.4114 
 335   0.0000       2.268121        61.7187 
 336   0.0000       2.279837        62.0375 
 337   0.0000       2.303107        62.6707 
 338   0.0000       2.310528        62.8727 
 339   0.0000       2.314980        62.9938 
 340   0.0000       2.325687        63.2852 
 341   0.0000       2.330408        63.4136 
 342   0.0000       2.353907        64.0531 
 343   0.0000       2.374916        64.6248 
 344   0.0000       2.384426        64.8835 
 345   0.0000       2.411341        65.6159 
 346   0.0000       2.427665        66.0601 
 347   0.0000       2.432007        66.1783 
 348   0.0000       2.442751        66.4706 
 349   0.0000       2.457837        66.8811 
 350   0.0000       2.471627        67.2564 
 351   0.0000       2.474672        67.3392 
 352   0.0000       2.482770        67.5596 
 353   0.0000       2.505907        68.1892 
 354   0.0000       2.510522        68.3148 
 355   0.0000       2.524629        68.6986 
 356   0.0000       2.534625        68.9707 
 357   0.0000       2.551342        69.4256 
 358   0.0000       2.558949        69.6325 
 359   0.0000       2.560721        69.6808 
 360   0.0000       2.571121        69.9638 
 361   0.0000       2.581271        70.2400 
 362   0.0000       2.603923        70.8563 
 363   0.0000       2.615130        71.1613 
 364   0.0000       2.626361        71.4669 
 365   0.0000       2.628551        71.5265 
 366   0.0000       2.716410        73.9173 
 367   0.0000       2.773704        75.4763 
 368   0.0000       2.795434        76.0676 
 369   0.0000       2.830553        77.0233 
 370   0.0000       2.905542        79.0638 
 371   0.0000       2.959788        80.5399 
 372   0.0000       2.967634        80.7534 
 373   0.0000       2.984814        81.2209 
 374   0.0000       3.291017        89.5531 
 375   0.0000       4.977989       135.4580 
 376   0.0000       4.984854       135.6448 
 377   0.0000       4.997174       135.9800 
 378   0.0000       5.009636       136.3191 
 379   0.0000       5.010504       136.3427 
 380   0.0000       5.019532       136.5884 
 381   0.0000       5.023611       136.6994 
 382   0.0000       5.024553       136.7250 
 383   0.0000       5.034424       136.9936 
 384   0.0000       5.046717       137.3282 
 385   0.0000       5.201255       141.5333 
 386   0.0000       5.216049       141.9359 
 387   0.0000       5.234166       142.4289 
 388   0.0000       5.245034       142.7246 
 389   0.0000       5.277117       143.5976 
 390   0.0000       5.287474       143.8795 
 391   0.0000       5.296177       144.1163 
 392   0.0000       5.305167       144.3609 
 393   0.0000       5.308330       144.4470 
 394   0.0000       5.337611       145.2438 
 395   0.0000       5.362385       145.9179 
 396   0.0000       5.374881       146.2580 
 397   0.0000       5.394408       146.7893 
 398   0.0000       5.407742       147.1521 
 399   0.0000       5.446742       148.2134 
 400   0.0000       5.550782       151.0445 
 401   0.0000       5.563516       151.3910 
 402   0.0000       5.601211       152.4167 
 403   0.0000       5.628434       153.1575 
 404   0.0000       5.634029       153.3097 
 405   0.0000       5.726464       155.8250 
 406   0.0000       5.735910       156.0820 
 407   0.0000       5.758394       156.6939 
 408   0.0000       5.821477       158.4104 
 409   0.0000       5.848857       159.1555 
 410   0.0000       5.882397       160.0682 
 411   0.0000       6.021872       163.8635 
 412   0.0000       6.246657       169.9802 
 413   0.0000       6.371388       173.3743 
 414   0.0000      29.632982       806.3544 
 415   0.0000      29.809303       811.1524 
 416   0.0000      29.847362       812.1880 
 417   0.0000      29.858600       812.4938 
 418   0.0000      29.976654       815.7062 
 419   0.0000      29.985172       815.9380 
 420   0.0000      30.057873       817.9163 
 421   0.0000      30.081457       818.5581 
 422   0.0000      30.107589       819.2692 
 423   0.0000      30.120881       819.6308 
 424   0.0000      30.159884       820.6922 
 425   0.0000      30.199640       821.7740 
 426   0.0000      30.219988       822.3277 
 427   0.0000      30.256972       823.3341 
 428   0.0000      30.284510       824.0834 
 429   0.0000      30.333630       825.4200 
 430   0.0000      30.454034       828.6964 
 431   0.0000      30.589197       832.3744 
 432   0.0000      36.603684       996.0369 
 433   0.0000      36.612857       996.2865 
 434   0.0000      36.628566       996.7139 
 435   0.0000      36.634756       996.8824 
 436   0.0000      36.638749       996.9910 
 437   0.0000      36.645640       997.1786 
 438   0.0000      36.650218       997.3031 
 439   0.0000      36.660839       997.5921 
 440   0.0000      36.671712       997.8880 
 441   0.0000      36.809837      1001.6466 
 442   0.0000      36.824588      1002.0480 
 443   0.0000      36.849632      1002.7295 
 444   0.0000      36.864953      1003.1464 
 445   0.0000      36.868837      1003.2521 
 446   0.0000      36.876103      1003.4498 
 447   0.0000      36.882037      1003.6112 
 448   0.0000      36.916800      1004.5572 
 449   0.0000      36.933926      1005.0232 
 450   0.0000      36.936106      1005.0825 
 451   0.0000      36.965232      1005.8751 
 452   0.0000      37.009494      1007.0795 

                 SPIN DOWN ORBITALS
  NO   OCC          E(Eh)            E(eV) 
   0   1.0000     -10.225765      -278.2572 
   1   1.0000     -10.222556      -278.1699 
   2   1.0000     -10.213045      -277.9111 
   3   1.0000     -10.210193      -277.8335 
   4   1.0000     -10.206759      -277.7400 
   5   1.0000     -10.206076      -277.7214 
   6   1.0000     -10.201124      -277.5867 
   7   1.0000     -10.200756      -277.5767 
   8   1.0000     -10.199101      -277.5316 
   9   1.0000     -10.196463      -277.4599 
  10   1.0000     -10.191493      -277.3246 
  11   1.0000     -10.189775      -277.2779 
  12   1.0000     -10.188951      -277.2555 
  13   1.0000     -10.185533      -277.1624 
  14   1.0000     -10.182990      -277.0933 
  15   1.0000     -10.182573      -277.0819 
  16   1.0000     -10.175506      -276.8896 
  17   1.0000     -10.173273      -276.8288 
  18   1.0000      -0.872313       -23.7368 
  19   1.0000      -0.815690       -22.1961 
  20   1.0000      -0.795932       -21.6584 
  21   1.0000      -0.793523       -21.5929 
  22   1.0000      -0.766116       -20.8471 
  23   1.0000      -0.753903       -20.5147 
  24   1.0000      -0.726659       -19.7734 
  25   1.0000      -0.721795       -19.6411 
  26   1.0000      -0.695451       -18.9242 
  27   1.0000      -0.653780       -17.7903 
  28   1.0000      -0.639242       -17.3947 
  29   1.0000      -0.611887       -16.6503 
  30   1.0000      -0.593584       -16.1522 
  31   1.0000      -0.578795       -15.7498 
  32   1.0000      -0.560962       -15.2646 
  33   1.0000      -0.542742       -14.7688 
  34   1.0000      -0.523839       -14.2544 
  35   1.0000      -0.498211       -13.5570 
  36   1.0000      -0.486555       -13.2398 
  37   1.0000      -0.477201       -12.9853 
  38   1.0000      -0.469925       -12.7873 
  39   1.0000      -0.459541       -12.5047 
  40   1.0000      -0.432768       -11.7762 
  41   1.0000      -0.428762       -11.6672 
  42   1.0000      -0.425074       -11.5668 
  43   1.0000      -0.419733       -11.4215 
  44   1.0000      -0.411817       -11.2061 
  45   1.0000      -0.397201       -10.8084 
  46   1.0000      -0.391577       -10.6554 
  47   1.0000      -0.377639       -10.2761 
  48   1.0000      -0.377521       -10.2729 
  49   1.0000      -0.364414        -9.9162 
  50   1.0000      -0.357189        -9.7196 
  51   1.0000      -0.351958        -9.5773 
  52   1.0000      -0.338157        -9.2017 
  53   1.0000      -0.332571        -9.0497 
  54   1.0000      -0.330623        -8.9967 
  55   1.0000      -0.328955        -8.9513 
  56   1.0000      -0.327347        -8.9076 
  57   1.0000      -0.323432        -8.8010 
  58   1.0000      -0.320547        -8.7225 
  59   1.0000      -0.281869        -7.6701 
  60   1.0000      -0.278633        -7.5820 
  61   1.0000      -0.276418        -7.5217 
  62   1.0000      -0.259395        -7.0585 
  63   1.0000      -0.224940        -6.1209 
  64   0.0000      -0.085903        -2.3375 
  65   0.0000      -0.042569        -1.1584 
  66   0.0000       0.019065         0.5188 
  67   0.0000       0.021332         0.5805 
  68   0.0000       0.024003         0.6532 
  69   0.0000       0.024583         0.6689 
  70   0.0000       0.030284         0.8241 
  71   0.0000       0.036996         1.0067 
  72   0.0000       0.038733         1.0540 
  73   0.0000       0.041014         1.1160 
  74   0.0000       0.045273         1.2319 
  75   0.0000       0.049270         1.3407 
  76   0.0000       0.051154         1.3920 
  77   0.0000       0.052721         1.4346 
  78   0.0000       0.073540         2.0011 
  79   0.0000       0.079100         2.1524 
  80   0.0000       0.088062         2.3963 
  81   0.0000       0.097816         2.6617 
  82   0.0000       0.109410         2.9772 
  83   0.0000       0.110154         2.9974 
  84   0.0000       0.124327         3.3831 
  85   0.0000       0.136957         3.7268 
  86   0.0000       0.150317         4.0903 
  87   0.0000       0.157782         4.2935 
  88   0.0000       0.158648         4.3170 
  89   0.0000       0.164516         4.4767 
  90   0.0000       0.175244         4.7686 
  91   0.0000       0.181952         4.9512 
  92   0.0000       0.184948         5.0327 
  93   0.0000       0.191235         5.2038 
  94   0.0000       0.195464         5.3188 
  95   0.0000       0.198575         5.4035 
  96   0.0000       0.199789         5.4365 
  97   0.0000       0.200400         5.4532 
  98   0.0000       0.206536         5.6201 
  99   0.0000       0.207766         5.6536 
 100   0.0000       0.214784         5.8446 
 101   0.0000       0.218482         5.9452 
 102   0.0000       0.222348         6.0504 
 103   0.0000       0.233355         6.3499 
 104   0.0000       0.238411         6.4875 
 105   0.0000       0.246332         6.7030 
 106   0.0000       0.251488         6.8433 
 107   0.0000       0.252119         6.8605 
 108   0.0000       0.259991         7.0747 
 109   0.0000       0.260777         7.0961 
 110   0.0000       0.268202         7.2981 
 111   0.0000       0.273951         7.4546 
 112   0.0000       0.278867         7.5883 
 113   0.0000       0.280025         7.6199 
 114   0.0000       0.289227         7.8703 
 115   0.0000       0.289979         7.8907 
 116   0.0000       0.298559         8.1242 
 117   0.0000       0.298950         8.1348 
 118   0.0000       0.301330         8.1996 
 119   0.0000       0.304292         8.2802 
 120   0.0000       0.312320         8.4986 
 121   0.0000       0.317458         8.6385 
 122   0.0000       0.319823         8.7028 
 123   0.0000       0.325022         8.8443 
 124   0.0000       0.326510         8.8848 
 125   0.0000       0.331716         9.0265 
 126   0.0000       0.340609         9.2684 
 127   0.0000       0.341098         9.2817 
 128   0.0000       0.352553         9.5934 
 129   0.0000       0.353546         9.6205 
 130   0.0000       0.359688         9.7876 
 131   0.0000       0.362939         9.8761 
 132   0.0000       0.364320         9.9137 
 133   0.0000       0.369462        10.0536 
 134   0.0000       0.378090        10.2884 
 135   0.0000       0.381488        10.3808 
 136   0.0000       0.389301        10.5934 
 137   0.0000       0.395276        10.7560 
 138   0.0000       0.399492        10.8707 
 139   0.0000       0.404288        11.0012 
 140   0.0000       0.409082        11.1317 
 141   0.0000       0.413080        11.2405 
 142   0.0000       0.417657        11.3650 
 143   0.0000       0.430877        11.7248 
 144   0.0000       0.436362        11.8740 
 145   0.0000       0.444022        12.0825 
 146   0.0000       0.445377        12.1193 
 147   0.0000       0.449069        12.2198 
 148   0.0000       0.458204        12.4684 
 149   0.0000       0.465426        12.6649 
 150   0.0000       0.474039        12.8993 
 151   0.0000       0.481215        13.0945 
 152   0.0000       0.489100        13.3091 
 153   0.0000       0.499148        13.5825 
 154   0.0000       0.508024        13.8240 
 155   0.0000       0.510091        13.8803 
 156   0.0000       0.517692        14.0871 
 157   0.0000       0.526705        14.3324 
 158   0.0000       0.534894        14.5552 
 159   0.0000       0.541439        14.7333 
 160   0.0000       0.546526        14.8717 
 161   0.0000       0.552257        15.0277 
 162   0.0000       0.552596        15.0369 
 163   0.0000       0.561710        15.2849 
 164   0.0000       0.571902        15.5622 
 165   0.0000       0.586673        15.9642 
 166   0.0000       0.592460        16.1217 
 167   0.0000       0.595482        16.2039 
 168   0.0000       0.595837        16.2136 
 169   0.0000       0.604319        16.4444 
 170   0.0000       0.628793        17.1103 
 171   0.0000       0.634843        17.2750 
 172   0.0000       0.655272        17.8309 
 173   0.0000       0.670705        18.2508 
 174   0.0000       0.677190        18.4273 
 175   0.0000       0.708459        19.2782 
 176   0.0000       0.730960        19.8904 
 177   0.0000       0.769609        20.9421 
 178   0.0000       0.786902        21.4127 
 179   0.0000       0.789734        21.4898 
 180   0.0000       0.791815        21.5464 
 181   0.0000       0.811240        22.0750 
 182   0.0000       0.823184        22.4000 
 183   0.0000       0.836862        22.7722 
 184   0.0000       0.840169        22.8621 
 185   0.0000       0.847853        23.0712 
 186   0.0000       0.858727        23.3671 
 187   0.0000       0.859031        23.3754 
 188   0.0000       0.862562        23.4715 
 189   0.0000       0.879646        23.9364 
 190   0.0000       0.881204        23.9788 
 191   0.0000       0.887793        24.1581 
 192   0.0000       0.893551        24.3148 
 193   0.0000       0.906856        24.6768 
 194   0.0000       0.912788        24.8382 
 195   0.0000       0.916042        24.9268 
 196   0.0000       0.920395        25.0452 
 197   0.0000       0.923472        25.1289 
 198   0.0000       0.929877        25.3032 
 199   0.0000       0.934987        25.4423 
 200   0.0000       0.944148        25.6916 
 201   0.0000       0.958700        26.0875 
 202   0.0000       0.961648        26.1678 
 203   0.0000       0.969905        26.3925 
 204   0.0000       0.971064        26.4240 
 205   0.0000       0.978081        26.6149 
 206   0.0000       0.984348        26.7855 
 207   0.0000       0.985622        26.8201 
 208   0.0000       0.998228        27.1632 
 209   0.0000       1.006309        27.3831 
 210   0.0000       1.010460        27.4960 
 211   0.0000       1.026828        27.9414 
 212   0.0000       1.031811        28.0770 
 213   0.0000       1.039367        28.2826 
 214   0.0000       1.044832        28.4313 
 215   0.0000       1.047534        28.5048 
 216   0.0000       1.051765        28.6200 
 217   0.0000       1.059221        28.8229 
 218   0.0000       1.063971        28.9521 
 219   0.0000       1.088313        29.6145 
 220   0.0000       1.102655        30.0048 
 221   0.0000       1.107199        30.1284 
 222   0.0000       1.111496        30.2453 
 223   0.0000       1.121493        30.5174 
 224   0.0000       1.129749        30.7420 
 225   0.0000       1.140924        31.0461 
 226   0.0000       1.150577        31.3088 
 227   0.0000       1.160861        31.5886 
 228   0.0000       1.172745        31.9120 
 229   0.0000       1.176730        32.0205 
 230   0.0000       1.186030        32.2735 
 231   0.0000       1.187460        32.3124 
 232   0.0000       1.201801        32.7027 
 233   0.0000       1.206809        32.8390 
 234   0.0000       1.221420        33.2365 
 235   0.0000       1.228372        33.4257 
 236   0.0000       1.239222        33.7209 
 237   0.0000       1.241003        33.7694 
 238   0.0000       1.253143        34.0998 
 239   0.0000       1.256461        34.1901 
 240   0.0000       1.260828        34.3089 
 241   0.0000       1.264064        34.3969 
 242   0.0000       1.280167        34.8351 
 243   0.0000       1.292497        35.1706 
 244   0.0000       1.305459        35.5234 
 245   0.0000       1.317185        35.8424 
 246   0.0000       1.331225        36.2245 
 247   0.0000       1.334618        36.3168 
 248   0.0000       1.344238        36.5786 
 249   0.0000       1.352838        36.8126 
 250   0.0000       1.378658        37.5152 
 251   0.0000       1.379222        37.5305 
 252   0.0000       1.387706        37.7614 
 253   0.0000       1.399312        38.0772 
 254   0.0000       1.400343        38.1053 
 255   0.0000       1.424529        38.7634 
 256   0.0000       1.426954        38.8294 
 257   0.0000       1.429311        38.8935 
 258   0.0000       1.435791        39.0699 
 259   0.0000       1.441882        39.2356 
 260   0.0000       1.446006        39.3478 
 261   0.0000       1.465434        39.8765 
 262   0.0000       1.467239        39.9256 
 263   0.0000       1.481478        40.3131 
 264   0.0000       1.501389        40.8549 
 265   0.0000       1.508260        41.0418 
 266   0.0000       1.514246        41.2047 
 267   0.0000       1.515559        41.2404 
 268   0.0000       1.521324        41.3973 
 269   0.0000       1.549538        42.1651 
 270   0.0000       1.560413        42.4610 
 271   0.0000       1.560963        42.4760 
 272   0.0000       1.564181        42.5635 
 273   0.0000       1.574645        42.8483 
 274   0.0000       1.588068        43.2135 
 275   0.0000       1.590390        43.2767 
 276   0.0000       1.592828        43.3430 
 277   0.0000       1.600542        43.5530 
 278   0.0000       1.604029        43.6478 
 279   0.0000       1.613708        43.9112 
 280   0.0000       1.626839        44.2685 
 281   0.0000       1.628291        44.3081 
 282   0.0000       1.637073        44.5470 
 283   0.0000       1.660679        45.1894 
 284   0.0000       1.660799        45.1926 
 285   0.0000       1.678770        45.6817 
 286   0.0000       1.688281        45.9405 
 287   0.0000       1.690481        46.0003 
 288   0.0000       1.694827        46.1186 
 289   0.0000       1.704646        46.3858 
 290   0.0000       1.704786        46.3896 
 291   0.0000       1.725151        46.9437 
 292   0.0000       1.729322        47.0573 
 293   0.0000       1.741496        47.3885 
 294   0.0000       1.743056        47.4310 
 295   0.0000       1.751163        47.6516 
 296   0.0000       1.769598        48.1532 
 297   0.0000       1.772365        48.2285 
 298   0.0000       1.780034        48.4372 
 299   0.0000       1.792268        48.7701 
 300   0.0000       1.800627        48.9975 
 301   0.0000       1.804942        49.1150 
 302   0.0000       1.805796        49.1382 
 303   0.0000       1.824452        49.6459 
 304   0.0000       1.829644        49.7871 
 305   0.0000       1.846984        50.2590 
 306   0.0000       1.865344        50.7586 
 307   0.0000       1.903532        51.7977 
 308   0.0000       1.918310        52.1999 
 309   0.0000       1.929280        52.4984 
 310   0.0000       1.930370        52.5281 
 311   0.0000       1.938583        52.7515 
 312   0.0000       1.941519        52.8314 
 313   0.0000       1.954090        53.1735 
 314   0.0000       1.982369        53.9430 
 315   0.0000       2.012376        54.7595 
[...]
 A(ORB)         -0.0002               0.0002               0.0025    A(PC) =   0.0008
 A(DIA)          0.0006              -0.0004              -0.0002    A(PC) =   0.0000
             ----------           ----------           ----------
 A(Tot)         -3.5303              -8.9407             -11.8553    A(iso)=   -8.1088
 Orientation: 
  X          -0.9919466           -0.0179034            0.1253850
  Y           0.1253509            0.0030215            0.9921079
  Z          -0.0181410            0.9998352           -0.0007530

Notes:  (1) The A matrix conforms to the "SAI" spin Hamiltonian convention.
        (2) Tensor is right-handed.

 -----------------------------------------------------------
 Nucleus  36H : A:ISTP=    1 I=  0.5 P=533.5514 MHz/au**3
                Q:ISTP=    2 I=  1.0 Q=  0.0029 barn     
 -----------------------------------------------------------
 Solving for nuclear perturbation:
Forming RHS of the CP-SCF equations         ... 
Calc. nucleus orbit integrals (SHARK)       ... done

------------------------------------------------------------------------------
                           ORCA CP-SCF CALCULATION
------------------------------------------------------------------------------

Input orbitals are from        ... EPRII.gbw
Input Perturbation             ... EPRII.pin.tmp
Wavefunction output            ... EPRII.pout.tmp
Perturbation mode              ... Imaginary perturbation
Solver                         ... POPLE
Max. number of iterations      ... 64
Convergence tolerance          ... 1.000e-03
Integral handling              ... Direct
DFT GridXC                     ... 1
COSX GridX                     ... 1
COSX IntAccX                   ... 3.067
COSX Algorithm                 ... Auto
Number of perturbations        ... 3
Number of operators            ... 2
Orbital ranges used for CP-SCF:
 Operator 0:  Orbitals   0... 64  to  65...452
 Operator 1:  Orbitals   0... 63  to  64...452
Variables per perturbation     ... 50116
DFT calculation                         ... on
XC functional terms                     ... off
Hybrid DFT                              ... on
   Exchange mixing (SCF)                ...  0.200
   Exchange mixing (CP-SCF)             ...  0.200
   GGA exch. scaling(SCF)               ...  0.720
   GGA exch. scaling (CP-SCF)           ...  0.720
   GGA corr. scaling (SCF)              ...  0.810
   GGA corr. scaling (CP-SCF)           ...  0.810

CP-SCF GRID
-----------

General Integration Accuracy     IntAcc      ... 3.467
Radial Grid Type                 RadialGrid  ... OptM3 with GC (2021)
Angular Grid (max. ang.)         AngularGrid ... 1 (Lebedev-50)
Angular grid pruning method      GridPruning ... 4 (adaptive)
Weight generation scheme         WeightScheme... Becke
Basis function cutoff            BFCut       ... 1.0000e-10
Integration weight cutoff        WCut        ... 1.0000e-14
Angular grids for H and He will be reduced by one unit
Partially contracted basis set               ... off
Rotationally invariant grid construction     ... off

Total number of grid points                  ...    24798
Total number of batches                      ...      406
Average number of points per batch           ...       61
Average number of grid points per atom       ...      636

CP-SCF GRIDX
------------

General Integration Accuracy     IntAcc      ... 3.067
Radial Grid Type                 RadialGrid  ... OptM3 with GC (2021)
Angular Grid (max. ang.)         AngularGrid ... 1 (Lebedev-50)
Angular grid pruning method      GridPruning ... 4 (adaptive)
Weight generation scheme         WeightScheme... Becke
Basis function cutoff            BFCut       ... 1.0000e-10
Integration weight cutoff        WCut        ... 1.0000e-14
Angular grids for H and He will be reduced by one unit
Partially contracted basis set               ... on
Rotationally invariant grid construction     ... off

Total number of grid points                  ...    11665
Total number of batches                      ...      205
Average number of points per batch           ...       56
Average number of grid points per atom       ...      299

Memory available               ... 894.3 MB
Memory needed per perturbation ...  12.1 MB
Perturbations treated per batch... 3
Number of batches              ... 1
     CP-SCF ITERATION   0:   1.0089e-01 (   1.2 sec   0/  3 done)
     CP-SCF ITERATION   1:   1.6684e-03 (   1.3 sec   2/  3 done)
     CP-SCF ITERATION   2:   9.6752e-05 (   1.0 sec   3/  3 done)
                    *** THE CP-SCF HAS CONVERGED ***

Forming final perturbed densities           ... done
Transforming perturbed density to AO basis  ... done

 Raw HFC matrix (all values in MHz): 
 -----------------------------------
                 2.6678               0.1620              -0.0167
                 0.1620               5.2108              -0.0013
                -0.0167              -0.0013               3.6550

 A(FC)           3.8448               3.8448               3.8448
 A(SD)          -1.1875              -0.1896               1.3771
 A(ORB+DIA)     -0.0001               0.0001              -0.0008    A(PC) =  -0.0003
 A(ORB)          0.0001              -0.0001              -0.0010    A(PC) =  -0.0003
 A(DIA)         -0.0002               0.0002               0.0001    A(PC) =   0.0001
             ----------           ----------           ----------
 A(Tot)          2.6572               3.6552               5.2211    A(iso)=    3.8445
 Orientation: 
  X           0.9978567           -0.0164868           -0.0633265
  Y          -0.0632932            0.0025372           -0.9979918
  Z           0.0166143            0.9998609            0.0014883

Notes:  (1) The A matrix conforms to the "SAI" spin Hamiltonian convention.
        (2) Tensor is right-handed.

 -----------------------------------------------------------
 Nucleus  37H : A:ISTP=    1 I=  0.5 P=533.5514 MHz/au**3
                Q:ISTP=    2 I=  1.0 Q=  0.0029 barn     
 -----------------------------------------------------------
 Solving for nuclear perturbation:
Forming RHS of the CP-SCF equations         ... 
Calc. nucleus orbit integrals (SHARK)       ... done

------------------------------------------------------------------------------
                           ORCA CP-SCF CALCULATION
------------------------------------------------------------------------------

Input orbitals are from        ... EPRII.gbw
Input Perturbation             ... EPRII.pin.tmp
Wavefunction output            ... EPRII.pout.tmp
Perturbation mode              ... Imaginary perturbation
Solver                         ... POPLE
Max. number of iterations      ... 64
Convergence tolerance          ... 1.000e-03
Integral handling              ... Direct
DFT GridXC                     ... 1
COSX GridX                     ... 1
COSX IntAccX                   ... 3.067
COSX Algorithm                 ... Auto
Number of perturbations        ... 3
Number of operators            ... 2
Orbital ranges used for CP-SCF:
 Operator 0:  Orbitals   0... 64  to  65...452
 Operator 1:  Orbitals   0... 63  to  64...452
Variables per perturbation     ... 50116
DFT calculation                         ... on
XC functional terms                     ... off
Hybrid DFT                              ... on
   Exchange mixing (SCF)                ...  0.200
   Exchange mixing (CP-SCF)             ...  0.200
   GGA exch. scaling(SCF)               ...  0.720
   GGA exch. scaling (CP-SCF)           ...  0.720
   GGA corr. scaling (SCF)              ...  0.810
   GGA corr. scaling (CP-SCF)           ...  0.810

CP-SCF GRID
-----------

General Integration Accuracy     IntAcc      ... 3.467
Radial Grid Type                 RadialGrid  ... OptM3 with GC (2021)
Angular Grid (max. ang.)         AngularGrid ... 1 (Lebedev-50)
Angular grid pruning method      GridPruning ... 4 (adaptive)
Weight generation scheme         WeightScheme... Becke
Basis function cutoff            BFCut       ... 1.0000e-10
Integration weight cutoff        WCut        ... 1.0000e-14
Angular grids for H and He will be reduced by one unit
Partially contracted basis set               ... off
Rotationally invariant grid construction     ... off

Total number of grid points                  ...    24798
Total number of batches                      ...      406
Average number of points per batch           ...       61
Average number of grid points per atom       ...      636

CP-SCF GRIDX
------------

General Integration Accuracy     IntAcc      ... 3.067
Radial Grid Type                 RadialGrid  ... OptM3 with GC (2021)
Angular Grid (max. ang.)         AngularGrid ... 1 (Lebedev-50)
Angular grid pruning method      GridPruning ... 4 (adaptive)
Weight generation scheme         WeightScheme... Becke
Basis function cutoff            BFCut       ... 1.0000e-10
Integration weight cutoff        WCut        ... 1.0000e-14
Angular grids for H and He will be reduced by one unit
Partially contracted basis set               ... on
Rotationally invariant grid construction     ... off

Total number of grid points                  ...    11665
Total number of batches                      ...      205
Average number of points per batch           ...       56
Average number of grid points per atom       ...      299

Memory available               ... 893.8 MB
Memory needed per perturbation ...  12.1 MB
Perturbations treated per batch... 3
Number of batches              ... 1
     CP-SCF ITERATION   0:   3.6984e-02 (   1.3 sec   0/  3 done)
     CP-SCF ITERATION   1:   6.3147e-04 (   1.3 sec   3/  3 done)
                    *** THE CP-SCF HAS CONVERGED ***

Forming final perturbed densities           ... done
Transforming perturbed density to AO basis  ... done

 Raw HFC matrix (all values in MHz): 
 -----------------------------------
                -0.8208               0.2328               0.0003
                 0.2327               0.6806               0.0009
                 0.0003               0.0009              -0.8404

 A(FC)          -0.3270              -0.3270              -0.3270
 A(SD)           1.0423              -0.5133              -0.5290
 A(ORB+DIA)      0.0005              -0.0001              -0.0000    A(PC) =   0.0001
 A(ORB)          0.0004               0.0000               0.0000    A(PC) =   0.0001
 A(DIA)          0.0001              -0.0001              -0.0001    A(PC) =  -0.0000
             ----------           ----------           ----------
 A(Tot)          0.7158              -0.8404              -0.8560    A(iso)=   -0.3269
 Orientation: 
  X          -0.1498010           -0.0083587            0.9886808
  Y          -0.9887160            0.0018574           -0.1497907
  Z          -0.0005843           -0.9999633           -0.0085426

Notes:  (1) The A matrix conforms to the "SAI" spin Hamiltonian convention.
        (2) Tensor is right-handed.

 -----------------------------------------------------------
 Nucleus  38H : A:ISTP=    1 I=  0.5 P=533.5514 MHz/au**3
                Q:ISTP=    2 I=  1.0 Q=  0.0029 barn     
 -----------------------------------------------------------
 Solving for nuclear perturbation:
Forming RHS of the CP-SCF equations         ... 
Calc. nucleus orbit integrals (SHARK)       ... done

------------------------------------------------------------------------------
                           ORCA CP-SCF CALCULATION
------------------------------------------------------------------------------

Input orbitals are from        ... EPRII.gbw
Input Perturbation             ... EPRII.pin.tmp
Wavefunction output            ... EPRII.pout.tmp
Perturbation mode              ... Imaginary perturbation
Solver                         ... POPLE
Max. number of iterations      ... 64
Convergence tolerance          ... 1.000e-03
Integral handling              ... Direct
DFT GridXC                     ... 1
COSX GridX                     ... 1
COSX IntAccX                   ... 3.067
COSX Algorithm                 ... Auto
Number of perturbations        ... 3
Number of operators            ... 2
Orbital ranges used for CP-SCF:
 Operator 0:  Orbitals   0... 64  to  65...452
 Operator 1:  Orbitals   0... 63  to  64...452
Variables per perturbation     ... 50116
DFT calculation                         ... on
XC functional terms                     ... off
Hybrid DFT                              ... on
   Exchange mixing (SCF)                ...  0.200
   Exchange mixing (CP-SCF)             ...  0.200
   GGA exch. scaling(SCF)               ...  0.720
   GGA exch. scaling (CP-SCF)           ...  0.720
   GGA corr. scaling (SCF)              ...  0.810
   GGA corr. scaling (CP-SCF)           ...  0.810

CP-SCF GRID
-----------

General Integration Accuracy     IntAcc      ... 3.467
Radial Grid Type                 RadialGrid  ... OptM3 with GC (2021)
Angular Grid (max. ang.)         AngularGrid ... 1 (Lebedev-50)
Angular grid pruning method      GridPruning ... 4 (adaptive)
Weight generation scheme         WeightScheme... Becke
Basis function cutoff            BFCut       ... 1.0000e-10
Integration weight cutoff        WCut        ... 1.0000e-14
Angular grids for H and He will be reduced by one unit
Partially contracted basis set               ... off
Rotationally invariant grid construction     ... off

Total number of grid points                  ...    24798
Total number of batches                      ...      406
Average number of points per batch           ...       61
Average number of grid points per atom       ...      636

CP-SCF GRIDX
------------

General Integration Accuracy     IntAcc      ... 3.067
Radial Grid Type                 RadialGrid  ... OptM3 with GC (2021)
Angular Grid (max. ang.)         AngularGrid ... 1 (Lebedev-50)
Angular grid pruning method      GridPruning ... 4 (adaptive)
Weight generation scheme         WeightScheme... Becke
Basis function cutoff            BFCut       ... 1.0000e-10
Integration weight cutoff        WCut        ... 1.0000e-14
Angular grids for H and He will be reduced by one unit
Partially contracted basis set               ... on
Rotationally invariant grid construction     ... off

Total number of grid points                  ...    11665
Total number of batches                      ...      205
Average number of points per batch           ...       56
Average number of grid points per atom       ...      299

Memory available               ... 893.2 MB
Memory needed per perturbation ...  12.1 MB
Perturbations treated per batch... 3
Number of batches              ... 1
     CP-SCF ITERATION   0:   3.7073e-02 (   1.4 sec   0/  3 done)
     CP-SCF ITERATION   1:   6.4677e-04 (   1.5 sec   3/  3 done)
                    *** THE CP-SCF HAS CONVERGED ***

Forming final perturbed densities           ... done
Transforming perturbed density to AO basis  ... done

 Raw HFC matrix (all values in MHz): 
 -----------------------------------
                -0.1220               0.0641               0.0001
                 0.0642               0.2291               0.0003
                 0.0001               0.0003              -0.1337

 A(FC)          -0.0089              -0.0089              -0.0089
 A(SD)          -0.1245              -0.1248               0.2493
 A(ORB+DIA)     -0.0000               0.0000               0.0001    A(PC) =   0.0000
 A(ORB)         -0.0000               0.0000               0.0001    A(PC) =   0.0000
 A(DIA)          0.0000               0.0000               0.0000    A(PC) =   0.0000
             ----------           ----------           ----------
 A(Tot)         -0.1334              -0.1337               0.2405    A(iso)=   -0.0089
 Orientation: 
  X           0.9847052           -0.0010639            0.1742253
  Y          -0.1742241            0.0011427            0.9847054
  Z          -0.0012467           -0.9999988            0.0009399

Notes:  (1) The A matrix conforms to the "SAI" spin Hamiltonian convention.
        (2) Tensor is right-handed.


--------------------------------------------------------------------------------
----------------------------------------------------------------------------
                           ORCA EULER ANGLE PROGRAM
----------------------------------------------------------------------------

Only g-tensor available        -->  using g-tensor as reference tensor

Reference tensor               ...  g

g-tensor ordering              ...  |g_min> --> |gx>
                                    |g_mid> --> |gy>
                                    |g_max> --> |gz>

A- and EFG-tensor ordering     ...  the axes |Ax>, |Qx>, |Ay>, etc. are assigned
                                    such that the Euler rotation is minimal. You
                                    can find the respective eigenvalues as Ax,
                                    EFGx, Ay, etc. in the tables below.
                                    The relation of |Ax>, |Ay>,  etc. to Amin, Amid, etc.
                                    (as printed in the ORCA EPR/NMR CALCULATION Output)
                                    is obtained in the detailed printout.

Euler rotation around          ...  z - y - z
   First rotation              -->  by alpha around z
   Second rotation             -->  by beta around y'
   Third rotation              -->  by gamma around z''
   Positive / Negative angle   -->  clockwise / counterclockwise rotation

Plot EFG-tensors                    (-)
Plot HFC-tensors                    (-)
Detailed Printout                   (-)

-------------------------------------------------------------------------
          Euler rotation of hyperfine tensor to g-tensor
-------------------------------------------------------------------------

-------------------------------------------------------------------
 Atom  |   Alpha    Beta    Gamma   |   Ax       Ay       Az 
       |          [degrees]         |           [MHz]         
-------------------------------------------------------------------
  9H      -89.9     14.6     89.8     -17.26    -8.07   -20.73
 10H      -90.0     17.4     90.0       4.59     5.24    10.12
 12H       90.0     35.1    -90.0     -49.42   -20.50   -74.49
 14H     -124.9     16.6    144.4      69.50    79.19    71.02
 15H      -55.6     16.4     36.3      69.22    78.91    70.75
 17H      172.2     19.7   -136.7      -3.36    -3.20     3.00
 18H        7.8     19.6    -43.4      -3.36    -3.20     2.99
 20H      -61.9     53.4     33.9      -0.02     2.34     0.10
 21H     -118.2     53.6    146.4      -0.02     2.34     0.09
 23H      -70.8     20.3     29.3      24.87    25.50    28.64
 24H     -109.1     20.3    150.3      24.74    25.36    28.50
 26H      -99.8     41.3     86.6      -1.06     0.93    -0.93
 27H      -79.9     41.3     92.9      -1.05     0.93    -0.92
 29H       97.5     19.7    -63.4      -0.09    -0.13     0.83
 30H       82.6     19.7   -116.7      -0.09    -0.13     0.83
 32H       82.4     36.5    -77.6      -0.12    -0.10     0.39
 33H       97.4     36.5   -102.6      -0.12    -0.10     0.39
 35H       90.4     29.2    -89.9      -8.94    -3.53   -11.86
 36H       90.3     32.7    -89.9       3.66     2.66     5.22
 37H       88.9     27.7    -90.1      -0.84    -0.86     0.72
 38H       89.4     26.3    -90.1      -0.13    -0.13     0.24
-------------------------------------------------------------------


Maximum memory used throughout the entire EPRNMR-calculation: 178.3 MB

Timings for individual modules:

Sum of individual times         ...     2140.172 sec (=  35.670 min)
GTO integral calculation        ...        5.718 sec (=   0.095 min)   0.3 %
Spin-Orbit-Coupling Matrices    ...        9.587 sec (=   0.160 min)   0.4 %
SCF iterations                  ...       26.081 sec (=   0.435 min)   1.2 %
EPR/NMR calculation             ...     2098.786 sec (=  34.980 min)  98.1 %
                             ****ORCA TERMINATED NORMALLY****
TOTAL RUN TIME: 0 days 0 hours 35 minutes 44 seconds 586 msec
