
                                 *****************
                                 * O   R   C   A *
                                 *****************

                                            #,                                       
                                            ###                                      
                                            ####                                     
                                            #####                                    
                                            ######                                   
                                           ########,                                 
                                     ,,################,,,,,                         
                               ,,#################################,,                 
                          ,,##########################################,,             
                       ,#########################################, ''#####,          
                    ,#############################################,,   '####,        
                  ,##################################################,,,,####,       
                ,###########''''           ''''###############################       
              ,#####''   ,,,,##########,,,,          '''####'''          '####       
            ,##' ,,,,###########################,,,                        '##       
           ' ,,###''''                  '''############,,,                           
         ,,##''                                '''############,,,,        ,,,,,,###''
      ,#''                                            '''#######################'''  
     '                                                          ''''####''''         
             ,#######,   #######,   ,#######,      ##                                
            ,#'     '#,  ##    ##  ,#'     '#,    #''#        ######   ,####,        
            ##       ##  ##   ,#'  ##            #'  '#       #        #'  '#        
            ##       ##  #######   ##           ,######,      #####,   #    #        
            '#,     ,#'  ##    ##  '#,     ,#' ,#      #,         ##   #,  ,#        
             '#######'   ##     ##  '#######'  #'      '#     #####' # '####'        



                  #######################################################
                  #                        -***-                        #
                  #          Department of theory and spectroscopy      #
                  #    Directorship and core code : Frank Neese         #
                  #        Max Planck Institute fuer Kohlenforschung    #
                  #                Kaiser Wilhelm Platz 1               #
                  #                 D-45470 Muelheim/Ruhr               #
                  #                      Germany                        #
                  #                                                     #
                  #                  All rights reserved                #
                  #                        -***-                        #
                  #######################################################


                         Program Version 5.0.4 -  RELEASE  -


 With contributions from (in alphabetic order):
   Daniel Aravena         : Magnetic Suceptibility
   Michael Atanasov       : Ab Initio Ligand Field Theory (pilot matlab implementation)
   Alexander A. Auer      : GIAO ZORA, VPT2 properties, NMR spectrum
   Ute Becker             : Parallelization
   Giovanni Bistoni       : ED, misc. LED, open-shell LED, HFLD
   Martin Brehm           : Molecular dynamics
   Dmytro Bykov           : SCF Hessian
   Vijay G. Chilkuri      : MRCI spin determinant printing, contributions to CSF-ICE
   Dipayan Datta          : RHF DLPNO-CCSD density
   Achintya Kumar Dutta   : EOM-CC, STEOM-CC
   Dmitry Ganyushin       : Spin-Orbit,Spin-Spin,Magnetic field MRCI
   Miquel Garcia          : C-PCM and meta-GGA Hessian, CC/C-PCM, Gaussian charge scheme
   Yang Guo               : DLPNO-NEVPT2, F12-NEVPT2, CIM, IAO-localization
   Andreas Hansen         : Spin unrestricted coupled pair/coupled cluster methods
   Benjamin Helmich-Paris : MC-RPA, TRAH-SCF, COSX integrals
   Lee Huntington         : MR-EOM, pCC
   Robert Izsak           : Overlap fitted RIJCOSX, COSX-SCS-MP3, EOM
   Marcus Kettner         : VPT2
   Christian Kollmar      : KDIIS, OOCD, Brueckner-CCSD(T), CCSD density, CASPT2, CASPT2-K
   Simone Kossmann        : Meta GGA functionals, TD-DFT gradient, OOMP2, MP2 Hessian
   Martin Krupicka        : Initial AUTO-CI
   Lucas Lang             : DCDCAS
   Marvin Lechner         : AUTO-CI (C++ implementation), FIC-MRCC
   Dagmar Lenk            : GEPOL surface, SMD
   Dimitrios Liakos       : Extrapolation schemes; Compound Job, initial MDCI parallelization
   Dimitrios Manganas     : Further ROCIS development; embedding schemes
   Dimitrios Pantazis     : SARC Basis sets
   Anastasios Papadopoulos: AUTO-CI, single reference methods and gradients
   Taras Petrenko         : DFT Hessian,TD-DFT gradient, ASA, ECA, R-Raman, ABS, FL, XAS/XES, NRVS
   Peter Pinski           : DLPNO-MP2, DLPNO-MP2 Gradient
   Christoph Reimann      : Effective Core Potentials
   Marius Retegan         : Local ZFS, SOC
   Christoph Riplinger    : Optimizer, TS searches, QM/MM, DLPNO-CCSD(T), (RO)-DLPNO pert. Triples
   Tobias Risthaus        : Range-separated hybrids, TD-DFT gradient, RPA, STAB
   Michael Roemelt        : Original ROCIS implementation
   Masaaki Saitow         : Open-shell DLPNO-CCSD energy and density
   Barbara Sandhoefer     : DKH picture change effects
   Avijit Sen             : IP-ROCIS
   Kantharuban Sivalingam : CASSCF convergence, NEVPT2, FIC-MRCI
   Bernardo de Souza      : ESD, SOC TD-DFT
   Georgi Stoychev        : AutoAux, RI-MP2 NMR, DLPNO-MP2 response
   Willem Van den Heuvel  : Paramagnetic NMR
   Boris Wezisla          : Elementary symmetry handling
   Frank Wennmohs         : Technical directorship


 We gratefully acknowledge several colleagues who have allowed us to
 interface, adapt or use parts of their codes:
   Stefan Grimme, W. Hujo, H. Kruse, P. Pracht,  : VdW corrections, initial TS optimization,
                  C. Bannwarth, S. Ehlert          DFT functionals, gCP, sTDA/sTD-DF
   Ed Valeev, F. Pavosevic, A. Kumar             : LibInt (2-el integral package), F12 methods
   Garnet Chan, S. Sharma, J. Yang, R. Olivares  : DMRG
   Ulf Ekstrom                                   : XCFun DFT Library
   Mihaly Kallay                                 : mrcc  (arbitrary order and MRCC methods)
   Jiri Pittner, Ondrej Demel                    : Mk-CCSD
   Frank Weinhold                                : gennbo (NPA and NBO analysis)
   Christopher J. Cramer and Donald G. Truhlar   : smd solvation model
   Lars Goerigk                                  : TD-DFT with DH, B97 family of functionals
   V. Asgeirsson, H. Jonsson                     : NEB implementation
   FAccTs GmbH                                   : IRC, NEB, NEB-TS, DLPNO-Multilevel, CI-OPT
                                                   MM, QMMM, 2- and 3-layer-ONIOM, Crystal-QMMM,
                                                   LR-CPCM, SF, NACMEs, symmetry and pop. for TD-DFT,
                                                   nearIR, NL-DFT gradient (VV10), updates on ESD,
                                                   ML-optimized integration grids
   S Lehtola, MJT Oliveira, MAL Marques          : LibXC Library
   Liviu Ungur et al                             : ANISO software


 Your calculation uses the libint2 library for the computation of 2-el integrals
 For citations please refer to: http://libint.valeyev.net

 Your ORCA version has been built with support for libXC version: 5.1.0
 For citations please refer to: https://tddft.org/programs/libxc/

 This ORCA versions uses:
   CBLAS   interface :  Fast vector & matrix operations
   LAPACKE interface :  Fast linear algebra routines
   SCALAPACK package :  Parallel linear algebra routines
   Shared memory     :  Shared parallel matrices
   BLAS/LAPACK       :  OpenBLAS 0.3.15  USE64BITINT DYNAMIC_ARCH NO_AFFINITY SkylakeX SINGLE_THREADED
        Core in use  :  SkylakeX
   Copyright (c) 2011-2014, The OpenBLAS Project




***************************************
The coordinates will be read from file: opt.xyz
***************************************


================================================================================

----- Orbital basis set information -----
Your calculation utilizes the basis: EPR-II
   V. Barone, in Recent Advances in Density Functional Methods, Part 1 (ed. D. P. Chong), World Scientific, Singapore, 1995, p. 287.

----- AuxJ basis set information -----
Your calculation utilizes the AutoAux generation procedure.
  G. L. Stoychev, A. A. Auer, F. Neese, J. Chem. Theory Comput. 13, 554 (2017)

----- AuxC basis set information -----
Your calculation utilizes the AutoAux generation procedure.
  G. L. Stoychev, A. A. Auer, F. Neese, J. Chem. Theory Comput. 13, 554 (2017)

----- AuxJK basis set information -----
Your calculation utilizes the AutoAux generation procedure.
  G. L. Stoychev, A. A. Auer, F. Neese, J. Chem. Theory Comput. 13, 554 (2017)

================================================================================
                                        WARNINGS
                       Please study these warnings very carefully!
================================================================================

WARNING: Old DensityContainer found on disk!
         Will remove this file - 
         If you want to keep old densities, please start your calculation with a different basename. 


WARNING: your system is open-shell and RHF/RKS was chosen
  ===> : WILL SWITCH to UHF/UKS


INFO   : the flag for use of the SHARK integral package has been found!

================================================================================
                                       INPUT FILE
================================================================================
NAME = EPRII.inp
|  1> ! B3LYP EPR-II AUTOAUX
|  2> %pal nprocs 16 end
|  3> *XYZFile 0 2 opt.xyz
|  4> %EPRNMR
|  5>         GTENSOR   TRUE
|  6>         NUCLEI    = ALL H {SHIFT, AISO, ADIP, AORB}
|  7> END
|  8> 
|  9>                          ****END OF INPUT****
================================================================================

                       ****************************
                       * Single Point Calculation *
                       ****************************

---------------------------------
CARTESIAN COORDINATES (ANGSTROEM)
---------------------------------
  C      3.991788   -0.049240    0.058108
  C      2.775740    0.000818    0.040924
  C     -2.904926    0.001969   -0.021065
  C      1.348501    0.035970    0.024651
  C      0.635243    1.290110    0.014122
  C     -0.786025    1.210124   -0.000914
  C     -1.471080   -0.005896   -0.005830
  C     -0.755051   -1.242724    0.004473
  C      0.640732   -1.178015    0.019328
  H     -1.371296    2.129824   -0.008865
  H      1.223342   -2.098995    0.027465
  C      1.310813    2.530858    0.018832
  H      2.403663    2.505003    0.030818
  C      0.641084    3.872285    0.008661
  H     -0.020408    3.959192   -0.878174
  H     -0.042671    3.961660    0.878176
  C      1.626345    5.048246    0.019383
  H      2.275422    4.965813    0.910219
  H      2.296697    4.963937   -0.855394
  C      0.933467    6.412041    0.009601
  H      0.280768    6.536675    0.890987
  H      0.302265    6.534793   -0.887575
  C     -1.517430   -2.551443   -0.000599
  H     -2.203439   -2.555198    0.867109
  H     -2.188523   -2.557024   -0.879837
  C     -0.686654   -3.837261    0.007762
  H     -0.015119   -3.856287   -0.870392
  H     -0.031197   -3.855470    0.897992
  C     -1.555555   -5.100742    0.000739
  H     -2.229365   -5.083796    0.877444
  H     -2.214538   -5.084219   -0.887176
  C     -0.737137   -6.394159    0.007906
  H     -0.093627   -6.456407    0.902512
  H     -0.079125   -6.457034   -0.876030
  C     -4.120621    0.011732   -0.035488
  H      5.062776   -0.099657    0.078803
  H     -5.192882    0.026348   -0.050615
  H      1.665288    7.235733    0.017560
  H     -1.387506   -7.283908    0.002941

----------------------------
CARTESIAN COORDINATES (A.U.)
----------------------------
  NO LB      ZA    FRAG     MASS         X           Y           Z
   0 C     6.0000    0    12.011    7.543387   -0.093050    0.109809
   1 C     6.0000    0    12.011    5.245389    0.001546    0.077335
   2 C     6.0000    0    12.011   -5.489514    0.003722   -0.039807
   3 C     6.0000    0    12.011    2.548298    0.067973    0.046584
   4 C     6.0000    0    12.011    1.200436    2.437954    0.026687
   5 C     6.0000    0    12.011   -1.485371    2.286804   -0.001728
   6 C     6.0000    0    12.011   -2.779939   -0.011142   -0.011018
   7 C     6.0000    0    12.011   -1.426839   -2.348407    0.008453
   8 C     6.0000    0    12.011    1.210808   -2.226125    0.036525
   9 H     1.0000    0     1.008   -2.591374    4.024784   -0.016753
  10 H     1.0000    0     1.008    2.311781   -3.966526    0.051902
  11 C     6.0000    0    12.011    2.477077    4.782628    0.035587
  12 H     1.0000    0     1.008    4.542265    4.733770    0.058237
  13 C     6.0000    0    12.011    1.211473    7.317559    0.016367
  14 H     1.0000    0     1.008   -0.038565    7.481789   -1.659508
  15 H     1.0000    0     1.008   -0.080636    7.486452    1.659512
  16 C     6.0000    0    12.011    3.073346    9.539803    0.036628
  17 H     1.0000    0     1.008    4.299925    9.384027    1.720066
  18 H     1.0000    0     1.008    4.340129    9.380481   -1.616460
  19 C     6.0000    0    12.011    1.763996   12.117001    0.018144
  20 H     1.0000    0     1.008    0.530575   12.352525    1.683722
  21 H     1.0000    0     1.008    0.571197   12.348970   -1.677274
  22 C     6.0000    0    12.011   -2.867527   -4.821529   -0.001132
  23 H     1.0000    0     1.008   -4.163895   -4.828624    1.638599
  24 H     1.0000    0     1.008   -4.135709   -4.832075   -1.662650
  25 C     6.0000    0    12.011   -1.297588   -7.251373    0.014668
  26 H     1.0000    0     1.008   -0.028571   -7.287325   -1.644802
  27 H     1.0000    0     1.008   -0.058953   -7.285783    1.696960
  28 C     6.0000    0    12.011   -2.939572   -9.639005    0.001397
  29 H     1.0000    0     1.008   -4.212890   -9.606983    1.658129
  30 H     1.0000    0     1.008   -4.184870   -9.607782   -1.676520
  31 C     6.0000    0    12.011   -1.392986  -12.083209    0.014940
  32 H     1.0000    0     1.008   -0.176929  -12.200840    1.705500
  33 H     1.0000    0     1.008   -0.149525  -12.202026   -1.655456
  34 C     6.0000    0    12.011   -7.786844    0.022171   -0.067063
  35 H     1.0000    0     1.008    9.567261   -0.188325    0.148916
  36 H     1.0000    0     1.008   -9.813124    0.049791   -0.095648
  37 H     1.0000    0     1.008    3.146937   13.673554    0.033183
  38 H     1.0000    0     1.008   -2.622006  -13.764592    0.005558

--------------------------------
INTERNAL COORDINATES (ANGSTROEM)
--------------------------------
 C      0   0   0     0.000000000000     0.00000000     0.00000000
 C      1   0   0     1.217198970430     0.00000000     0.00000000
 C      2   1   0     5.681004601816   177.64740133     0.00000000
 C      2   1   3     1.427764709600   179.04098789     4.88395755
 C      4   2   1     1.442814618264   121.04115943   170.73551055
 C      5   4   2     1.423596374880   116.40940875   180.04250256
 C      6   5   4     1.395719002335   122.61642772     0.00000000
 C      7   6   5     1.429176852768   120.53451430     0.00000000
 C      8   7   6     1.397360852263   117.41574141     0.00000000
 H      6   5   4     1.090161686004   119.25290446   179.97372195
 H      9   8   7     1.089819105179   119.66547878   180.00401020
 C      5   4   2     1.412753188159   121.80168353     0.02653600
 H     12   5   4     1.093222111356   117.21282872     0.00000000
 C     12   5   4     1.499356079612   124.89824281   180.00328768
 H     14  12   5     1.109774899194   109.98224078   302.52491495
 H     14  12   5     1.109758438535   109.99562980    57.25191299
 C     14  12   5     1.534189837895   113.50703085   179.89831305
 H     17  14  12     1.105299665650   109.00159080   302.38291560
 H     17  14  12     1.105312042978   108.99511489    57.67838119
 C     17  14  12     1.529742060448   113.10575114   180.02885686
 H     20  17  14     1.103807064559   111.30839233    59.86338153
 H     20  17  14     1.103815962708   111.30588770   300.13928564
 C      8   7   6     1.514593813755   119.70734801   179.97863328
 H     23   8   7     1.106137308186   108.20869318   303.63256908
 H     23   8   7     1.106099383299   108.20498756    56.10248812
 C     23   8   7     1.530877907707   116.90901800   179.86322827
 H     26  23   8     1.105655588828   109.85973483   301.79885745
 H     26  23   8     1.105651982388   109.87342160    58.29631173
 C     26  23   8     1.533434330866   112.61459569   180.04061859
 H     29  26  23     1.105857029927   109.20818453   302.29266698
 H     29  26  23     1.105859668289   109.20968051    57.61940548
 C     29  26  23     1.530616666740   113.15782013   179.95573414
 H     32  29  26     1.103765994710   111.29604661    59.83705599
 H     32  29  26     1.103754258905   111.29386646   300.13043542
 C      3   2   1     1.215819505462   179.54822432   182.44144594
 H      1   2   4     1.072374000531   179.55017476   328.05163120
 H     35   3   7     1.072467397770   179.65444167   355.85773913
 H     20  17  14     1.101859419311   111.44324752   180.00312326
 H     32  29  26     1.102115761963   111.50913426   179.98299719

---------------------------
INTERNAL COORDINATES (A.U.)
---------------------------
 C      0   0   0     0.000000000000     0.00000000     0.00000000
 C      1   0   0     2.300172704604     0.00000000     0.00000000
 C      2   1   0    10.735542862978   177.64740133     0.00000000
 C      2   1   3     2.698084284822   179.04098789     4.88395755
 C      4   2   1     2.726524490537   121.04115943   170.73551055
 C      5   4   2     2.690207273767   116.40940875   180.04250256
 C      6   5   4     2.637526674323   122.61642772     0.00000000
 C      7   6   5     2.700752848671   120.53451430     0.00000000
 C      8   7   6     2.640629321039   117.41574141     0.00000000
 H      6   5   4     2.060107028241   119.25290446   179.97372195
 H      9   8   7     2.059459644304   119.66547878   180.00401020
 C      5   4   2     2.669716620445   121.80168353     0.02653600
 H     12   5   4     2.065890394010   117.21282872     0.00000000
 C     12   5   4     2.833372367697   124.89824281   180.00328768
 H     14  12   5     2.097170629776   109.98224078   302.52491495
 H     14  12   5     2.097139523638   109.99562980    57.25191299
 C     14  12   5     2.899198631066   113.50703085   179.89831305
 H     17  14  12     2.088713663994   109.00159080   302.38291560
 H     17  14  12     2.088737053754   108.99511489    57.67838119
 C     17  14  12     2.890793549788   113.10575114   180.02885686
 H     20  17  14     2.085893056704   111.30839233    59.86338153
 H     20  17  14     2.085909871769   111.30588770   300.13928564
 C      8   7   6     2.862167512128   119.70734801   179.97863328
 H     23   8   7     2.090296578984   108.20869318   303.63256908
 H     23   8   7     2.090224911335   108.20498756    56.10248812
 C     23   8   7     2.892939990037   116.90901800   179.86322827
 H     26  23   8     2.089386261324   109.85973483   301.79885745
 H     26  23   8     2.089379446140   109.87342160    58.29631173
 C     26  23   8     2.897770929690   112.61459569   180.04061859
 H     29  26  23     2.089766929834   109.20818453   302.29266698
 H     29  26  23     2.089771915615   109.20968051    57.61940548
 C     29  26  23     2.892446316155   113.15782013   179.95573414
 H     32  29  26     2.085815445937   111.29604661    59.83705599
 H     32  29  26     2.085793268480   111.29386646   300.13043542
 C      3   2   1     2.297565893602   179.54822432   182.44144594
 H      1   2   4     2.026493174142   179.55017476   328.05163120
 H     35   3   7     2.026669669345   179.65444167   355.85773913
 H     20  17  14     2.082212540579   111.44324752   180.00312326
 H     32  29  26     2.082696957988   111.50913426   179.98299719

---------------------
BASIS SET INFORMATION
---------------------
There are 2 groups of distinct atoms

 Group   1 Type C   : 10s5p1d contracted to 6s2p1d pattern {511111/41/1}
 Group   2 Type H   : 6s1p contracted to 4s1p pattern {3111/1}

Atom   0C    basis set group =>   1
Atom   1C    basis set group =>   1
Atom   2C    basis set group =>   1
Atom   3C    basis set group =>   1
Atom   4C    basis set group =>   1
Atom   5C    basis set group =>   1
Atom   6C    basis set group =>   1
Atom   7C    basis set group =>   1
Atom   8C    basis set group =>   1
Atom   9H    basis set group =>   2
Atom  10H    basis set group =>   2
Atom  11C    basis set group =>   1
Atom  12H    basis set group =>   2
Atom  13C    basis set group =>   1
Atom  14H    basis set group =>   2
Atom  15H    basis set group =>   2
Atom  16C    basis set group =>   1
Atom  17H    basis set group =>   2
Atom  18H    basis set group =>   2
Atom  19C    basis set group =>   1
Atom  20H    basis set group =>   2
Atom  21H    basis set group =>   2
Atom  22C    basis set group =>   1
Atom  23H    basis set group =>   2
Atom  24H    basis set group =>   2
Atom  25C    basis set group =>   1
Atom  26H    basis set group =>   2
Atom  27H    basis set group =>   2
Atom  28C    basis set group =>   1
Atom  29H    basis set group =>   2
Atom  30H    basis set group =>   2
Atom  31C    basis set group =>   1
Atom  32H    basis set group =>   2
Atom  33H    basis set group =>   2
Atom  34C    basis set group =>   1
Atom  35H    basis set group =>   2
Atom  36H    basis set group =>   2
Atom  37H    basis set group =>   2
Atom  38H    basis set group =>   2
---------------------------------
AUXILIARY/J BASIS SET INFORMATION
---------------------------------
There are 2 groups of distinct atoms

 Group   1 Type C   : 17s13p12d2f contracted to 17s13p12d2f pattern {11111111111111111/1111111111111/111111111111/11}
 Group   2 Type H   : 15s6p1d contracted to 15s6p1d pattern {111111111111111/111111/1}

Atom   0C    basis set group =>   1
Atom   1C    basis set group =>   1
Atom   2C    basis set group =>   1
Atom   3C    basis set group =>   1
Atom   4C    basis set group =>   1
Atom   5C    basis set group =>   1
Atom   6C    basis set group =>   1
Atom   7C    basis set group =>   1
Atom   8C    basis set group =>   1
Atom   9H    basis set group =>   2
Atom  10H    basis set group =>   2
Atom  11C    basis set group =>   1
Atom  12H    basis set group =>   2
Atom  13C    basis set group =>   1
Atom  14H    basis set group =>   2
Atom  15H    basis set group =>   2
Atom  16C    basis set group =>   1
Atom  17H    basis set group =>   2
Atom  18H    basis set group =>   2
Atom  19C    basis set group =>   1
Atom  20H    basis set group =>   2
Atom  21H    basis set group =>   2
Atom  22C    basis set group =>   1
Atom  23H    basis set group =>   2
Atom  24H    basis set group =>   2
Atom  25C    basis set group =>   1
Atom  26H    basis set group =>   2
Atom  27H    basis set group =>   2
Atom  28C    basis set group =>   1
Atom  29H    basis set group =>   2
Atom  30H    basis set group =>   2
Atom  31C    basis set group =>   1
Atom  32H    basis set group =>   2
Atom  33H    basis set group =>   2
Atom  34C    basis set group =>   1
Atom  35H    basis set group =>   2
Atom  36H    basis set group =>   2
Atom  37H    basis set group =>   2
Atom  38H    basis set group =>   2
---------------------------------
AUXILIARY/C BASIS SET INFORMATION
---------------------------------
There are 2 groups of distinct atoms

 Group   1 Type C   : 17s13p12d2f contracted to 17s13p12d2f pattern {11111111111111111/1111111111111/111111111111/11}
 Group   2 Type H   : 15s6p1d contracted to 15s6p1d pattern {111111111111111/111111/1}

Atom   0C    basis set group =>   1
Atom   1C    basis set group =>   1
Atom   2C    basis set group =>   1
Atom   3C    basis set group =>   1
Atom   4C    basis set group =>   1
Atom   5C    basis set group =>   1
Atom   6C    basis set group =>   1
Atom   7C    basis set group =>   1
Atom   8C    basis set group =>   1
Atom   9H    basis set group =>   2
Atom  10H    basis set group =>   2
Atom  11C    basis set group =>   1
Atom  12H    basis set group =>   2
Atom  13C    basis set group =>   1
Atom  14H    basis set group =>   2
Atom  15H    basis set group =>   2
Atom  16C    basis set group =>   1
Atom  17H    basis set group =>   2
Atom  18H    basis set group =>   2
Atom  19C    basis set group =>   1
Atom  20H    basis set group =>   2
Atom  21H    basis set group =>   2
Atom  22C    basis set group =>   1
Atom  23H    basis set group =>   2
Atom  24H    basis set group =>   2
Atom  25C    basis set group =>   1
Atom  26H    basis set group =>   2
Atom  27H    basis set group =>   2
Atom  28C    basis set group =>   1
Atom  29H    basis set group =>   2
Atom  30H    basis set group =>   2
Atom  31C    basis set group =>   1
Atom  32H    basis set group =>   2
Atom  33H    basis set group =>   2
Atom  34C    basis set group =>   1
Atom  35H    basis set group =>   2
Atom  36H    basis set group =>   2
Atom  37H    basis set group =>   2
Atom  38H    basis set group =>   2
----------------------------------
AUXILIARY/JK BASIS SET INFORMATION
----------------------------------
There are 2 groups of distinct atoms

 Group   1 Type C   : 17s13p12d2f contracted to 17s13p12d2f pattern {11111111111111111/1111111111111/111111111111/11}
 Group   2 Type H   : 15s6p1d contracted to 15s6p1d pattern {111111111111111/111111/1}

Atom   0C    basis set group =>   1
Atom   1C    basis set group =>   1
Atom   2C    basis set group =>   1
Atom   3C    basis set group =>   1
Atom   4C    basis set group =>   1
Atom   5C    basis set group =>   1
Atom   6C    basis set group =>   1
Atom   7C    basis set group =>   1
Atom   8C    basis set group =>   1
Atom   9H    basis set group =>   2
Atom  10H    basis set group =>   2
Atom  11C    basis set group =>   1
Atom  12H    basis set group =>   2
Atom  13C    basis set group =>   1
Atom  14H    basis set group =>   2
Atom  15H    basis set group =>   2
Atom  16C    basis set group =>   1
Atom  17H    basis set group =>   2
Atom  18H    basis set group =>   2
Atom  19C    basis set group =>   1
Atom  20H    basis set group =>   2
Atom  21H    basis set group =>   2
Atom  22C    basis set group =>   1
Atom  23H    basis set group =>   2
Atom  24H    basis set group =>   2
Atom  25C    basis set group =>   1
Atom  26H    basis set group =>   2
Atom  27H    basis set group =>   2
Atom  28C    basis set group =>   1
Atom  29H    basis set group =>   2
Atom  30H    basis set group =>   2
Atom  31C    basis set group =>   1
Atom  32H    basis set group =>   2
Atom  33H    basis set group =>   2
Atom  34C    basis set group =>   1
Atom  35H    basis set group =>   2
Atom  36H    basis set group =>   2
Atom  37H    basis set group =>   2
Atom  38H    basis set group =>   2

Checking for AutoStart:
The File: EPRII.gbw exists
Trying to determine its content:
     ... Fine, the file contains calculation information
     ... Fine, the calculation information was read
     ... Fine, the file contains a basis set
     ... Fine, the basis set was read
     ... Fine, the file contains a geometry
     ... Fine, the geometry was read
     ... Fine, the file contains a set of orbitals
     ... Fine, the orbitals can be read
     => possible old guess file was deleted
     => GBW file was renamed to GES file
     => GES file is set as startup file
     => Guess is set to MORead
     ... now leaving AutoStart



           ************************************************************
           *        Program running with 16 parallel MPI-processes    *
           *              working on a common directory               *
           ************************************************************
------------------------------------------------------------------------------
                           ORCA GTO INTEGRAL CALCULATION
                           -- RI-GTO INTEGRALS CHOSEN --
------------------------------------------------------------------------------
------------------------------------------------------------------------------
                   ___                                                        
                  /   \      - P O W E R E D   B Y -                         
                 /     \                                                     
                 |  |  |   _    _      __       _____    __    __             
                 |  |  |  | |  | |    /  \     |  _  \  |  |  /  |          
                  \  \/   | |  | |   /    \    | | | |  |  | /  /          
                 / \  \   | |__| |  /  /\  \   | |_| |  |  |/  /          
                |  |  |   |  __  | /  /__\  \  |    /   |      \           
                |  |  |   | |  | | |   __   |  |    \   |  |\   \          
                \     /   | |  | | |  |  |  |  | |\  \  |  | \   \       
                 \___/    |_|  |_| |__|  |__|  |_| \__\ |__|  \__/        
                                                                              
                      - O R C A' S   B I G   F R I E N D -                    
                                      &                                       
                       - I N T E G R A L  F E E D E R -                       
                                                                              
 v1 FN, 2020, v2 2021                                                         
------------------------------------------------------------------------------


Reading SHARK input file EPRII.SHARKINP.tmp ... ok
----------------------
SHARK INTEGRAL PACKAGE
----------------------

Number of atoms                             ...     39
Number of basis functions                   ...    453
Number of shells                            ...    267
Maximum angular momentum                    ...      2
Integral batch strategy                     ... SHARK/LIBINT Hybrid
RI-J (if used) integral strategy            ... SPLIT-RIJ (Revised 2003 algorithm where possible)
Printlevel                                  ...      1
Contraction scheme used                     ... SEGMENTED contraction
Coulomb Range Separation                    ... NOT USED
Exchange Range Separation                   ... NOT USED
Finite Nucleus Model                        ... NOT USED
Auxiliary Coulomb fitting basis             ... AVAILABLE
   # of basis functions in Aux-J            ...   3138
   # of shells in Aux-J                     ...   1254
   Maximum angular momentum in Aux-J        ...      3
Auxiliary J/K fitting basis                 ... AVAILABLE
   # of basis functions in Aux-JK           ...   3138
   # of shells in Aux-JK                    ...   1254
   Maximum angular momentum in Aux-JK       ...      3
Auxiliary Correlation fitting basis         ... AVAILABLE
   # of basis functions in Aux-C            ...   3138
   # of shells in Aux-C                     ...   1254
   Maximum angular momentum in Aux-C        ...      3
Auxiliary 'external' fitting basis          ... NOT available
Integral threshold                          ...     1.000000e-10
Primitive cut-off                           ...     1.000000e-11
Primitive pair pre-selection threshold      ...     1.000000e-11

Calculating pre-screening integrals         ... done (  0.0 sec) Dimension = 267
Organizing shell pair data                  ... done (  0.1 sec)
Shell pair information
Total number of shell pairs                 ...     35778
Shell pairs after pre-screening             ...     20491
Total number of primitive shell pairs       ...     95181
Primitive shell pairs kept                  ...     39182
          la=0 lb=0:   9377 shell pairs
          la=1 lb=0:   7080 shell pairs
          la=1 lb=1:   1238 shell pairs
          la=2 lb=0:   1951 shell pairs
          la=2 lb=1:    724 shell pairs
          la=2 lb=2:    121 shell pairs

Calculating one electron integrals          ... done (  0.0 sec)
Calculating RI/J V-Matrix + Cholesky decomp.... done (  0.7 sec)
Calculating RI/JK V-Matrix + Cholesky decomp... done (  0.6 sec)
Calculating RI/C V-Matrix + Cholesky decomp.... done (  0.6 sec)
Calculating Nuclear repulsion               ... done (  0.0 sec) ENN=   1144.886103824135 Eh

SHARK setup successfully completed in   2.5 seconds

Maximum memory used throughout the entire GTOINT-calculation: 39.5 MB


           ************************************************************
           *        Program running with 16 parallel MPI-processes    *
           *              working on a common directory               *
           ************************************************************
-------------------------------------------------------------------------------
                                 ORCA SCF
-------------------------------------------------------------------------------

------------
SCF SETTINGS
------------
Hamiltonian:
 Density Functional     Method          .... DFT(GTOs)
 Exchange Functional    Exchange        .... B88
   X-Alpha parameter    XAlpha          ....  0.666667
   Becke's b parameter  XBeta           ....  0.004200
 Correlation Functional Correlation     .... LYP
 LDA part of GGA corr.  LDAOpt          .... VWN-5
 Gradients option       PostSCFGGA      .... off
 Hybrid DFT is turned on
   Fraction HF Exchange ScalHFX         ....  0.200000
   Scaling of DF-GGA-X  ScalDFX         ....  0.720000
   Scaling of DF-GGA-C  ScalDFC         ....  0.810000
   Scaling of DF-LDA-C  ScalLDAC        ....  1.000000
   Perturbative correction              ....  0.000000
   Density functional embedding theory  .... OFF
   NL short-range parameter             ....  4.800000
 RI-approximation to the Coulomb term is turned on
   Number of AuxJ basis functions       .... 3138
   RIJ-COSX (HFX calculated with COS-X)).... on


General Settings:
 Integral files         IntName         .... EPRII
 Hartree-Fock type      HFTyp           .... UHF
 Total Charge           Charge          ....    0
 Multiplicity           Mult            ....    2
 Number of Electrons    NEL             ....  129
 Basis Dimension        Dim             ....  453
 Nuclear Repulsion      ENuc            ....   1144.8861038241 Eh

Convergence Acceleration:
 DIIS                   CNVDIIS         .... on
   Start iteration      DIISMaxIt       ....    12
   Startup error        DIISStart       ....  0.200000
   # of expansion vecs  DIISMaxEq       ....     5
   Bias factor          DIISBfac        ....   1.050
   Max. coefficient     DIISMaxC        ....  10.000
 Trust-Rad. Augm. Hess. CNVTRAH         .... auto
   Auto Start mean grad. ratio tolernc. ....  1.125000
   Auto Start start iteration           ....     1
   Auto Start num. interpolation iter.  ....    10
   Max. Number of Micro iterations      ....    16
   Max. Number of Macro iterations      .... Maxiter - #DIIS iter
   Number of Davidson start vectors     ....     2
   Converg. threshold I  (grad. norm)   ....   5.000e-05
   Converg. threshold II (energy diff.) ....   1.000e-06
   Grad. Scal. Fac. for Micro threshold ....   0.100
   Minimum threshold for Micro iter.    ....   0.010
   NR start threshold (gradient norm)   ....   0.001
   Initial trust radius                 ....   0.400
   Minimum AH scaling param. (alpha)    ....   1.000
   Maximum AH scaling param. (alpha)    .... 1000.000
   Orbital update algorithm             .... Taylor
   White noise on init. David. guess    .... on
   Maximum white noise                  ....   0.010
   Quad. conv. algorithm                .... NR
 SOSCF                  CNVSOSCF        .... off
 Level Shifting         CNVShift        .... on
   Level shift para.    LevelShift      ....    0.2500
   Turn off err/grad.   ShiftErr        ....    0.0010
 Zerner damping         CNVZerner       .... off
 Static damping         CNVDamp         .... on
   Fraction old density DampFac         ....    0.7000
   Max. Damping (<1)    DampMax         ....    0.9800
   Min. Damping (>=0)   DampMin         ....    0.0000
   Turn off err/grad.   DampErr         ....    0.1000
 Fernandez-Rico         CNVRico         .... off

SCF Procedure:
 Maximum # iterations   MaxIter         ....   125
 SCF integral mode      SCFMode         .... Direct
   Integral package                     .... SHARK and LIBINT hybrid scheme
 Reset frequency        DirectResetFreq ....    20
 Integral Threshold     Thresh          ....  1.000e-10 Eh
 Primitive CutOff       TCut            ....  1.000e-11 Eh

Convergence Tolerance:
 Convergence Check Mode ConvCheckMode   .... Total+1el-Energy
 Convergence forced     ConvForced      .... 0
 Energy Change          TolE            ....  1.000e-06 Eh
 1-El. energy change                    ....  1.000e-03 Eh
 DIIS Error             TolErr          ....  1.000e-06


Diagonalization of the overlap matrix:
Smallest eigenvalue                        ... 1.322e-04
Time for diagonalization                   ...    0.039 sec
Threshold for overlap eigenvalues          ... 1.000e-08
Number of eigenvalues below threshold      ... 0
Time for construction of square roots      ...    0.057 sec
Total time needed                          ...    0.096 sec

---------------------
INITIAL GUESS: MOREAD
---------------------
Guess MOs are being read from file: EPRII.ges
Input Geometry matches current geometry (good)
Input basis set matches current basis set (good)
MOs were renormalized
MOs were reorthogonalized (Cholesky)
                      ------------------
                      INITIAL GUESS DONE (   0.2 sec)
                      ------------------
-------------------
DFT GRID GENERATION
-------------------

General Integration Accuracy     IntAcc      ... 4.388
Radial Grid Type                 RadialGrid  ... OptM3 with GC (2021)
Angular Grid (max. ang.)         AngularGrid ... 4 (Lebedev-302)
Angular grid pruning method      GridPruning ... 4 (adaptive)
Weight generation scheme         WeightScheme... Becke
Basis function cutoff            BFCut       ... 1.0000e-10
Integration weight cutoff        WCut        ... 1.0000e-14
Angular grids for H and He will be reduced by one unit
Partially contracted basis set               ... off
Rotationally invariant grid construction     ... off

Total number of grid points                  ...   174685
Total number of batches                      ...     2747
Average number of points per batch           ...       63
Average number of grid points per atom       ...     4479
Time for grid setup =    0.968 sec

--------------------
COSX GRID GENERATION
--------------------

GRIDX 1
-------
General Integration Accuracy     IntAcc      ... 3.816
Radial Grid Type                 RadialGrid  ... OptM3 with GC (2021)
Angular Grid (max. ang.)         AngularGrid ... 1 (Lebedev-50)
Angular grid pruning method      GridPruning ... 4 (adaptive)
Weight generation scheme         WeightScheme... Becke
Basis function cutoff            BFCut       ... 1.0000e-10
Integration weight cutoff        WCut        ... 1.0000e-14
Angular grids for H and He will be reduced by one unit
Partially contracted basis set               ... on
Rotationally invariant grid construction     ... off

Total number of grid points                  ...    22264
Total number of batches                      ...      371
Average number of points per batch           ...       60
Average number of grid points per atom       ...      571
UseSFitting                                  ... on

GRIDX 2
-------
General Integration Accuracy     IntAcc      ... 4.020
Radial Grid Type                 RadialGrid  ... OptM3 with GC (2021)
Angular Grid (max. ang.)         AngularGrid ... 2 (Lebedev-110)
Angular grid pruning method      GridPruning ... 4 (adaptive)
Weight generation scheme         WeightScheme... Becke
Basis function cutoff            BFCut       ... 1.0000e-10
Integration weight cutoff        WCut        ... 1.0000e-14
Angular grids for H and He will be reduced by one unit
Partially contracted basis set               ... on
Rotationally invariant grid construction     ... off

Total number of grid points                  ...    47311
Total number of batches                      ...      761
Average number of points per batch           ...       62
Average number of grid points per atom       ...     1213
UseSFitting                                  ... on

GRIDX 3
-------
General Integration Accuracy     IntAcc      ... 4.338
Radial Grid Type                 RadialGrid  ... OptM3 with GC (2021)
Angular Grid (max. ang.)         AngularGrid ... 3 (Lebedev-194)
Angular grid pruning method      GridPruning ... 4 (adaptive)
Weight generation scheme         WeightScheme... Becke
Basis function cutoff            BFCut       ... 1.0000e-10
Integration weight cutoff        WCut        ... 1.0000e-14
Angular grids for H and He will be reduced by one unit
Partially contracted basis set               ... on
Rotationally invariant grid construction     ... off

Total number of grid points                  ...   103513
Total number of batches                      ...     1637
Average number of points per batch           ...       63
Average number of grid points per atom       ...     2654
UseSFitting                                  ... on

Time for X-Grid setup             =    1.696 sec

--------------
SCF ITERATIONS
--------------
ITER       Energy         Delta-E        Max-DP      RMS-DP      [F,P]     Damp
               ***  Starting incremental Fock matrix formation  ***
  0   -698.0281740434   0.000000000000 0.00008333  0.00000065  0.0000580 0.7000
                 **** Energy Check signals convergence ****

               *****************************************************
               *                     SUCCESS                       *
               *           SCF CONVERGED AFTER   1 CYCLES          *
               *****************************************************

Old exchange energy                            =    -20.106273316 Eh
New exchange energy                            =    -20.106248470 Eh
Exchange energy change after final integration =      0.000024847 Eh
Total energy after final integration           =   -698.028149199 Eh
Final COS-X integration done in                =     5.597 sec

----------------
TOTAL SCF ENERGY
----------------

Total Energy       :         -698.02814920 Eh          -18994.31159 eV

Components:
Nuclear Repulsion  :         1144.88610382 Eh           31153.93472 eV
Electronic Energy  :        -1842.91425302 Eh          -50148.24631 eV
One Electron Energy:        -3212.80352729 Eh          -87424.82857 eV
Two Electron Energy:         1369.88927427 Eh           37276.58226 eV
Max COSX asymmetry :            0.00000330 Eh               0.00009 eV

Virial components:
Potential Energy   :        -1390.45906576 Eh          -37836.31474 eV
Kinetic Energy     :          692.43091656 Eh           18842.00315 eV
Virial Ratio       :            2.00808345


DFT components:
N(Alpha)           :       65.000101578869 electrons
N(Beta)            :       64.000088948173 electrons
N(Total)           :      129.000190527042 electrons
E(X)               :      -79.748297886858 Eh       
E(C)               :       -4.991108237620 Eh       
E(XC)              :      -84.739406124479 Eh       
DFET-embed. en.    :        0.000000000000 Eh       

---------------
SCF CONVERGENCE
---------------

  Last Energy change         ...   -2.5553e-09  Tolerance :   1.0000e-06
  Last MAX-Density change    ...    2.2569e-05  Tolerance :   1.0000e-05
  Last RMS-Density change    ...    1.8506e-07  Tolerance :   1.0000e-06
  Last DIIS Error            ...    3.1944e-05  Tolerance :   1.0000e-06

             **** THE GBW FILE WAS UPDATED (EPRII.gbw) ****
             **** DENSITY EPRII.scfp WAS UPDATED ****
             **** ENERGY FILE WAS UPDATED (EPRII.en.tmp) ****
----------------------
UHF SPIN CONTAMINATION
----------------------

Warning: in a DFT calculation there is little theoretical justification to 
         calculate <S**2> as in Hartree-Fock theory. We will do it anyways
         but you should keep in mind that the values have only limited relevance

Expectation value of <S**2>     :     0.785695
Ideal value S*(S+1) for S=0.5   :     0.750000
Deviation                       :     0.035695

             **** THE GBW FILE WAS UPDATED (EPRII.gbw) ****
             **** DENSITY EPRII.scfp WAS UPDATED ****
----------------
ORBITAL ENERGIES
----------------
                 SPIN UP ORBITALS
  NO   OCC          E(Eh)            E(eV) 
   0   1.0000     -10.225907      -278.2611 
   1   1.0000     -10.224105      -278.2121 
   2   1.0000     -10.213857      -277.9332 
   3   1.0000     -10.210737      -277.8483 
   4   1.0000     -10.207173      -277.7513 
   5   1.0000     -10.205069      -277.6941 
   6   1.0000     -10.204278      -277.6725 
   7   1.0000     -10.199641      -277.5463 
   8   1.0000     -10.199287      -277.5367 
   9   1.0000     -10.198337      -277.5109 
  10   1.0000     -10.197862      -277.4979 
  11   1.0000     -10.190807      -277.3060 
  12   1.0000     -10.188795      -277.2512 
  13   1.0000     -10.185554      -277.1630 
  14   1.0000     -10.183022      -277.0941 
  15   1.0000     -10.182564      -277.0817 
  16   1.0000     -10.175457      -276.8883 
  17   1.0000     -10.173232      -276.8277 
  18   1.0000      -0.875773       -23.8310 
  19   1.0000      -0.820712       -22.3327 
  20   1.0000      -0.798463       -21.7273 
  21   1.0000      -0.795177       -21.6379 
  22   1.0000      -0.768094       -20.9009 
  23   1.0000      -0.754644       -20.5349 
  24   1.0000      -0.730858       -19.8877 
  25   1.0000      -0.723204       -19.6794 
  26   1.0000      -0.697822       -18.9887 
  27   1.0000      -0.656904       -17.8753 
  28   1.0000      -0.641126       -17.4459 
  29   1.0000      -0.617396       -16.8002 
  30   1.0000      -0.594558       -16.1788 
  31   1.0000      -0.580394       -15.7933 
  32   1.0000      -0.563390       -15.3306 
  33   1.0000      -0.544052       -14.8044 
  34   1.0000      -0.526241       -14.3198 
  35   1.0000      -0.500573       -13.6213 
  36   1.0000      -0.488000       -13.2792 
  37   1.0000      -0.478665       -13.0251 
  38   1.0000      -0.470841       -12.8122 
  39   1.0000      -0.463041       -12.6000 
  40   1.0000      -0.434506       -11.8235 
  41   1.0000      -0.430725       -11.7206 
  42   1.0000      -0.426355       -11.6017 
  43   1.0000      -0.422467       -11.4959 
  44   1.0000      -0.412257       -11.2181 
  45   1.0000      -0.399355       -10.8670 
  46   1.0000      -0.398337       -10.8393 
  47   1.0000      -0.381457       -10.3800 
  48   1.0000      -0.379963       -10.3393 
  49   1.0000      -0.365639        -9.9495 
  50   1.0000      -0.358199        -9.7471 
  51   1.0000      -0.355170        -9.6647 
  52   1.0000      -0.340550        -9.2668 
  53   1.0000      -0.333057        -9.0629 
  54   1.0000      -0.332401        -9.0451 
  55   1.0000      -0.331259        -9.0140 
  56   1.0000      -0.327706        -8.9173 
  57   1.0000      -0.324133        -8.8201 
  58   1.0000      -0.321144        -8.7388 
  59   1.0000      -0.287053        -7.8111 
  60   1.0000      -0.278657        -7.5826 
  61   1.0000      -0.277043        -7.5387 
  62   1.0000      -0.272125        -7.4049 
  63   1.0000      -0.232839        -6.3359 
  64   1.0000      -0.175562        -4.7773 
  65   0.0000      -0.051440        -1.3997 
  66   0.0000       0.008140         0.2215 
  67   0.0000       0.018719         0.5094 
  68   0.0000       0.021120         0.5747 
  69   0.0000       0.024391         0.6637 
  70   0.0000       0.030076         0.8184 
  71   0.0000       0.036776         1.0007 
  72   0.0000       0.038436         1.0459 
  73   0.0000       0.040985         1.1153 
  74   0.0000       0.045174         1.2292 
  75   0.0000       0.046863         1.2752 
  76   0.0000       0.049051         1.3347 
  77   0.0000       0.050648         1.3782 
  78   0.0000       0.073357         1.9962 
  79   0.0000       0.078848         2.1456 
  80   0.0000       0.087478         2.3804 
  81   0.0000       0.097420         2.6509 
  82   0.0000       0.107192         2.9169 
  83   0.0000       0.108365         2.9488 
  84   0.0000       0.123482         3.3601 
  85   0.0000       0.136715         3.7202 
  86   0.0000       0.149874         4.0783 
  87   0.0000       0.157236         4.2786 
  88   0.0000       0.157628         4.2893 
  89   0.0000       0.160507         4.3676 
  90   0.0000       0.174448         4.7470 
  91   0.0000       0.180675         4.9164 
  92   0.0000       0.184393         5.0176 
  93   0.0000       0.188087         5.1181 
  94   0.0000       0.194867         5.3026 
  95   0.0000       0.198282         5.3955 
  96   0.0000       0.199392         5.4257 
  97   0.0000       0.199935         5.4405 
  98   0.0000       0.202392         5.5074 
  99   0.0000       0.206700         5.6246 
 100   0.0000       0.214378         5.8335 
 101   0.0000       0.218131         5.9356 
 102   0.0000       0.221606         6.0302 
 103   0.0000       0.232624         6.3300 
 104   0.0000       0.237855         6.4724 
 105   0.0000       0.243892         6.6366 
 106   0.0000       0.250781         6.8241 
 107   0.0000       0.251054         6.8315 
 108   0.0000       0.258705         7.0397 
 109   0.0000       0.259663         7.0658 
 110   0.0000       0.266800         7.2600 
 111   0.0000       0.272658         7.4194 
 112   0.0000       0.276521         7.5245 
 113   0.0000       0.279685         7.6106 
 114   0.0000       0.284870         7.7517 
 115   0.0000       0.287944         7.8354 
 116   0.0000       0.296896         8.0790 
 117   0.0000       0.298449         8.1212 
 118   0.0000       0.300051         8.1648 
 119   0.0000       0.300813         8.1855 
 120   0.0000       0.310441         8.4475 
 121   0.0000       0.315235         8.5780 
 122   0.0000       0.318027         8.6539 
 123   0.0000       0.322281         8.7697 
 124   0.0000       0.325267         8.8510 
 125   0.0000       0.330482         8.9929 
 126   0.0000       0.334532         9.1031 
 127   0.0000       0.338131         9.2010 
 128   0.0000       0.349957         9.5228 
 129   0.0000       0.352135         9.5821 
 130   0.0000       0.358802         9.7635 
 131   0.0000       0.361782         9.8446 
 132   0.0000       0.363790         9.8992 
 133   0.0000       0.368306        10.0221 
 134   0.0000       0.377307        10.2670 
 135   0.0000       0.380329        10.3493 
 136   0.0000       0.383927        10.4472 
 137   0.0000       0.394299        10.7294 
 138   0.0000       0.397950        10.8288 
 139   0.0000       0.398846        10.8531 
 140   0.0000       0.407908        11.0997 
 141   0.0000       0.409823        11.1519 
 142   0.0000       0.416431        11.3317 
 143   0.0000       0.423909        11.5351 
 144   0.0000       0.435536        11.8515 
 145   0.0000       0.442330        12.0364 
 146   0.0000       0.443027        12.0554 
 147   0.0000       0.447913        12.1883 
 148   0.0000       0.457200        12.4410 
 149   0.0000       0.463921        12.6239 
 150   0.0000       0.473287        12.8788 
 151   0.0000       0.479880        13.0582 
 152   0.0000       0.484313        13.1788 
 153   0.0000       0.497218        13.5300 
 154   0.0000       0.507179        13.8010 
 155   0.0000       0.508423        13.8349 
 156   0.0000       0.517182        14.0732 
 157   0.0000       0.521092        14.1796 
 158   0.0000       0.533847        14.5267 
 159   0.0000       0.540512        14.7081 
 160   0.0000       0.545291        14.8381 
 161   0.0000       0.551183        14.9985 
 162   0.0000       0.551731        15.0134 
 163   0.0000       0.562487        15.3061 
 164   0.0000       0.571063        15.5394 
 165   0.0000       0.585648        15.9363 
 166   0.0000       0.591600        16.0982 
 167   0.0000       0.592438        16.1211 
 168   0.0000       0.594236        16.1700 
 169   0.0000       0.603430        16.4202 
 170   0.0000       0.624365        16.9898 
 171   0.0000       0.634074        17.2540 
 172   0.0000       0.653522        17.7832 
 173   0.0000       0.668978        18.2038 
 174   0.0000       0.675298        18.3758 
 175   0.0000       0.706557        19.2264 
 176   0.0000       0.729804        19.8590 
 177   0.0000       0.769001        20.9256 
 178   0.0000       0.785089        21.3634 
 179   0.0000       0.788102        21.4453 
 180   0.0000       0.790440        21.5090 
 181   0.0000       0.810346        22.0506 
 182   0.0000       0.821454        22.3529 
 183   0.0000       0.835354        22.7311 
 184   0.0000       0.839727        22.8501 
 185   0.0000       0.847019        23.0486 
 186   0.0000       0.856936        23.3184 
 187   0.0000       0.857671        23.3384 
 188   0.0000       0.861072        23.4309 
 189   0.0000       0.879002        23.9189 
 190   0.0000       0.879483        23.9319 
 191   0.0000       0.883842        24.0506 
 192   0.0000       0.892543        24.2873 
 193   0.0000       0.905028        24.6271 
 194   0.0000       0.911864        24.8131 
 195   0.0000       0.913167        24.8485 
 196   0.0000       0.919577        25.0230 
 197   0.0000       0.923050        25.1175 
 198   0.0000       0.926606        25.2142 
 199   0.0000       0.934400        25.4263 
 200   0.0000       0.942622        25.6500 
 201   0.0000       0.955194        25.9922 
 202   0.0000       0.957997        26.0684 
 203   0.0000       0.968426        26.3522 
 204   0.0000       0.969005        26.3680 
 205   0.0000       0.976616        26.5751 
 206   0.0000       0.982604        26.7380 
 207   0.0000       0.984829        26.7985 
 208   0.0000       0.997017        27.1302 
 209   0.0000       1.002248        27.2725 
 210   0.0000       1.008900        27.4536 
 211   0.0000       1.026111        27.9219 
 212   0.0000       1.031478        28.0679 
 213   0.0000       1.037885        28.2423 
 214   0.0000       1.040276        28.3073 
 215   0.0000       1.045927        28.4611 
 216   0.0000       1.050529        28.5863 
 217   0.0000       1.059140        28.8207 
 218   0.0000       1.062819        28.9208 
 219   0.0000       1.085885        29.5484 
 220   0.0000       1.101636        29.9770 
 221   0.0000       1.106079        30.0979 
 222   0.0000       1.110399        30.2155 
 223   0.0000       1.119151        30.4537 
 224   0.0000       1.127684        30.6858 
 225   0.0000       1.137029        30.9401 
 226   0.0000       1.150000        31.2931 
 227   0.0000       1.160762        31.5859 
 228   0.0000       1.170128        31.8408 
 229   0.0000       1.176152        32.0047 
 230   0.0000       1.183242        32.1976 
 231   0.0000       1.185823        32.2679 
 232   0.0000       1.201489        32.6942 
 233   0.0000       1.205691        32.8085 
 234   0.0000       1.219777        33.1918 
 235   0.0000       1.227405        33.3994 
 236   0.0000       1.236509        33.6471 
 237   0.0000       1.239279        33.7225 
 238   0.0000       1.252109        34.0716 
 239   0.0000       1.253689        34.1146 
 240   0.0000       1.258558        34.2471 
 241   0.0000       1.261261        34.3206 
 242   0.0000       1.279237        34.8098 
 243   0.0000       1.285949        34.9925 
 244   0.0000       1.304024        35.4843 
 245   0.0000       1.316465        35.8228 
 246   0.0000       1.320730        35.9389 
 247   0.0000       1.332488        36.2588 
 248   0.0000       1.342566        36.5331 
 249   0.0000       1.352114        36.7929 
 250   0.0000       1.369999        37.2796 
 251   0.0000       1.376490        37.4562 
 252   0.0000       1.386740        37.7351 
 253   0.0000       1.397977        38.0409 
 254   0.0000       1.399461        38.0813 
 255   0.0000       1.423435        38.7336 
 256   0.0000       1.426846        38.8264 
 257   0.0000       1.427814        38.8528 
 258   0.0000       1.432884        38.9908 
 259   0.0000       1.441500        39.2252 
 260   0.0000       1.445161        39.3248 
 261   0.0000       1.463775        39.8314 
 262   0.0000       1.465982        39.8914 
 263   0.0000       1.480047        40.2741 
 264   0.0000       1.499681        40.8084 
 265   0.0000       1.507594        41.0237 
 266   0.0000       1.512377        41.1539 
 267   0.0000       1.514742        41.2182 
 268   0.0000       1.520522        41.3755 
 269   0.0000       1.548206        42.1288 
 270   0.0000       1.559683        42.4411 
 271   0.0000       1.560815        42.4719 
 272   0.0000       1.562580        42.5200 
 273   0.0000       1.571897        42.7735 
 274   0.0000       1.586279        43.1649 
 275   0.0000       1.589465        43.2515 
 276   0.0000       1.590124        43.2695 
 277   0.0000       1.599200        43.5164 
 278   0.0000       1.603575        43.6355 
 279   0.0000       1.613158        43.8963 
 280   0.0000       1.624736        44.2113 
 281   0.0000       1.627461        44.2855 
 282   0.0000       1.635460        44.5031 
 283   0.0000       1.656025        45.0627 
 284   0.0000       1.658422        45.1280 
 285   0.0000       1.675929        45.6044 
 286   0.0000       1.687124        45.9090 
 287   0.0000       1.689235        45.9664 
 288   0.0000       1.692913        46.0665 
 289   0.0000       1.703243        46.3476 
 290   0.0000       1.704059        46.3698 
 291   0.0000       1.723687        46.9039 
 292   0.0000       1.728450        47.0335 
 293   0.0000       1.740473        47.3607 
 294   0.0000       1.741377        47.3853 
 295   0.0000       1.748986        47.5923 
 296   0.0000       1.769378        48.1472 
 297   0.0000       1.771505        48.2051 
 298   0.0000       1.778039        48.3829 
 299   0.0000       1.786329        48.6085 
 300   0.0000       1.798342        48.9354 
 301   0.0000       1.802999        49.0621 
 302   0.0000       1.804932        49.1147 
 303   0.0000       1.819158        49.5018 
 304   0.0000       1.826545        49.7028 
 305   0.0000       1.843937        50.1761 
 306   0.0000       1.864321        50.7308 
 307   0.0000       1.899804        51.6963 
 308   0.0000       1.917579        52.1800 
 309   0.0000       1.927831        52.4590 
 310   0.0000       1.928103        52.4663 
 311   0.0000       1.933509        52.6134 
 312   0.0000       1.937974        52.7350 
 313   0.0000       1.952204        53.1222 
 314   0.0000       1.979922        53.8764 
 315   0.0000       2.008224        54.6466 
 316   0.0000       2.035264        55.3823 
 317   0.0000       2.043991        55.6198 
 318   0.0000       2.054683        55.9108 
 319   0.0000       2.074471        56.4492 
 320   0.0000       2.088175        56.8221 
 321   0.0000       2.102926        57.2235 
 322   0.0000       2.105602        57.2964 
 323   0.0000       2.125622        57.8411 
 324   0.0000       2.127050        57.8800 
 325   0.0000       2.155953        58.6665 
 326   0.0000       2.157963        58.7212 
 327   0.0000       2.180669        59.3390 
 328   0.0000       2.189892        59.5900 
 329   0.0000       2.208526        60.0970 
 330   0.0000       2.213234        60.2252 
 331   0.0000       2.238368        60.9091 
 332   0.0000       2.243885        61.0592 
 333   0.0000       2.250708        61.2449 
 334   0.0000       2.256811        61.4110 
 335   0.0000       2.268118        61.7186 
 336   0.0000       2.279837        62.0375 
 337   0.0000       2.303109        62.6708 
 338   0.0000       2.310519        62.8724 
 339   0.0000       2.314974        62.9937 
 340   0.0000       2.325696        63.2854 
 341   0.0000       2.330401        63.4134 
 342   0.0000       2.353897        64.0528 
 343   0.0000       2.374920        64.6249 
 344   0.0000       2.384437        64.8838 
 345   0.0000       2.411339        65.6159 
 346   0.0000       2.427653        66.0598 
 347   0.0000       2.432019        66.1786 
 348   0.0000       2.442759        66.4709 
 349   0.0000       2.457829        66.8809 
 350   0.0000       2.471629        67.2565 
 351   0.0000       2.474677        67.3394 
 352   0.0000       2.482772        67.5596 
 353   0.0000       2.505913        68.1894 
 354   0.0000       2.510518        68.3147 
 355   0.0000       2.524627        68.6986 
 356   0.0000       2.534613        68.9703 
 357   0.0000       2.551341        69.4255 
 358   0.0000       2.558961        69.6329 
 359   0.0000       2.560710        69.6805 
 360   0.0000       2.571112        69.9635 
 361   0.0000       2.581281        70.2402 
 362   0.0000       2.603908        70.8559 
 363   0.0000       2.615121        71.1611 
 364   0.0000       2.626347        71.4665 
 365   0.0000       2.628552        71.5265 
 366   0.0000       2.716401        73.9170 
 367   0.0000       2.773717        75.4767 
 368   0.0000       2.795425        76.0674 
 369   0.0000       2.830545        77.0230 
 370   0.0000       2.905537        79.0637 
 371   0.0000       2.959801        80.5403 
 372   0.0000       2.967659        80.7541 
 373   0.0000       2.984809        81.2208 
 374   0.0000       3.290983        89.5522 
 375   0.0000       4.977996       135.4582 
 376   0.0000       4.984850       135.6447 
 377   0.0000       4.997168       135.9799 
 378   0.0000       5.009644       136.3193 
 379   0.0000       5.010502       136.3427 
 380   0.0000       5.019537       136.5885 
 381   0.0000       5.023617       136.6996 
 382   0.0000       5.024561       136.7253 
 383   0.0000       5.034419       136.9935 
 384   0.0000       5.046711       137.3280 
 385   0.0000       5.201265       141.5336 
 386   0.0000       5.216051       141.9360 
 387   0.0000       5.234163       142.4288 
 388   0.0000       5.245030       142.7245 
 389   0.0000       5.277116       143.5976 
 390   0.0000       5.287483       143.8797 
 391   0.0000       5.296177       144.1163 
 392   0.0000       5.305164       144.3609 
 393   0.0000       5.308331       144.4470 
 394   0.0000       5.337592       145.2433 
 395   0.0000       5.362393       145.9181 
 396   0.0000       5.374880       146.2579 
 397   0.0000       5.394399       146.7890 
 398   0.0000       5.407740       147.1521 
 399   0.0000       5.446731       148.2131 
 400   0.0000       5.550787       151.0446 
 401   0.0000       5.563506       151.3907 
 402   0.0000       5.601200       152.4164 
 403   0.0000       5.628404       153.1566 
 404   0.0000       5.633991       153.3087 
 405   0.0000       5.726459       155.8249 
 406   0.0000       5.735897       156.0817 
 407   0.0000       5.758384       156.6936 
 408   0.0000       5.821495       158.4109 
 409   0.0000       5.848861       159.1556 
 410   0.0000       5.882385       160.0678 
 411   0.0000       6.021856       163.8630 
 412   0.0000       6.246685       169.9809 
 413   0.0000       6.371396       173.3745 
 414   0.0000      29.632973       806.3542 
 415   0.0000      29.809311       811.1526 
 416   0.0000      29.847390       812.1888 
 417   0.0000      29.858590       812.4935 
 418   0.0000      29.976676       815.7068 
 419   0.0000      29.985184       815.9383 
 420   0.0000      30.057814       817.9147 
 421   0.0000      30.081407       818.5567 
 422   0.0000      30.107565       819.2685 
 423   0.0000      30.120874       819.6306 
 424   0.0000      30.159834       820.6908 
 425   0.0000      30.199622       821.7735 
 426   0.0000      30.220012       822.3283 
 427   0.0000      30.256986       823.3344 
 428   0.0000      30.284487       824.0828 
 429   0.0000      30.333623       825.4199 
 430   0.0000      30.454078       828.6976 
 431   0.0000      30.589201       832.3745 
 432   0.0000      36.603690       996.0371 
 433   0.0000      36.612854       996.2864 
 434   0.0000      36.628565       996.7139 
 435   0.0000      36.634763       996.8826 
 436   0.0000      36.638755       996.9912 
 437   0.0000      36.645647       997.1788 
 438   0.0000      36.650224       997.3033 
 439   0.0000      36.660833       997.5920 
 440   0.0000      36.671707       997.8879 
 441   0.0000      36.809843      1001.6467 
 442   0.0000      36.824598      1002.0483 
 443   0.0000      36.849634      1002.7295 
 444   0.0000      36.864956      1003.1465 
 445   0.0000      36.868822      1003.2517 
 446   0.0000      36.876093      1003.4495 
 447   0.0000      36.882032      1003.6111 
 448   0.0000      36.916804      1004.5573 
 449   0.0000      36.933931      1005.0234 
 450   0.0000      36.936106      1005.0825 
 451   0.0000      36.965233      1005.8751 
 452   0.0000      37.009486      1007.0793 

                 SPIN DOWN ORBITALS
  NO   OCC          E(Eh)            E(eV) 
   0   1.0000     -10.225722      -278.2560 
   1   1.0000     -10.222489      -278.1681 
   2   1.0000     -10.213163      -277.9143 
   3   1.0000     -10.210402      -277.8392 
   4   1.0000     -10.206768      -277.7403 
   5   1.0000     -10.205868      -277.7158 
   6   1.0000     -10.201207      -277.5890 
   7   1.0000     -10.200873      -277.5799 
   8   1.0000     -10.198965      -277.5280 
   9   1.0000     -10.196574      -277.4629 
  10   1.0000     -10.191475      -277.3241 
  11   1.0000     -10.189735      -277.2768 
  12   1.0000     -10.188994      -277.2566 
  13   1.0000     -10.185517      -277.1620 
  14   1.0000     -10.183019      -277.0940 
  15   1.0000     -10.182565      -277.0817 
  16   1.0000     -10.175466      -276.8885 
  17   1.0000     -10.173234      -276.8278 
  18   1.0000      -0.872354       -23.7379 
  19   1.0000      -0.815705       -22.1964 
  20   1.0000      -0.795925       -21.6582 
  21   1.0000      -0.793519       -21.5928 
  22   1.0000      -0.766139       -20.8477 
  23   1.0000      -0.753878       -20.5141 
  24   1.0000      -0.726665       -19.7736 
  25   1.0000      -0.721782       -19.6407 
  26   1.0000      -0.695457       -18.9243 
  27   1.0000      -0.653793       -17.7906 
  28   1.0000      -0.639247       -17.3948 
  29   1.0000      -0.611896       -16.6505 
  30   1.0000      -0.593586       -16.1523 
  31   1.0000      -0.578797       -15.7499 
  32   1.0000      -0.560975       -15.2649 
  33   1.0000      -0.542739       -14.7687 
  34   1.0000      -0.523843       -14.2545 
  35   1.0000      -0.498212       -13.5570 
  36   1.0000      -0.486554       -13.2398 
  37   1.0000      -0.477219       -12.9858 
  38   1.0000      -0.469938       -12.7877 
  39   1.0000      -0.459530       -12.5044 
  40   1.0000      -0.432792       -11.7769 
  41   1.0000      -0.428793       -11.6681 
  42   1.0000      -0.425069       -11.5667 
  43   1.0000      -0.419747       -11.4219 
  44   1.0000      -0.411819       -11.2062 
  45   1.0000      -0.397212       -10.8087 
  46   1.0000      -0.391575       -10.6553 
  47   1.0000      -0.377648       -10.2763 
  48   1.0000      -0.377528       -10.2731 
  49   1.0000      -0.364422        -9.9164 
  50   1.0000      -0.357203        -9.7200 
  51   1.0000      -0.351962        -9.5774 
  52   1.0000      -0.338150        -9.2015 
  53   1.0000      -0.332562        -9.0495 
  54   1.0000      -0.330610        -8.9964 
  55   1.0000      -0.328943        -8.9510 
  56   1.0000      -0.327356        -8.9078 
  57   1.0000      -0.323449        -8.8015 
  58   1.0000      -0.320550        -8.7226 
  59   1.0000      -0.281855        -7.6697 
  60   1.0000      -0.278604        -7.5812 
  61   1.0000      -0.276402        -7.5213 
  62   1.0000      -0.259448        -7.0599 
  63   1.0000      -0.224937        -6.1208 
  64   0.0000      -0.085917        -2.3379 
  65   0.0000      -0.042576        -1.1586 
  66   0.0000       0.019067         0.5188 
  67   0.0000       0.021331         0.5804 
  68   0.0000       0.023967         0.6522 
  69   0.0000       0.024585         0.6690 
  70   0.0000       0.030285         0.8241 
  71   0.0000       0.037006         1.0070 
  72   0.0000       0.038736         1.0541 
  73   0.0000       0.041031         1.1165 
  74   0.0000       0.045277         1.2320 
  75   0.0000       0.049263         1.3405 
  76   0.0000       0.051154         1.3920 
  77   0.0000       0.052725         1.4347 
  78   0.0000       0.073539         2.0011 
  79   0.0000       0.079099         2.1524 
  80   0.0000       0.088062         2.3963 
  81   0.0000       0.097816         2.6617 
  82   0.0000       0.109407         2.9771 
  83   0.0000       0.110161         2.9976 
  84   0.0000       0.124326         3.3831 
  85   0.0000       0.136955         3.7267 
  86   0.0000       0.150314         4.0902 
  87   0.0000       0.157779         4.2934 
  88   0.0000       0.158647         4.3170 
  89   0.0000       0.164507         4.4765 
  90   0.0000       0.175243         4.7686 
  91   0.0000       0.181957         4.9513 
  92   0.0000       0.184949         5.0327 
  93   0.0000       0.191228         5.2036 
  94   0.0000       0.195455         5.3186 
  95   0.0000       0.198576         5.4035 
  96   0.0000       0.199796         5.4367 
  97   0.0000       0.200403         5.4532 
  98   0.0000       0.206538         5.6202 
  99   0.0000       0.207766         5.6536 
 100   0.0000       0.214775         5.8443 
 101   0.0000       0.218482         5.9452 
 102   0.0000       0.222355         6.0506 
 103   0.0000       0.233355         6.3499 
 104   0.0000       0.238410         6.4875 
 105   0.0000       0.246338         6.7032 
 106   0.0000       0.251475         6.8430 
 107   0.0000       0.252113         6.8603 
 108   0.0000       0.259988         7.0746 
 109   0.0000       0.260778         7.0961 
 110   0.0000       0.268197         7.2980 
 111   0.0000       0.273947         7.4545 
 112   0.0000       0.278862         7.5882 
 113   0.0000       0.280013         7.6195 
 114   0.0000       0.289224         7.8702 
 115   0.0000       0.289988         7.8910 
 116   0.0000       0.298561         8.1243 
 117   0.0000       0.298949         8.1348 
 118   0.0000       0.301327         8.1995 
 119   0.0000       0.304293         8.2802 
 120   0.0000       0.312314         8.4985 
 121   0.0000       0.317451         8.6383 
 122   0.0000       0.319812         8.7025 
 123   0.0000       0.325027         8.8444 
 124   0.0000       0.326506         8.8847 
 125   0.0000       0.331716         9.0264 
 126   0.0000       0.340606         9.2684 
 127   0.0000       0.341093         9.2816 
 128   0.0000       0.352546         9.5933 
 129   0.0000       0.353542         9.6204 
 130   0.0000       0.359682         9.7875 
 131   0.0000       0.362944         9.8762 
 132   0.0000       0.364317         9.9136 
 133   0.0000       0.369464        10.0536 
 134   0.0000       0.378093        10.2884 
 135   0.0000       0.381484        10.3807 
 136   0.0000       0.389296        10.5933 
 137   0.0000       0.395270        10.7558 
 138   0.0000       0.399491        10.8707 
 139   0.0000       0.404286        11.0012 
 140   0.0000       0.409083        11.1317 
 141   0.0000       0.413075        11.2403 
 142   0.0000       0.417652        11.3649 
 143   0.0000       0.430866        11.7245 
 144   0.0000       0.436358        11.8739 
 145   0.0000       0.444011        12.0822 
 146   0.0000       0.445364        12.1190 
 147   0.0000       0.449073        12.2199 
 148   0.0000       0.458193        12.4681 
 149   0.0000       0.465423        12.6648 
 150   0.0000       0.474040        12.8993 
 151   0.0000       0.481208        13.0943 
 152   0.0000       0.489093        13.3089 
 153   0.0000       0.499147        13.5825 
 154   0.0000       0.508018        13.8239 
 155   0.0000       0.510087        13.8802 
 156   0.0000       0.517678        14.0867 
 157   0.0000       0.526707        14.3324 
 158   0.0000       0.534883        14.5549 
 159   0.0000       0.541441        14.7334 
 160   0.0000       0.546520        14.8716 
 161   0.0000       0.552252        15.0275 
 162   0.0000       0.552586        15.0366 
 163   0.0000       0.561708        15.2849 
 164   0.0000       0.571903        15.5623 
 165   0.0000       0.586664        15.9639 
 166   0.0000       0.592456        16.1215 
 167   0.0000       0.595476        16.2037 
 168   0.0000       0.595833        16.2134 
 169   0.0000       0.604310        16.4441 
 170   0.0000       0.628776        17.1099 
 171   0.0000       0.634833        17.2747 
 172   0.0000       0.655261        17.8306 
 173   0.0000       0.670685        18.2503 
 174   0.0000       0.677167        18.4267 
 175   0.0000       0.708452        19.2780 
 176   0.0000       0.730953        19.8902 
 177   0.0000       0.769604        20.9420 
 178   0.0000       0.786895        21.4125 
 179   0.0000       0.789724        21.4895 
 180   0.0000       0.791822        21.5466 
 181   0.0000       0.811245        22.0751 
 182   0.0000       0.823178        22.3998 
 183   0.0000       0.836850        22.7719 
 184   0.0000       0.840173        22.8623 
 185   0.0000       0.847851        23.0712 
 186   0.0000       0.858727        23.3672 
 187   0.0000       0.859036        23.3756 
 188   0.0000       0.862562        23.4715 
 189   0.0000       0.879653        23.9366 
 190   0.0000       0.881191        23.9784 
 191   0.0000       0.887797        24.1582 
 192   0.0000       0.893551        24.3148 
 193   0.0000       0.906854        24.6768 
 194   0.0000       0.912790        24.8383 
 195   0.0000       0.916033        24.9265 
 196   0.0000       0.920401        25.0454 
 197   0.0000       0.923468        25.1288 
 198   0.0000       0.929866        25.3030 
 199   0.0000       0.934981        25.4421 
 200   0.0000       0.944152        25.6917 
 201   0.0000       0.958695        26.0874 
 202   0.0000       0.961633        26.1674 
 203   0.0000       0.969903        26.3924 
 204   0.0000       0.971068        26.4241 
 205   0.0000       0.978076        26.6148 
 206   0.0000       0.984350        26.7855 
 207   0.0000       0.985617        26.8200 
 208   0.0000       0.998228        27.1632 
 209   0.0000       1.006314        27.3832 
 210   0.0000       1.010449        27.4957 
 211   0.0000       1.026832        27.9415 
 212   0.0000       1.031826        28.0774 
 213   0.0000       1.039360        28.2824 
 214   0.0000       1.044823        28.4311 
 215   0.0000       1.047544        28.5051 
 216   0.0000       1.051765        28.6200 
 217   0.0000       1.059225        28.8230 
 218   0.0000       1.063974        28.9522 
 219   0.0000       1.088308        29.6144 
 220   0.0000       1.102656        30.0048 
 221   0.0000       1.107189        30.1281 
 222   0.0000       1.111503        30.2455 
 223   0.0000       1.121486        30.5172 
 224   0.0000       1.129749        30.7420 
 225   0.0000       1.140935        31.0464 
 226   0.0000       1.150577        31.3088 
 227   0.0000       1.160864        31.5887 
 228   0.0000       1.172742        31.9119 
 229   0.0000       1.176723        32.0203 
 230   0.0000       1.186027        32.2734 
 231   0.0000       1.187469        32.3127 
 232   0.0000       1.201792        32.7024 
 233   0.0000       1.206812        32.8390 
 234   0.0000       1.221413        33.2363 
 235   0.0000       1.228377        33.4258 
 236   0.0000       1.239228        33.7211 
 237   0.0000       1.240974        33.7686 
 238   0.0000       1.253132        34.0994 
 239   0.0000       1.256456        34.1899 
 240   0.0000       1.260834        34.3090 
 241   0.0000       1.264069        34.3971 
 242   0.0000       1.280170        34.8352 
 243   0.0000       1.292476        35.1701 
 244   0.0000       1.305451        35.5231 
 245   0.0000       1.317187        35.8425 
 246   0.0000       1.331224        36.2244 
 247   0.0000       1.334608        36.3165 
 248   0.0000       1.344243        36.5787 
 249   0.0000       1.352833        36.8125 
 250   0.0000       1.378660        37.5152 
 251   0.0000       1.379223        37.5306 
 252   0.0000       1.387686        37.7608 
 253   0.0000       1.399327        38.0776 
 254   0.0000       1.400325        38.1048 
 255   0.0000       1.424531        38.7635 
 256   0.0000       1.426960        38.8295 
 257   0.0000       1.429303        38.8933 
 258   0.0000       1.435792        39.0699 
 259   0.0000       1.441887        39.2357 
 260   0.0000       1.446007        39.3478 
 261   0.0000       1.465443        39.8767 
 262   0.0000       1.467239        39.9256 
 263   0.0000       1.481483        40.3132 
 264   0.0000       1.501396        40.8551 
 265   0.0000       1.508255        41.0417 
 266   0.0000       1.514227        41.2042 
 267   0.0000       1.515548        41.2402 
 268   0.0000       1.521329        41.3975 
 269   0.0000       1.549539        42.1651 
 270   0.0000       1.560405        42.4608 
 271   0.0000       1.560969        42.4761 
 272   0.0000       1.564187        42.5637 
 273   0.0000       1.574648        42.8484 
 274   0.0000       1.588061        43.2133 
 275   0.0000       1.590387        43.2766 
 276   0.0000       1.592826        43.3430 
 277   0.0000       1.600549        43.5531 
 278   0.0000       1.604021        43.6476 
 279   0.0000       1.613692        43.9108 
 280   0.0000       1.626823        44.2681 
 281   0.0000       1.628290        44.3080 
 282   0.0000       1.637067        44.5469 
 283   0.0000       1.660662        45.1889 
 284   0.0000       1.660797        45.1926 
 285   0.0000       1.678760        45.6814 
 286   0.0000       1.688278        45.9404 
 287   0.0000       1.690481        46.0003 
 288   0.0000       1.694825        46.1185 
 289   0.0000       1.704646        46.3858 
 290   0.0000       1.704789        46.3897 
 291   0.0000       1.725152        46.9438 
 292   0.0000       1.729301        47.0567 
 293   0.0000       1.741490        47.3884 
 294   0.0000       1.743040        47.4305 
 295   0.0000       1.751168        47.6517 
 296   0.0000       1.769585        48.1528 
 297   0.0000       1.772362        48.2284 
 298   0.0000       1.780020        48.4368 
 299   0.0000       1.792273        48.7702 
 300   0.0000       1.800612        48.9971 
 301   0.0000       1.804932        49.1147 
 302   0.0000       1.805772        49.1376 
 303   0.0000       1.824453        49.6459 
 304   0.0000       1.829633        49.7868 
 305   0.0000       1.846965        50.2585 
 306   0.0000       1.865342        50.7585 
 307   0.0000       1.903517        51.7973 
 308   0.0000       1.918299        52.1996 
 309   0.0000       1.929274        52.4982 
 310   0.0000       1.930350        52.5275 
 311   0.0000       1.938570        52.7512 
 312   0.0000       1.941518        52.8314 
 313   0.0000       1.954077        53.1731 
 314   0.0000       1.982366        53.9429 
 315   0.0000       2.012371        54.7594 
 316   0.0000       2.036422        55.4138 
[...]
 A(ORB)         -0.0002               0.0002               0.0025    A(PC) =   0.0008
 A(DIA)          0.0006              -0.0004              -0.0002    A(PC) =   0.0000
             ----------           ----------           ----------
 A(Tot)         -3.5077              -8.9092             -11.8227    A(iso)=   -8.0799
 Orientation: 
  X          -0.9919343           -0.0178998            0.1254828
  Y           0.1254487            0.0030209            0.9920955
  Z          -0.0181374            0.9998352           -0.0007510

Notes:  (1) The A matrix conforms to the "SAI" spin Hamiltonian convention.
        (2) Tensor is right-handed.

 -----------------------------------------------------------
 Nucleus  36H : A:ISTP=    1 I=  0.5 P=533.5514 MHz/au**3
                Q:ISTP=    2 I=  1.0 Q=  0.0029 barn     
 -----------------------------------------------------------
 Solving for nuclear perturbation:
Forming RHS of the CP-SCF equations         ... 
Calc. nucleus orbit integrals (SHARK)       ... done

------------------------------------------------------------------------------
                           ORCA CP-SCF CALCULATION
------------------------------------------------------------------------------

Input orbitals are from        ... EPRII.gbw
Input Perturbation             ... EPRII.pin.tmp
Wavefunction output            ... EPRII.pout.tmp
Perturbation mode              ... Imaginary perturbation
Solver                         ... POPLE
Max. number of iterations      ... 64
Convergence tolerance          ... 1.000e-03
Integral handling              ... Direct
DFT GridXC                     ... 1
COSX GridX                     ... 1
COSX IntAccX                   ... 3.067
COSX Algorithm                 ... Auto
Number of perturbations        ... 3
Number of operators            ... 2
Orbital ranges used for CP-SCF:
 Operator 0:  Orbitals   0... 64  to  65...452
 Operator 1:  Orbitals   0... 63  to  64...452
Variables per perturbation     ... 50116
DFT calculation                         ... on
XC functional terms                     ... off
Hybrid DFT                              ... on
   Exchange mixing (SCF)                ...  0.200
   Exchange mixing (CP-SCF)             ...  0.200
   GGA exch. scaling(SCF)               ...  0.720
   GGA exch. scaling (CP-SCF)           ...  0.720
   GGA corr. scaling (SCF)              ...  0.810
   GGA corr. scaling (CP-SCF)           ...  0.810

CP-SCF GRID
-----------

General Integration Accuracy     IntAcc      ... 3.467
Radial Grid Type                 RadialGrid  ... OptM3 with GC (2021)
Angular Grid (max. ang.)         AngularGrid ... 1 (Lebedev-50)
Angular grid pruning method      GridPruning ... 4 (adaptive)
Weight generation scheme         WeightScheme... Becke
Basis function cutoff            BFCut       ... 1.0000e-10
Integration weight cutoff        WCut        ... 1.0000e-14
Angular grids for H and He will be reduced by one unit
Partially contracted basis set               ... off
Rotationally invariant grid construction     ... off

Total number of grid points                  ...    24798
Total number of batches                      ...      406
Average number of points per batch           ...       61
Average number of grid points per atom       ...      636

CP-SCF GRIDX
------------

General Integration Accuracy     IntAcc      ... 3.067
Radial Grid Type                 RadialGrid  ... OptM3 with GC (2021)
Angular Grid (max. ang.)         AngularGrid ... 1 (Lebedev-50)
Angular grid pruning method      GridPruning ... 4 (adaptive)
Weight generation scheme         WeightScheme... Becke
Basis function cutoff            BFCut       ... 1.0000e-10
Integration weight cutoff        WCut        ... 1.0000e-14
Angular grids for H and He will be reduced by one unit
Partially contracted basis set               ... on
Rotationally invariant grid construction     ... off

Total number of grid points                  ...    11665
Total number of batches                      ...      205
Average number of points per batch           ...       56
Average number of grid points per atom       ...      299

Memory available               ... 894.0 MB
Memory needed per perturbation ...  12.1 MB
Perturbations treated per batch... 3
Number of batches              ... 1
     CP-SCF ITERATION   0:   1.0089e-01 (   1.3 sec   0/  3 done)
     CP-SCF ITERATION   1:   1.6685e-03 (   1.5 sec   2/  3 done)
     CP-SCF ITERATION   2:   9.6740e-05 (   1.0 sec   3/  3 done)
                    *** THE CP-SCF HAS CONVERGED ***

Forming final perturbed densities           ... done
Transforming perturbed density to AO basis  ... done

 Raw HFC matrix (all values in MHz): 
 -----------------------------------
                 2.6368               0.1618              -0.0165
                 0.1618               5.1661              -0.0013
                -0.0165              -0.0013               3.6114

 A(FC)           3.8050               3.8050               3.8050
 A(SD)          -1.1788              -0.1934               1.3722
 A(ORB+DIA)     -0.0001               0.0001              -0.0008    A(PC) =  -0.0003
 A(ORB)          0.0001              -0.0001              -0.0010    A(PC) =  -0.0003
 A(DIA)         -0.0002               0.0002               0.0001    A(PC) =   0.0001
             ----------           ----------           ----------
 A(Tot)          2.6262               3.6117               5.1764    A(iso)=    3.8048
 Orientation: 
  X           0.9978390           -0.0165114           -0.0635982
  Y          -0.0635648            0.0025400           -0.9979745
  Z           0.0166395            0.9998605            0.0014850

Notes:  (1) The A matrix conforms to the "SAI" spin Hamiltonian convention.
        (2) Tensor is right-handed.

 -----------------------------------------------------------
 Nucleus  37H : A:ISTP=    1 I=  0.5 P=533.5514 MHz/au**3
                Q:ISTP=    2 I=  1.0 Q=  0.0029 barn     
 -----------------------------------------------------------
 Solving for nuclear perturbation:
Forming RHS of the CP-SCF equations         ... 
Calc. nucleus orbit integrals (SHARK)       ... done

------------------------------------------------------------------------------
                           ORCA CP-SCF CALCULATION
------------------------------------------------------------------------------

Input orbitals are from        ... EPRII.gbw
Input Perturbation             ... EPRII.pin.tmp
Wavefunction output            ... EPRII.pout.tmp
Perturbation mode              ... Imaginary perturbation
Solver                         ... POPLE
Max. number of iterations      ... 64
Convergence tolerance          ... 1.000e-03
Integral handling              ... Direct
DFT GridXC                     ... 1
COSX GridX                     ... 1
COSX IntAccX                   ... 3.067
COSX Algorithm                 ... Auto
Number of perturbations        ... 3
Number of operators            ... 2
Orbital ranges used for CP-SCF:
 Operator 0:  Orbitals   0... 64  to  65...452
 Operator 1:  Orbitals   0... 63  to  64...452
Variables per perturbation     ... 50116
DFT calculation                         ... on
XC functional terms                     ... off
Hybrid DFT                              ... on
   Exchange mixing (SCF)                ...  0.200
   Exchange mixing (CP-SCF)             ...  0.200
   GGA exch. scaling(SCF)               ...  0.720
   GGA exch. scaling (CP-SCF)           ...  0.720
   GGA corr. scaling (SCF)              ...  0.810
   GGA corr. scaling (CP-SCF)           ...  0.810

CP-SCF GRID
-----------

General Integration Accuracy     IntAcc      ... 3.467
Radial Grid Type                 RadialGrid  ... OptM3 with GC (2021)
Angular Grid (max. ang.)         AngularGrid ... 1 (Lebedev-50)
Angular grid pruning method      GridPruning ... 4 (adaptive)
Weight generation scheme         WeightScheme... Becke
Basis function cutoff            BFCut       ... 1.0000e-10
Integration weight cutoff        WCut        ... 1.0000e-14
Angular grids for H and He will be reduced by one unit
Partially contracted basis set               ... off
Rotationally invariant grid construction     ... off

Total number of grid points                  ...    24798
Total number of batches                      ...      406
Average number of points per batch           ...       61
Average number of grid points per atom       ...      636

CP-SCF GRIDX
------------

General Integration Accuracy     IntAcc      ... 3.067
Radial Grid Type                 RadialGrid  ... OptM3 with GC (2021)
Angular Grid (max. ang.)         AngularGrid ... 1 (Lebedev-50)
Angular grid pruning method      GridPruning ... 4 (adaptive)
Weight generation scheme         WeightScheme... Becke
Basis function cutoff            BFCut       ... 1.0000e-10
Integration weight cutoff        WCut        ... 1.0000e-14
Angular grids for H and He will be reduced by one unit
Partially contracted basis set               ... on
Rotationally invariant grid construction     ... off

Total number of grid points                  ...    11665
Total number of batches                      ...      205
Average number of points per batch           ...       56
Average number of grid points per atom       ...      299

Memory available               ... 893.5 MB
Memory needed per perturbation ...  12.1 MB
Perturbations treated per batch... 3
Number of batches              ... 1
     CP-SCF ITERATION   0:   3.6984e-02 (   1.3 sec   0/  3 done)
     CP-SCF ITERATION   1:   6.3148e-04 (   1.3 sec   3/  3 done)
                    *** THE CP-SCF HAS CONVERGED ***

Forming final perturbed densities           ... done
Transforming perturbed density to AO basis  ... done

 Raw HFC matrix (all values in MHz): 
 -----------------------------------
                -0.8209               0.2328               0.0003
                 0.2327               0.6806               0.0009
                 0.0003               0.0009              -0.8405

 A(FC)          -0.3271              -0.3271              -0.3271
 A(SD)           1.0424              -0.5134              -0.5290
 A(ORB+DIA)      0.0005              -0.0001              -0.0000    A(PC) =   0.0001
 A(ORB)          0.0004               0.0000               0.0000    A(PC) =   0.0001
 A(DIA)          0.0001              -0.0001              -0.0001    A(PC) =  -0.0000
             ----------           ----------           ----------
 A(Tot)          0.7158              -0.8405              -0.8561    A(iso)=   -0.3269
 Orientation: 
  X          -0.1498082           -0.0083532            0.9886798
  Y          -0.9887149            0.0018567           -0.1497979
  Z          -0.0005844           -0.9999634           -0.0085371

Notes:  (1) The A matrix conforms to the "SAI" spin Hamiltonian convention.
        (2) Tensor is right-handed.

 -----------------------------------------------------------
 Nucleus  38H : A:ISTP=    1 I=  0.5 P=533.5514 MHz/au**3
                Q:ISTP=    2 I=  1.0 Q=  0.0029 barn     
 -----------------------------------------------------------
 Solving for nuclear perturbation:
Forming RHS of the CP-SCF equations         ... 
Calc. nucleus orbit integrals (SHARK)       ... done

------------------------------------------------------------------------------
                           ORCA CP-SCF CALCULATION
------------------------------------------------------------------------------

Input orbitals are from        ... EPRII.gbw
Input Perturbation             ... EPRII.pin.tmp
Wavefunction output            ... EPRII.pout.tmp
Perturbation mode              ... Imaginary perturbation
Solver                         ... POPLE
Max. number of iterations      ... 64
Convergence tolerance          ... 1.000e-03
Integral handling              ... Direct
DFT GridXC                     ... 1
COSX GridX                     ... 1
COSX IntAccX                   ... 3.067
COSX Algorithm                 ... Auto
Number of perturbations        ... 3
Number of operators            ... 2
Orbital ranges used for CP-SCF:
 Operator 0:  Orbitals   0... 64  to  65...452
 Operator 1:  Orbitals   0... 63  to  64...452
Variables per perturbation     ... 50116
DFT calculation                         ... on
XC functional terms                     ... off
Hybrid DFT                              ... on
   Exchange mixing (SCF)                ...  0.200
   Exchange mixing (CP-SCF)             ...  0.200
   GGA exch. scaling(SCF)               ...  0.720
   GGA exch. scaling (CP-SCF)           ...  0.720
   GGA corr. scaling (SCF)              ...  0.810
   GGA corr. scaling (CP-SCF)           ...  0.810

CP-SCF GRID
-----------

General Integration Accuracy     IntAcc      ... 3.467
Radial Grid Type                 RadialGrid  ... OptM3 with GC (2021)
Angular Grid (max. ang.)         AngularGrid ... 1 (Lebedev-50)
Angular grid pruning method      GridPruning ... 4 (adaptive)
Weight generation scheme         WeightScheme... Becke
Basis function cutoff            BFCut       ... 1.0000e-10
Integration weight cutoff        WCut        ... 1.0000e-14
Angular grids for H and He will be reduced by one unit
Partially contracted basis set               ... off
Rotationally invariant grid construction     ... off

Total number of grid points                  ...    24798
Total number of batches                      ...      406
Average number of points per batch           ...       61
Average number of grid points per atom       ...      636

CP-SCF GRIDX
------------

General Integration Accuracy     IntAcc      ... 3.067
Radial Grid Type                 RadialGrid  ... OptM3 with GC (2021)
Angular Grid (max. ang.)         AngularGrid ... 1 (Lebedev-50)
Angular grid pruning method      GridPruning ... 4 (adaptive)
Weight generation scheme         WeightScheme... Becke
Basis function cutoff            BFCut       ... 1.0000e-10
Integration weight cutoff        WCut        ... 1.0000e-14
Angular grids for H and He will be reduced by one unit
Partially contracted basis set               ... on
Rotationally invariant grid construction     ... off

Total number of grid points                  ...    11665
Total number of batches                      ...      205
Average number of points per batch           ...       56
Average number of grid points per atom       ...      299

Memory available               ... 893.0 MB
Memory needed per perturbation ...  12.1 MB
Perturbations treated per batch... 3
Number of batches              ... 1
     CP-SCF ITERATION   0:   3.7073e-02 (   1.3 sec   0/  3 done)
     CP-SCF ITERATION   1:   6.4677e-04 (   1.3 sec   3/  3 done)
                    *** THE CP-SCF HAS CONVERGED ***

Forming final perturbed densities           ... done
Transforming perturbed density to AO basis  ... done

 Raw HFC matrix (all values in MHz): 
 -----------------------------------
                -0.1220               0.0641               0.0001
                 0.0642               0.2291               0.0003
                 0.0001               0.0003              -0.1337

 A(FC)          -0.0089              -0.0089              -0.0089
 A(SD)          -0.1245              -0.1248               0.2493
 A(ORB+DIA)     -0.0000               0.0000               0.0001    A(PC) =   0.0000
 A(ORB)         -0.0000               0.0000               0.0001    A(PC) =   0.0000
 A(DIA)          0.0000               0.0000               0.0000    A(PC) =   0.0000
             ----------           ----------           ----------
 A(Tot)         -0.1334              -0.1337               0.2404    A(iso)=   -0.0089
 Orientation: 
  X           0.9847065           -0.0007269            0.1742197
  Y          -0.1742189            0.0010829            0.9847064
  Z          -0.0009044           -0.9999991            0.0009397

Notes:  (1) The A matrix conforms to the "SAI" spin Hamiltonian convention.
        (2) Tensor is right-handed.


--------------------------------------------------------------------------------
----------------------------------------------------------------------------
                           ORCA EULER ANGLE PROGRAM
----------------------------------------------------------------------------

Only g-tensor available        -->  using g-tensor as reference tensor

Reference tensor               ...  g

g-tensor ordering              ...  |g_min> --> |gx>
                                    |g_mid> --> |gy>
                                    |g_max> --> |gz>

A- and EFG-tensor ordering     ...  the axes |Ax>, |Qx>, |Ay>, etc. are assigned
                                    such that the Euler rotation is minimal. You
                                    can find the respective eigenvalues as Ax,
                                    EFGx, Ay, etc. in the tables below.
                                    The relation of |Ax>, |Ay>,  etc. to Amin, Amid, etc.
                                    (as printed in the ORCA EPR/NMR CALCULATION Output)
                                    is obtained in the detailed printout.

Euler rotation around          ...  z - y - z
   First rotation              -->  by alpha around z
   Second rotation             -->  by beta around y'
   Third rotation              -->  by gamma around z''
   Positive / Negative angle   -->  clockwise / counterclockwise rotation

Plot EFG-tensors                    (-)
Plot HFC-tensors                    (-)
Detailed Printout                   (-)

-------------------------------------------------------------------------
          Euler rotation of hyperfine tensor to g-tensor
-------------------------------------------------------------------------

-------------------------------------------------------------------
 Atom  |   Alpha    Beta    Gamma   |   Ax       Ay       Az 
       |          [degrees]         |           [MHz]         
-------------------------------------------------------------------
  9H      -90.4      5.2     90.4     -17.24    -8.05   -20.70
 10H      -90.0      8.0     90.0       4.57     5.23    10.10
 12H       90.0     44.5    -90.0     -49.43   -20.51   -74.50
 14H      -20.5     13.5      2.2      69.51    79.20    71.03
 15H     -159.4     13.2    177.6      69.23    78.92    70.75
 17H       22.8     26.9    -57.2      -3.36    -3.20     3.00
 18H      157.1     26.9   -122.7      -3.36    -3.20     2.99
 20H     -128.4     48.7    152.7      -0.02     2.34     0.10
 21H      -51.4     48.9     27.1      -0.02     2.34     0.09
 23H     -137.0     17.6    177.0      24.86    25.49    28.63
 24H      -43.1     17.5      3.4      24.73    25.35    28.49
 26H      -81.3     32.0     94.3      -1.06     0.93    -0.93
 27H      -99.2     32.0     86.4      -1.05     0.93    -0.92
 29H       73.7     28.4   -108.5      -0.09    -0.13     0.83
 30H      106.3     28.3    -71.3      -0.09    -0.13     0.83
 32H      -94.9     44.5     86.5      -0.12     0.39    -0.10
 33H      -85.3     44.5     93.9      -0.12     0.39    -0.10
 35H       89.6     38.5    -90.0      -8.91    -3.51   -11.82
 36H       89.7     42.0    -90.0       3.61     2.63     5.18
 37H       91.1     37.1    -89.9      -0.84    -0.86     0.72
 38H       90.6     35.7    -89.9      -0.13    -0.13     0.24
-------------------------------------------------------------------


Maximum memory used throughout the entire EPRNMR-calculation: 178.5 MB

Timings for individual modules:

Sum of individual times         ...     2177.243 sec (=  36.287 min)
GTO integral calculation        ...        5.027 sec (=   0.084 min)   0.2 %
Spin-Orbit-Coupling Matrices    ...        9.164 sec (=   0.153 min)   0.4 %
SCF iterations                  ...       24.093 sec (=   0.402 min)   1.1 %
EPR/NMR calculation             ...     2138.960 sec (=  35.649 min)  98.2 %
                             ****ORCA TERMINATED NORMALLY****
TOTAL RUN TIME: 0 days 0 hours 36 minutes 21 seconds 534 msec
