
                                 *****************
                                 * O   R   C   A *
                                 *****************

                                            #,                                       
                                            ###                                      
                                            ####                                     
                                            #####                                    
                                            ######                                   
                                           ########,                                 
                                     ,,################,,,,,                         
                               ,,#################################,,                 
                          ,,##########################################,,             
                       ,#########################################, ''#####,          
                    ,#############################################,,   '####,        
                  ,##################################################,,,,####,       
                ,###########''''           ''''###############################       
              ,#####''   ,,,,##########,,,,          '''####'''          '####       
            ,##' ,,,,###########################,,,                        '##       
           ' ,,###''''                  '''############,,,                           
         ,,##''                                '''############,,,,        ,,,,,,###''
      ,#''                                            '''#######################'''  
     '                                                          ''''####''''         
             ,#######,   #######,   ,#######,      ##                                
            ,#'     '#,  ##    ##  ,#'     '#,    #''#        ######   ,####,        
            ##       ##  ##   ,#'  ##            #'  '#       #        #'  '#        
            ##       ##  #######   ##           ,######,      #####,   #    #        
            '#,     ,#'  ##    ##  '#,     ,#' ,#      #,         ##   #,  ,#        
             '#######'   ##     ##  '#######'  #'      '#     #####' # '####'        



                  #######################################################
                  #                        -***-                        #
                  #          Department of theory and spectroscopy      #
                  #    Directorship and core code : Frank Neese         #
                  #        Max Planck Institute fuer Kohlenforschung    #
                  #                Kaiser Wilhelm Platz 1               #
                  #                 D-45470 Muelheim/Ruhr               #
                  #                      Germany                        #
                  #                                                     #
                  #                  All rights reserved                #
                  #                        -***-                        #
                  #######################################################


                         Program Version 5.0.4 -  RELEASE  -


 With contributions from (in alphabetic order):
   Daniel Aravena         : Magnetic Suceptibility
   Michael Atanasov       : Ab Initio Ligand Field Theory (pilot matlab implementation)
   Alexander A. Auer      : GIAO ZORA, VPT2 properties, NMR spectrum
   Ute Becker             : Parallelization
   Giovanni Bistoni       : ED, misc. LED, open-shell LED, HFLD
   Martin Brehm           : Molecular dynamics
   Dmytro Bykov           : SCF Hessian
   Vijay G. Chilkuri      : MRCI spin determinant printing, contributions to CSF-ICE
   Dipayan Datta          : RHF DLPNO-CCSD density
   Achintya Kumar Dutta   : EOM-CC, STEOM-CC
   Dmitry Ganyushin       : Spin-Orbit,Spin-Spin,Magnetic field MRCI
   Miquel Garcia          : C-PCM and meta-GGA Hessian, CC/C-PCM, Gaussian charge scheme
   Yang Guo               : DLPNO-NEVPT2, F12-NEVPT2, CIM, IAO-localization
   Andreas Hansen         : Spin unrestricted coupled pair/coupled cluster methods
   Benjamin Helmich-Paris : MC-RPA, TRAH-SCF, COSX integrals
   Lee Huntington         : MR-EOM, pCC
   Robert Izsak           : Overlap fitted RIJCOSX, COSX-SCS-MP3, EOM
   Marcus Kettner         : VPT2
   Christian Kollmar      : KDIIS, OOCD, Brueckner-CCSD(T), CCSD density, CASPT2, CASPT2-K
   Simone Kossmann        : Meta GGA functionals, TD-DFT gradient, OOMP2, MP2 Hessian
   Martin Krupicka        : Initial AUTO-CI
   Lucas Lang             : DCDCAS
   Marvin Lechner         : AUTO-CI (C++ implementation), FIC-MRCC
   Dagmar Lenk            : GEPOL surface, SMD
   Dimitrios Liakos       : Extrapolation schemes; Compound Job, initial MDCI parallelization
   Dimitrios Manganas     : Further ROCIS development; embedding schemes
   Dimitrios Pantazis     : SARC Basis sets
   Anastasios Papadopoulos: AUTO-CI, single reference methods and gradients
   Taras Petrenko         : DFT Hessian,TD-DFT gradient, ASA, ECA, R-Raman, ABS, FL, XAS/XES, NRVS
   Peter Pinski           : DLPNO-MP2, DLPNO-MP2 Gradient
   Christoph Reimann      : Effective Core Potentials
   Marius Retegan         : Local ZFS, SOC
   Christoph Riplinger    : Optimizer, TS searches, QM/MM, DLPNO-CCSD(T), (RO)-DLPNO pert. Triples
   Tobias Risthaus        : Range-separated hybrids, TD-DFT gradient, RPA, STAB
   Michael Roemelt        : Original ROCIS implementation
   Masaaki Saitow         : Open-shell DLPNO-CCSD energy and density
   Barbara Sandhoefer     : DKH picture change effects
   Avijit Sen             : IP-ROCIS
   Kantharuban Sivalingam : CASSCF convergence, NEVPT2, FIC-MRCI
   Bernardo de Souza      : ESD, SOC TD-DFT
   Georgi Stoychev        : AutoAux, RI-MP2 NMR, DLPNO-MP2 response
   Willem Van den Heuvel  : Paramagnetic NMR
   Boris Wezisla          : Elementary symmetry handling
   Frank Wennmohs         : Technical directorship


 We gratefully acknowledge several colleagues who have allowed us to
 interface, adapt or use parts of their codes:
   Stefan Grimme, W. Hujo, H. Kruse, P. Pracht,  : VdW corrections, initial TS optimization,
                  C. Bannwarth, S. Ehlert          DFT functionals, gCP, sTDA/sTD-DF
   Ed Valeev, F. Pavosevic, A. Kumar             : LibInt (2-el integral package), F12 methods
   Garnet Chan, S. Sharma, J. Yang, R. Olivares  : DMRG
   Ulf Ekstrom                                   : XCFun DFT Library
   Mihaly Kallay                                 : mrcc  (arbitrary order and MRCC methods)
   Jiri Pittner, Ondrej Demel                    : Mk-CCSD
   Frank Weinhold                                : gennbo (NPA and NBO analysis)
   Christopher J. Cramer and Donald G. Truhlar   : smd solvation model
   Lars Goerigk                                  : TD-DFT with DH, B97 family of functionals
   V. Asgeirsson, H. Jonsson                     : NEB implementation
   FAccTs GmbH                                   : IRC, NEB, NEB-TS, DLPNO-Multilevel, CI-OPT
                                                   MM, QMMM, 2- and 3-layer-ONIOM, Crystal-QMMM,
                                                   LR-CPCM, SF, NACMEs, symmetry and pop. for TD-DFT,
                                                   nearIR, NL-DFT gradient (VV10), updates on ESD,
                                                   ML-optimized integration grids
   S Lehtola, MJT Oliveira, MAL Marques          : LibXC Library
   Liviu Ungur et al                             : ANISO software


 Your calculation uses the libint2 library for the computation of 2-el integrals
 For citations please refer to: http://libint.valeyev.net

 Your ORCA version has been built with support for libXC version: 5.1.0
 For citations please refer to: https://tddft.org/programs/libxc/

 This ORCA versions uses:
   CBLAS   interface :  Fast vector & matrix operations
   LAPACKE interface :  Fast linear algebra routines
   SCALAPACK package :  Parallel linear algebra routines
   Shared memory     :  Shared parallel matrices
   BLAS/LAPACK       :  OpenBLAS 0.3.15  USE64BITINT DYNAMIC_ARCH NO_AFFINITY SkylakeX SINGLE_THREADED
        Core in use  :  SkylakeX
   Copyright (c) 2011-2014, The OpenBLAS Project




***************************************
The coordinates will be read from file: model.xyz
***************************************


================================================================================

----- Orbital basis set information -----
Your calculation utilizes the basis: cc-pVDZ 
       H, B-Ne : Obtained from the ccRepo (grant-hill.group.shef.ac.uk/ccrepo) Feb. 2017
                 T. H. Dunning, Jr., J. Chem. Phys. 90, 1007 (1989)
            He : Obtained from the ccRepo (grant-hill.group.shef.ac.uk/ccrepo) Feb. 2017
                 D. E. Woon, T. H. Dunning, Jr., J. Chem. Phys. 100, 2975 (1994)
  Li-Be, Na-Mg : Obtained from the ccRepo (grant-hill.group.shef.ac.uk/ccrepo) Feb. 2017
                 B. P. Prascher, D. E. Woon, K. A. Peterson, T. H. Dunning, Jr., A. K. Wilson, Theor. Chem. Acc. 128, 69 (2011)
         Al-Ar : Obtained from the ccRepo (grant-hill.group.shef.ac.uk/ccrepo) Feb. 2017
                 D. E. Woon, T. H. Dunning, Jr., J. Chem. Phys. 98, 1358 (1993)
            Ca : Obtained from the Peterson Research Group Website (tyr0.chem.wsu.edu/~kipeters) Feb. 2017
                 J. Koput, K. A. Peterson, J. Phys. Chem. 106, 9595 (2002)
         Sc-Zn : Obtained from the ccRepo (grant-hill.group.shef.ac.uk/ccrepo) Feb. 2017
                 N. B. Balabanov, K. A. Peterson, J. Chem. Phys. 123, 064107 (2005)
                 N. B. Balabanov, K. A. Peterson, J. Chem. Phys. 125, 074110 (2006)
         Ga-Kr : Obtained from the ccRepo (grant-hill.group.shef.ac.uk/ccrepo) Feb. 2017
                 A. K. Wilson, D. E. Woon, K. A. Peterson, T. H. Dunning, Jr., J. Chem. Phys. 110, 7667 (1999)

----- AuxJ basis set information -----
Your calculation utilizes the auxiliary basis: def2/J
   F. Weigend, Phys. Chem. Chem. Phys. 8, 1057 (2006).

================================================================================
                                        WARNINGS
                       Please study these warnings very carefully!
================================================================================


WARNING: your system is open-shell and RHF/RKS was chosen
  ===> : WILL SWITCH to UHF/UKS


WARNING: Geometry Optimization
  ===> : Switching off AutoStart
         For restart on a previous wavefunction, please use MOREAD

INFO   : the flag for use of the SHARK integral package has been found!

================================================================================
                                       INPUT FILE
================================================================================
NAME = opt.inp
|  1> ! B3LYP cc-pVDZ OPT
|  2> %pal nprocs 16 end
|  3> *XYZFile 0 2 model.xyz
|  4> 
|  5>                          ****END OF INPUT****
================================================================================

                       *****************************
                       * Geometry Optimization Run *
                       *****************************

Geometry optimization settings:
Update method            Update   .... BFGS
Choice of coordinates    CoordSys .... Z-matrix Internals
Initial Hessian          InHess   .... Almoef's Model

Convergence Tolerances:
Energy Change            TolE     ....  5.0000e-06 Eh
Max. Gradient            TolMAXG  ....  3.0000e-04 Eh/bohr
RMS Gradient             TolRMSG  ....  1.0000e-04 Eh/bohr
Max. Displacement        TolMAXD  ....  4.0000e-03 bohr
RMS Displacement         TolRMSD  ....  2.0000e-03 bohr
Strict Convergence                ....  False
------------------------------------------------------------------------------
                        ORCA OPTIMIZATION COORDINATE SETUP
------------------------------------------------------------------------------

The optimization will be done in new redundant internal coordinates
Making redundant internal coordinates   ...  (new redundants) done
Evaluating the initial hessian          ...  (Almloef) done
Evaluating the coordinates              ...  done
Calculating the B-matrix                .... done
Calculating the G-matrix                .... done
Diagonalizing the G-matrix              .... done
Small eigenvalue found = 2.333e-03
Small eigenvalue found = 4.685e-03
Small eigenvalue found = 9.088e-03
Small eigenvalue found = 1.383e-02
Small eigenvalue found = 1.839e-02
Small eigenvalue found = 2.974e-02
The first mode is                       ....   84
The number of degrees of freedom        ....  111

    -----------------------------------------------------------------
                    Redundant Internal Coordinates


    -----------------------------------------------------------------
         Definition                    Initial Value    Approx d2E/dq
    -----------------------------------------------------------------
      1. B(C   1,C   0)                  1.2172         1.178656   
      2. B(C   3,C   1)                  1.4278         0.543741   
      3. B(C   4,C   3)                  1.4428         0.514683   
      4. B(C   5,C   4)                  1.4235         0.552535   
      5. B(C   6,C   5)                  1.3957         0.611833   
      6. B(C   6,C   2)                  1.4340         0.531533   
      7. B(C   7,C   6)                  1.4292         0.540935   
      8. B(C   8,C   7)                  1.3974         0.608073   
      9. B(C   8,C   3)                  1.4052         0.590812   
     10. B(H   9,C   5)                  1.0901         0.360008   
     11. B(H  10,C   8)                  1.0898         0.360398   
     12. B(C  11,C   4)                  1.4128         0.574574   
     13. B(H  12,C  11)                  1.0936         0.355345   
     14. B(C  13,C  11)                  1.4992         0.418315   
     15. B(H  14,C  13)                  1.1099         0.334678   
     16. B(H  15,C  13)                  1.1099         0.334653   
     17. B(C  16,C  13)                  1.5338         0.368386   
     18. B(H  17,C  16)                  1.1056         0.340021   
     19. B(H  18,C  16)                  1.1057         0.339976   
     20. B(C  19,C  16)                  1.5295         0.374248   
     21. B(H  20,C  19)                  1.1040         0.342109   
     22. B(H  21,C  19)                  1.1040         0.342108   
     23. B(C  22,C   7)                  1.5148         0.395031   
     24. B(H  23,C  22)                  1.1066         0.338833   
     25. B(H  24,C  22)                  1.1065         0.338942   
     26. B(C  25,C  22)                  1.5307         0.372570   
     27. B(H  26,C  25)                  1.1061         0.339419   
     28. B(H  27,C  25)                  1.1061         0.339476   
     29. B(C  28,C  25)                  1.5331         0.369353   
     30. B(H  29,C  28)                  1.1063         0.339204   
     31. B(H  30,C  28)                  1.1062         0.339244   
     32. B(C  31,C  28)                  1.5303         0.373217   
     33. B(H  32,C  31)                  1.1040         0.342076   
     34. B(H  33,C  31)                  1.1040         0.342061   
     35. B(C  34,C   2)                  1.2158         1.184821   
     36. B(H  35,C   0)                  1.0725         0.384019   
     37. B(H  36,C  34)                  1.0726         0.383859   
     38. B(H  37,C  19)                  1.1018         0.344856   
     39. B(H  38,C  31)                  1.1019         0.344635   
     40. L(C   1,C   0,H  35, 2)       180.3202         0.398687   
     41. L(C   1,C   0,H  35, 1)       180.3540         0.398687   
     42. L(C   0,C   1,C   3,C   8, 2) 179.6901         0.476390   
     43. L(C   0,C   1,C   3,C   8, 1) 179.0372         0.476390   
     44. L(C   6,C   2,C  34,C   5, 2) 179.8533         0.474859   
     45. L(C   6,C   2,C  34,C   5, 1) 179.8555         0.474859   
     46. A(C   1,C   3,C   4)          121.0549         0.410145   
     47. A(C   1,C   3,C   8)          118.8233         0.420330   
     48. A(C   4,C   3,C   8)          120.1218         0.416237   
     49. A(C   3,C   4,C   5)          116.4223         0.411313   
     50. A(C   5,C   4,C  11)          121.7838         0.419445   
     51. A(C   3,C   4,C  11)          121.7938         0.414179   
     52. A(C   4,C   5,H   9)          119.2367         0.346102   
     53. A(C   4,C   5,C   6)          122.6129         0.424177   
     54. A(C   6,C   5,H   9)          118.1504         0.352103   
     55. A(C   2,C   6,C   7)          120.4000         0.412116   
     56. A(C   5,C   6,C   7)          120.5295         0.422572   
     57. A(C   2,C   6,C   5)          119.0705         0.421250   
     58. A(C   6,C   7,C   8)          117.4210         0.422106   
     59. A(C   8,C   7,C  22)          122.8693         0.399231   
     60. A(C   6,C   7,C  22)          119.7097         0.391124   
     61. A(C   3,C   8,H  10)          117.4561         0.350093   
     62. A(C   7,C   8,H  10)          119.6515         0.351800   
     63. A(C   3,C   8,C   7)          122.8924         0.428823   
     64. A(H  12,C  11,C  13)          117.9036         0.329696   
     65. A(C   4,C  11,C  13)          124.8752         0.399273   
     66. A(C   4,C  11,H  12)          117.2212         0.347624   
     67. A(H  15,C  13,C  16)          109.1700         0.319716   
     68. A(H  14,C  13,C  16)          109.1529         0.319720   
     69. A(C  11,C  13,C  16)          113.5294         0.369577   
     70. A(H  14,C  13,H  15)          104.6262         0.284257   
     71. A(C  11,C  13,H  15)          110.0013         0.326450   
     72. A(C  11,C  13,H  14)          109.9769         0.326454   
     73. A(C  13,C  16,C  19)          113.0930         0.362596   
     74. A(H  17,C  16,H  18)          106.0457         0.285659   
     75. A(C  13,C  16,H  18)          108.9840         0.320542   
     76. A(C  13,C  16,H  17)          109.0012         0.320548   
     77. A(H  18,C  16,C  19)          109.7373         0.321370   
     78. A(H  17,C  16,C  19)          109.7323         0.321377   
     79. A(H  20,C  19,H  21)          107.3439         0.286210   
     80. A(C  16,C  19,H  21)          111.3091         0.321700   
     81. A(C  16,C  19,H  20)          111.3141         0.321700   
     82. A(H  21,C  19,H  37)          107.6188         0.286568   
     83. A(H  20,C  19,H  37)          107.6202         0.286568   
     84. A(C  16,C  19,H  37)          111.4297         0.322121   
     85. A(H  24,C  22,C  25)          109.2242         0.320974   
     86. A(H  23,C  22,C  25)          109.2386         0.320957   
     87. A(C   7,C  22,C  25)          116.8702         0.366672   
     88. A(H  23,C  22,H  24)          104.3305         0.285368   
     89. A(C   7,C  22,H  24)          108.2171         0.324068   
     90. A(C   7,C  22,H  23)          108.2276         0.324051   
     91. A(H  27,C  25,C  28)          109.0253         0.320602   
     92. A(H  26,C  25,C  28)          109.0423         0.320593   
     93. A(C  22,C  25,C  28)          112.6424         0.362480   
     94. A(H  26,C  25,H  27)          106.2170         0.285515   
     95. A(C  22,C  25,H  27)          109.8612         0.321057   
     96. A(C  22,C  25,H  26)          109.8429         0.321048   
     97. A(H  30,C  28,C  31)          109.5634         0.321112   
     98. A(H  29,C  28,C  31)          109.5687         0.321106   
     99. A(C  25,C  28,C  31)          113.1343         0.362587   
    100. A(H  29,C  28,H  30)          105.8747         0.285456   
    101. A(C  25,C  28,H  30)          109.2204         0.320566   
    102. A(C  25,C  28,H  29)          109.2212         0.320560   
    103. A(H  32,C  31,H  33)          107.3490         0.286200   
    104. A(C  28,C  31,H  33)          111.3067         0.321547   
    105. A(C  28,C  31,H  32)          111.3073         0.321549   
    106. A(H  33,C  31,H  38)          107.5846         0.286533   
    107. A(H  32,C  31,H  38)          107.5827         0.286535   
    108. A(C  28,C  31,H  38)          111.5012         0.321942   
    109. L(C   2,C  34,H  36, 2)       180.3306         0.399023   
    110. L(C   2,C  34,H  36, 1)       180.1392         0.399023   
    111. D(C   5,C   4,C   3,C   1)   -179.9219         0.018058   
    112. D(C   5,C   4,C   3,C   8)      0.0532         0.018058   
    113. D(C  11,C   4,C   3,C   8)   -179.9286         0.018058   
    114. D(C  11,C   4,C   3,C   1)      0.0962         0.018058   
    115. D(C   6,C   5,C   4,C  11)    179.9444         0.020892   
    116. D(H   9,C   5,C   4,C   3)    179.9808         0.020892   
    117. D(H   9,C   5,C   4,C  11)     -0.0374         0.020892   
    118. D(C   6,C   5,C   4,C   3)     -0.0375         0.020892   
    119. D(C   7,C   6,C   5,C   4)      0.0043         0.025862   
    120. D(C   2,C   6,C   5,C   4)   -179.9727         0.025862   
    121. D(C   2,C   6,C   5,H   9)      0.0093         0.025862   
    122. D(C   7,C   6,C   5,H   9)    179.9862         0.025862   
    123. D(C  22,C   7,C   6,C   2)     -0.0188         0.019996   
    124. D(C   8,C   7,C   6,C   2)    179.9906         0.019996   
    125. D(C  22,C   7,C   6,C   5)   -179.9954         0.019996   
    126. D(C   8,C   7,C   6,C   5)      0.0139         0.019996   
    127. D(H  10,C   8,C   7,C  22)     -0.0082         0.025528   
    128. D(C   3,C   8,C   7,C  22)   -179.9872         0.025528   
    129. D(H  10,C   8,C   3,C   4)    179.9827         0.024025   
    130. D(C   7,C   8,C   3,C   4)     -0.0378         0.024025   
    131. D(C   3,C   8,C   7,C   6)      0.0031         0.025528   
    132. D(H  10,C   8,C   7,C   6)    179.9822         0.025528   
    133. D(C   7,C   8,C   3,C   1)    179.9378         0.024025   
    134. D(H  10,C   8,C   3,C   1)     -0.0416         0.024025   
    135. D(C  13,C  11,C   4,C   5)     -0.0109         0.022662   
    136. D(C  13,C  11,C   4,C   3)    179.9700         0.022662   
    137. D(H  12,C  11,C   4,C   5)   -179.9850         0.022662   
    138. D(H  12,C  11,C   4,C   3)     -0.0041         0.022662   
    139. D(H  15,C  13,C  11,C   4)     57.2898         0.012943   
    140. D(H  14,C  13,C  11,H  12)    122.5402         0.012943   
    141. D(H  14,C  13,C  11,C   4)    -57.4338         0.012943   
    142. D(C  16,C  13,C  11,H  12)     -0.0778         0.012943   
    143. D(C  16,C  13,C  11,C   4)    179.9483         0.012943   
    144. D(H  15,C  13,C  11,H  12)   -122.7362         0.012943   
    145. D(C  19,C  16,C  13,C  11)   -179.9699         0.010854   
    146. D(C  19,C  16,C  13,H  14)     56.9586         0.010854   
    147. D(H  18,C  16,C  13,H  15)   -179.1930         0.010854   
    148. D(H  18,C  16,C  13,H  14)    -65.3804         0.010854   
    149. D(H  18,C  16,C  13,C  11)     57.6911         0.010854   
    150. D(H  17,C  16,C  13,H  15)     65.4910         0.010854   
    151. D(H  17,C  16,C  13,H  14)    179.3036         0.010854   
    152. D(C  19,C  16,C  13,H  15)    -56.8540         0.010854   
    153. D(H  17,C  16,C  13,C  11)    -57.6248         0.010854   
    154. D(H  37,C  19,C  16,H  18)    -58.0765         0.011182   
    155. D(H  37,C  19,C  16,H  17)     58.0699         0.011182   
    156. D(H  37,C  19,C  16,C  13)   -179.9940         0.011182   
    157. D(H  21,C  19,C  16,H  18)     62.0640         0.011182   
    158. D(H  21,C  19,C  16,H  17)    178.2105         0.011182   
    159. D(H  21,C  19,C  16,C  13)    -59.8535         0.011182   
    160. D(H  20,C  19,C  16,H  18)   -178.2223         0.011182   
    161. D(H  20,C  19,C  16,H  17)    -62.0758         0.011182   
    162. D(H  20,C  19,C  16,C  13)     59.8602         0.011182   
    163. D(C  25,C  22,C   7,C   8)     -0.2091         0.011595   
    164. D(C  25,C  22,C   7,C   6)    179.8008         0.011595   
    165. D(H  24,C  22,C   7,C   8)   -123.9439         0.011595   
    166. D(H  24,C  22,C   7,C   6)     56.0660         0.011595   
    167. D(H  23,C  22,C   7,C   8)    123.5536         0.011595   
    168. D(H  23,C  22,C   7,C   6)    -56.4365         0.011595   
    169. D(H  27,C  25,C  22,H  23)    -64.9519         0.011087   
    170. D(H  27,C  25,C  22,C   7)     58.2929         0.011087   
    171. D(H  26,C  25,C  22,H  24)     65.0218         0.011087   
    172. D(H  26,C  25,C  22,H  23)    178.5584         0.011087   
    173. D(H  26,C  25,C  22,C   7)    -58.1969         0.011087   
    174. D(C  28,C  25,C  22,H  24)    -56.7377         0.011087   
    175. D(C  28,C  25,C  22,H  23)     56.7989         0.011087   
    176. D(C  28,C  25,C  22,C   7)   -179.9564         0.011087   
    177. D(H  27,C  25,C  22,H  24)   -178.4885         0.011087   
    178. D(C  31,C  28,C  25,H  27)    -57.8470         0.010908   
    179. D(C  31,C  28,C  25,C  22)    179.9298         0.010908   
    180. D(H  30,C  28,C  25,H  27)    179.8377         0.010908   
    181. D(H  30,C  28,C  25,H  26)    -64.5976         0.010908   
    182. D(H  30,C  28,C  25,C  22)     57.6145         0.010908   
    183. D(H  29,C  28,C  25,H  27)     64.4758         0.010908   
    184. D(C  31,C  28,C  25,H  26)     57.7177         0.010908   
    185. D(H  29,C  28,C  25,H  26)   -179.9596         0.010908   
    186. D(H  29,C  28,C  25,C  22)    -57.7475         0.010908   
    187. D(H  38,C  31,C  28,H  30)    -57.9015         0.011124   
    188. D(H  38,C  31,C  28,H  29)     57.8462         0.011124   
    189. D(H  38,C  31,C  28,C  25)    179.9748         0.011124   
    190. D(H  33,C  31,C  28,H  30)     62.2425         0.011124   
    191. D(H  33,C  31,C  28,H  29)    177.9902         0.011124   
    192. D(H  33,C  31,C  28,C  25)    -59.8812         0.011124   
    193. D(H  32,C  31,C  28,H  30)   -178.0434         0.011124   
    194. D(H  32,C  31,C  28,H  29)    -62.2958         0.011124   
    195. D(H  32,C  31,C  28,C  25)     59.8328         0.011124   
    -----------------------------------------------------------------

Number of atoms                         .... 39
Number of degrees of freedom            .... 195

         *************************************************************
         *                GEOMETRY OPTIMIZATION CYCLE   1            *
         *************************************************************
---------------------------------
CARTESIAN COORDINATES (ANGSTROEM)
---------------------------------
  C      3.991511   -0.051354    0.061761
  C      2.775483   -0.000375    0.043916
  C     -2.905329    0.003409   -0.019251
  C      1.348208    0.035463    0.027039
  C      0.635275    1.289740    0.016328
  C     -0.785894    1.210426    0.001471
  C     -1.471436   -0.005307   -0.003499
  C     -0.755768   -1.242411    0.006457
  C      0.640064   -1.178273    0.021464
  H     -1.370423    2.130486   -0.006719
  H      1.222046   -2.099597    0.029704
  C      1.311352    2.530280    0.019986
  H      2.404598    2.504162    0.031406
  C      0.641667    3.871557    0.008845
  H     -0.020572    3.957390   -0.877730
  H     -0.041612    3.961980    0.878868
  C      1.626221    5.047629    0.017286
  H      2.276228    4.966554    0.907965
  H      2.295774    4.962474   -0.858453
  C      0.932591    6.410773    0.006552
  H      0.280469    6.536126    0.888444
  H      0.300292    6.532105   -0.890213
  C     -1.518605   -2.551097    0.000737
  H     -2.204257   -2.555865    0.869274
  H     -2.190332   -2.556088   -0.878503
  C     -0.687377   -3.836461    0.007269
  H     -0.016292   -3.854077   -0.871818
  H     -0.031038   -3.855000    0.897344
  C     -1.554960   -5.100430   -0.000339
  H     -2.228001   -5.085489    0.877518
  H     -2.214964   -5.083782   -0.887967
  C     -0.735037   -6.392483    0.004372
  H     -0.090218   -6.455138    0.898268
  H     -0.077834   -6.453758   -0.880570
  C     -4.120999    0.013860   -0.034176
  H      5.062546   -0.102884    0.083466
  H     -5.193380    0.029268   -0.049948
  H      1.664045    7.234693    0.012825
  H     -1.384275   -7.282850   -0.000814

----------------------------
CARTESIAN COORDINATES (A.U.)
----------------------------
  NO LB      ZA    FRAG     MASS         X           Y           Z
   0 C     6.0000    0    12.011    7.542862   -0.097045    0.116712
   1 C     6.0000    0    12.011    5.244903   -0.000709    0.082990
   2 C     6.0000    0    12.011   -5.490276    0.006442   -0.036380
   3 C     6.0000    0    12.011    2.547745    0.067015    0.051095
   4 C     6.0000    0    12.011    1.200495    2.437255    0.030855
   5 C     6.0000    0    12.011   -1.485124    2.287373    0.002780
   6 C     6.0000    0    12.011   -2.780611   -0.010029   -0.006612
   7 C     6.0000    0    12.011   -1.428195   -2.347817    0.012201
   8 C     6.0000    0    12.011    1.209545   -2.226614    0.040561
   9 H     1.0000    0     1.008   -2.589725    4.026035   -0.012697
  10 H     1.0000    0     1.008    2.309333   -3.967664    0.056132
  11 C     6.0000    0    12.011    2.478095    4.781536    0.037768
  12 H     1.0000    0     1.008    4.544032    4.732180    0.059349
  13 C     6.0000    0    12.011    1.212574    7.316182    0.016714
  14 H     1.0000    0     1.008   -0.038875    7.478384   -1.658670
  15 H     1.0000    0     1.008   -0.078636    7.487057    1.660821
  16 C     6.0000    0    12.011    3.073113    9.538637    0.032666
  17 H     1.0000    0     1.008    4.301447    9.385427    1.715806
  18 H     1.0000    0     1.008    4.338383    9.377716   -1.622241
  19 C     6.0000    0    12.011    1.762341   12.114606    0.012381
  20 H     1.0000    0     1.008    0.530010   12.351489    1.678916
  21 H     1.0000    0     1.008    0.567469   12.343890   -1.682258
  22 C     6.0000    0    12.011   -2.869748   -4.820875    0.001392
  23 H     1.0000    0     1.008   -4.165442   -4.829884    1.642690
  24 H     1.0000    0     1.008   -4.139128   -4.830306   -1.660130
  25 C     6.0000    0    12.011   -1.298954   -7.249861    0.013737
  26 H     1.0000    0     1.008   -0.030788   -7.283151   -1.647497
  27 H     1.0000    0     1.008   -0.058654   -7.284893    1.695734
  28 C     6.0000    0    12.011   -2.938449   -9.638415   -0.000640
  29 H     1.0000    0     1.008   -4.210312   -9.610181    1.658268
  30 H     1.0000    0     1.008   -4.185676   -9.606955   -1.678015
  31 C     6.0000    0    12.011   -1.389018  -12.080042    0.008262
  32 H     1.0000    0     1.008   -0.170487  -12.198443    1.697480
  33 H     1.0000    0     1.008   -0.147086  -12.195834   -1.664036
  34 C     6.0000    0    12.011   -7.787560    0.026192   -0.064584
  35 H     1.0000    0     1.008    9.566826   -0.194423    0.157728
  36 H     1.0000    0     1.008   -9.814066    0.055308   -0.094388
  37 H     1.0000    0     1.008    3.144588   13.671588    0.024236
  38 H     1.0000    0     1.008   -2.615901  -13.762592   -0.001538

--------------------------------
INTERNAL COORDINATES (ANGSTROEM)
--------------------------------
 C      0   0   0     0.000000000000     0.00000000     0.00000000
 C      1   0   0     1.217226758795     0.00000000     0.00000000
 C      2   1   0     5.681164335592   177.62908379     0.00000000
 C      2   1   3     1.427824271150   179.02420307     4.69851965
 C      4   2   1     1.442774975859   121.05486880   170.48329527
 C      5   4   2     1.423457112580   116.42231434   180.07807512
 C      6   5   4     1.395707439418   122.61292822   359.96254246
 C      7   6   5     1.429232938080   120.52951075     0.00000000
 C      8   7   6     1.397385211034   117.42100256     0.00000000
 H      6   5   4     1.090069902887   119.23668011   179.98077849
 H      9   8   7     1.089775105618   119.65148094   179.98215189
 C      5   4   2     1.412810568688   121.79384026     0.09622949
 H     12   5   4     1.093618154737   117.22123438     0.00000000
 C     12   5   4     1.499208166807   124.87518878   179.97001726
 H     14  12   5     1.109928950768   109.97687287   302.56621873
 H     14  12   5     1.109949438672   110.00126312    57.28980767
 C     14  12   5     1.533807642495   113.52937794   179.94826448
 H     17  14  12     1.105617870278   109.00124258   302.37515644
 H     17  14  12     1.105654078182   108.98395146    57.69111464
 C     17  14  12     1.529509591063   113.09299709   180.03011537
 H     20  17  14     1.103951696075   111.31412191    59.86022252
 H     20  17  14     1.103952090484   111.30907155   300.14652537
 C      8   7   6     1.514797791329   119.70971270   180.00458954
 H     23   8   7     1.106570447548   108.22757393   303.56345941
 H     23   8   7     1.106482953854   108.21707674    56.06599807
 C     23   8   7     1.530733130249   116.87020325   179.80076408
 H     26  23   8     1.106100474726   109.84292632   301.80314755
 H     26  23   8     1.106054355109   109.86123145    58.29287237
 C     26  23   8     1.533093534070   112.64236237   180.04364688
 H     29  26  23     1.106272696846   109.22115348   302.25247479
 H     29  26  23     1.106240271586   109.22044740    57.61446282
 C     29  26  23     1.530260591753   113.13428252   179.92975370
 H     32  29  26     1.103977449696   111.30727789    59.83280938
 H     32  29  26     1.103989320895   111.30668961   300.11877949
 C      3   2   1     1.215806806746   179.54082833   183.37936127
 H      1   2   4     1.072493957005   179.52314077   327.50395744
 H     35   3   7     1.072607590439   179.64135417   355.69176445
 H     20  17  14     1.101774809668   111.42972278   180.00599459
 H     32  29  26     1.101948563387   111.50117371   179.97476049

---------------------------
INTERNAL COORDINATES (A.U.)
---------------------------
 C      0   0   0     0.000000000000     0.00000000     0.00000000
 C      1   0   0     2.300225217002     0.00000000     0.00000000
 C      2   1   0    10.735844716069   177.62908379     0.00000000
 C      2   1   3     2.698196839840   179.02420307     4.69851965
 C      4   2   1     2.726449577248   121.05486880   170.48329527
 C      5   4   2     2.689944106159   116.42231434   180.07807512
 C      6   5   4     2.637504823576   122.61292822   359.96254246
 C      7   6   5     2.700858834552   120.52951075     0.00000000
 C      8   7   6     2.640675352446   117.42100256     0.00000000
 H      6   5   4     2.059933583286   119.23668011   179.98077849
 H      9   8   7     2.059376497183   119.65148094   179.98215189
 C      5   4   2     2.669825053930   121.79384026     0.09622949
 H     12   5   4     2.066638807538   117.22123438     0.00000000
 C     12   5   4     2.833092853003   124.87518878   179.97001726
 H     14  12   5     2.097461745063   109.97687287   302.56621873
 H     14  12   5     2.097500461590   110.00126312    57.28980767
 C     14  12   5     2.898476386430   113.52937794   179.94826448
 H     17  14  12     2.089314983594   109.00124258   302.37515644
 H     17  14  12     2.089383406617   108.98395146    57.69111464
 C     17  14  12     2.890354246315   113.09299709   180.03011537
 H     20  17  14     2.086166370661   111.31412191    59.86022252
 H     20  17  14     2.086167115984   111.30907155   300.14652537
 C      8   7   6     2.862552973880   119.70971270   180.00458954
 H     23   8   7     2.091115093756   108.22757393   303.56345941
 H     23   8   7     2.090949754636   108.21707674    56.06599807
 C     23   8   7     2.892666400290   116.87020325   179.80076408
 H     26  23   8     2.090226973833   109.84292632   301.80314755
 H     26  23   8     2.090139820386   109.86123145    58.29287237
 C     26  23   8     2.897126917079   112.64236237   180.04364688
 H     29  26  23     2.090552426474   109.22115348   302.25247479
 H     29  26  23     2.090491151612   109.22044740    57.61446282
 C     29  26  23     2.891773431945   113.13428252   179.92975370
 H     32  29  26     2.086215037951   111.30727789    59.83280938
 H     32  29  26     2.086237471264   111.30668961   300.11877949
 C      3   2   1     2.297541896507   179.54082833   183.37936127
 H      1   2   4     2.026719859025   179.52314077   327.50395744
 H     35   3   7     2.026934595095   179.64135417   355.69176445
 H     20  17  14     2.082052651526   111.42972278   180.00599459
 H     32  29  26     2.082380998470   111.50117371   179.97476049

---------------------
BASIS SET INFORMATION
---------------------
There are 2 groups of distinct atoms

 Group   1 Type C   : 17s4p1d contracted to 3s2p1d pattern {881/31/1}
 Group   2 Type H   : 4s1p contracted to 2s1p pattern {31/1}

Atom   0C    basis set group =>   1
Atom   1C    basis set group =>   1
Atom   2C    basis set group =>   1
Atom   3C    basis set group =>   1
Atom   4C    basis set group =>   1
Atom   5C    basis set group =>   1
Atom   6C    basis set group =>   1
Atom   7C    basis set group =>   1
Atom   8C    basis set group =>   1
Atom   9H    basis set group =>   2
Atom  10H    basis set group =>   2
Atom  11C    basis set group =>   1
Atom  12H    basis set group =>   2
Atom  13C    basis set group =>   1
Atom  14H    basis set group =>   2
Atom  15H    basis set group =>   2
Atom  16C    basis set group =>   1
Atom  17H    basis set group =>   2
Atom  18H    basis set group =>   2
Atom  19C    basis set group =>   1
Atom  20H    basis set group =>   2
Atom  21H    basis set group =>   2
Atom  22C    basis set group =>   1
Atom  23H    basis set group =>   2
Atom  24H    basis set group =>   2
Atom  25C    basis set group =>   1
Atom  26H    basis set group =>   2
Atom  27H    basis set group =>   2
Atom  28C    basis set group =>   1
Atom  29H    basis set group =>   2
Atom  30H    basis set group =>   2
Atom  31C    basis set group =>   1
Atom  32H    basis set group =>   2
Atom  33H    basis set group =>   2
Atom  34C    basis set group =>   1
Atom  35H    basis set group =>   2
Atom  36H    basis set group =>   2
Atom  37H    basis set group =>   2
Atom  38H    basis set group =>   2
---------------------------------
AUXILIARY/J BASIS SET INFORMATION
---------------------------------
There are 2 groups of distinct atoms

 Group   1 Type C   : 12s5p4d2f1g contracted to 6s4p3d1f1g pattern {711111/2111/211/2/1}
 Group   2 Type H   : 5s2p1d contracted to 3s1p1d pattern {311/2/1}

Atom   0C    basis set group =>   1
Atom   1C    basis set group =>   1
Atom   2C    basis set group =>   1
Atom   3C    basis set group =>   1
Atom   4C    basis set group =>   1
Atom   5C    basis set group =>   1
Atom   6C    basis set group =>   1
Atom   7C    basis set group =>   1
Atom   8C    basis set group =>   1
Atom   9H    basis set group =>   2
Atom  10H    basis set group =>   2
Atom  11C    basis set group =>   1
Atom  12H    basis set group =>   2
Atom  13C    basis set group =>   1
Atom  14H    basis set group =>   2
Atom  15H    basis set group =>   2
Atom  16C    basis set group =>   1
Atom  17H    basis set group =>   2
Atom  18H    basis set group =>   2
Atom  19C    basis set group =>   1
Atom  20H    basis set group =>   2
Atom  21H    basis set group =>   2
Atom  22C    basis set group =>   1
Atom  23H    basis set group =>   2
Atom  24H    basis set group =>   2
Atom  25C    basis set group =>   1
Atom  26H    basis set group =>   2
Atom  27H    basis set group =>   2
Atom  28C    basis set group =>   1
Atom  29H    basis set group =>   2
Atom  30H    basis set group =>   2
Atom  31C    basis set group =>   1
Atom  32H    basis set group =>   2
Atom  33H    basis set group =>   2
Atom  34C    basis set group =>   1
Atom  35H    basis set group =>   2
Atom  36H    basis set group =>   2
Atom  37H    basis set group =>   2
Atom  38H    basis set group =>   2


           ************************************************************
           *        Program running with 16 parallel MPI-processes    *
           *              working on a common directory               *
           ************************************************************
------------------------------------------------------------------------------
                           ORCA GTO INTEGRAL CALCULATION
                           -- RI-GTO INTEGRALS CHOSEN --
------------------------------------------------------------------------------
------------------------------------------------------------------------------
                   ___                                                        
                  /   \      - P O W E R E D   B Y -                         
                 /     \                                                     
                 |  |  |   _    _      __       _____    __    __             
                 |  |  |  | |  | |    /  \     |  _  \  |  |  /  |          
                  \  \/   | |  | |   /    \    | | | |  |  | /  /          
                 / \  \   | |__| |  /  /\  \   | |_| |  |  |/  /          
                |  |  |   |  __  | /  /__\  \  |    /   |      \           
                |  |  |   | |  | | |   __   |  |    \   |  |\   \          
                \     /   | |  | | |  |  |  |  | |\  \  |  | \   \       
                 \___/    |_|  |_| |__|  |__|  |_| \__\ |__|  \__/        
                                                                              
                      - O R C A' S   B I G   F R I E N D -                    
                                      &                                       
                       - I N T E G R A L  F E E D E R -                       
                                                                              
 v1 FN, 2020, v2 2021                                                         
------------------------------------------------------------------------------


Reading SHARK input file opt.SHARKINP.tmp ... ok
----------------------
SHARK INTEGRAL PACKAGE
----------------------

Number of atoms                             ...     39
Number of basis functions                   ...    465
Number of shells                            ...    279
Maximum angular momentum                    ...      2
Integral batch strategy                     ... SHARK/LIBINT Hybrid
RI-J (if used) integral strategy            ... SPLIT-RIJ (Revised 2003 algorithm where possible)
Printlevel                                  ...      1
Contraction scheme used                     ... PARTIAL GENERAL contraction
Coulomb Range Separation                    ... NOT USED
Exchange Range Separation                   ... NOT USED
Finite Nucleus Model                        ... NOT USED
Auxiliary Coulomb fitting basis             ... AVAILABLE
   # of basis functions in Aux-J            ...   1113
   # of shells in Aux-J                     ...    375
   Maximum angular momentum in Aux-J        ...      4
Auxiliary J/K fitting basis                 ... NOT available
Auxiliary Correlation fitting basis         ... NOT available
Auxiliary 'external' fitting basis          ... NOT available
Integral threshold                          ...     2.500000e-11
Primitive cut-off                           ...     2.500000e-12
Primitive pair pre-selection threshold      ...     2.500000e-12

Calculating pre-screening integrals         ... done (  0.0 sec) Dimension = 279
Calculating pre-screening integrals (ORCA)  ... done (  0.1 sec) Dimension = 171
Organizing shell pair data                  ... done (  0.1 sec)
Shell pair information
Total number of shell pairs                 ...     39060
Shell pairs after pre-screening             ...     19177
Total number of primitive shell pairs       ...     64020
Primitive shell pairs kept                  ...     26445
          la=0 lb=0:   8423 shell pairs
          la=1 lb=0:   6715 shell pairs
          la=1 lb=1:   1176 shell pairs
          la=2 lb=0:   2028 shell pairs
          la=2 lb=1:    712 shell pairs
          la=2 lb=2:    123 shell pairs

Calculating one electron integrals          ... done (  0.0 sec)
Calculating RI/J V-Matrix + Cholesky decomp.... done (  0.1 sec)
Calculating Nuclear repulsion               ... done (  0.0 sec) ENN=   1144.934544372215 Eh

SHARK setup successfully completed in   0.7 seconds

Maximum memory used throughout the entire GTOINT-calculation: 28.1 MB


           ************************************************************
           *        Program running with 16 parallel MPI-processes    *
           *              working on a common directory               *
           ************************************************************
-------------------------------------------------------------------------------
                                 ORCA SCF
-------------------------------------------------------------------------------

------------
SCF SETTINGS
------------
Hamiltonian:
 Density Functional     Method          .... DFT(GTOs)
 Exchange Functional    Exchange        .... B88
   X-Alpha parameter    XAlpha          ....  0.666667
   Becke's b parameter  XBeta           ....  0.004200
 Correlation Functional Correlation     .... LYP
 LDA part of GGA corr.  LDAOpt          .... VWN-5
 Gradients option       PostSCFGGA      .... off
 Hybrid DFT is turned on
   Fraction HF Exchange ScalHFX         ....  0.200000
   Scaling of DF-GGA-X  ScalDFX         ....  0.720000
   Scaling of DF-GGA-C  ScalDFC         ....  0.810000
   Scaling of DF-LDA-C  ScalLDAC        ....  1.000000
   Perturbative correction              ....  0.000000
   Density functional embedding theory  .... OFF
   NL short-range parameter             ....  4.800000
 RI-approximation to the Coulomb term is turned on
   Number of AuxJ basis functions       .... 1113
   RIJ-COSX (HFX calculated with COS-X)).... on


General Settings:
 Integral files         IntName         .... opt
 Hartree-Fock type      HFTyp           .... UHF
 Total Charge           Charge          ....    0
 Multiplicity           Mult            ....    2
 Number of Electrons    NEL             ....  129
 Basis Dimension        Dim             ....  357
 Nuclear Repulsion      ENuc            ....   1144.9345443722 Eh

Convergence Acceleration:
 DIIS                   CNVDIIS         .... on
   Start iteration      DIISMaxIt       ....    12
   Startup error        DIISStart       ....  0.200000
   # of expansion vecs  DIISMaxEq       ....     5
   Bias factor          DIISBfac        ....   1.050
   Max. coefficient     DIISMaxC        ....  10.000
 Trust-Rad. Augm. Hess. CNVTRAH         .... auto
   Auto Start mean grad. ratio tolernc. ....  1.125000
   Auto Start start iteration           ....    20
   Auto Start num. interpolation iter.  ....    10
   Max. Number of Micro iterations      ....    16
   Max. Number of Macro iterations      .... Maxiter - #DIIS iter
   Number of Davidson start vectors     ....     2
   Converg. threshold I  (grad. norm)   ....   1.000e-05
   Converg. threshold II (energy diff.) ....   1.000e-08
   Grad. Scal. Fac. for Micro threshold ....   0.100
   Minimum threshold for Micro iter.    ....   0.010
   NR start threshold (gradient norm)   ....   0.001
   Initial trust radius                 ....   0.400
   Minimum AH scaling param. (alpha)    ....   1.000
   Maximum AH scaling param. (alpha)    .... 1000.000
   Orbital update algorithm             .... Taylor
   White noise on init. David. guess    .... on
   Maximum white noise                  ....   0.010
   Quad. conv. algorithm                .... NR
 SOSCF                  CNVSOSCF        .... off
 Level Shifting         CNVShift        .... on
   Level shift para.    LevelShift      ....    0.2500
   Turn off err/grad.   ShiftErr        ....    0.0010
 Zerner damping         CNVZerner       .... off
 Static damping         CNVDamp         .... on
   Fraction old density DampFac         ....    0.7000
   Max. Damping (<1)    DampMax         ....    0.9800
   Min. Damping (>=0)   DampMin         ....    0.0000
   Turn off err/grad.   DampErr         ....    0.1000
 Fernandez-Rico         CNVRico         .... off

SCF Procedure:
 Maximum # iterations   MaxIter         ....   125
 SCF integral mode      SCFMode         .... Direct
   Integral package                     .... SHARK and LIBINT hybrid scheme
 Reset frequency        DirectResetFreq ....    20
 Integral Threshold     Thresh          ....  2.500e-11 Eh
 Primitive CutOff       TCut            ....  2.500e-12 Eh

Convergence Tolerance:
 Convergence Check Mode ConvCheckMode   .... Total+1el-Energy
 Convergence forced     ConvForced      .... 0
 Energy Change          TolE            ....  1.000e-08 Eh
 1-El. energy change                    ....  1.000e-05 Eh
 DIIS Error             TolErr          ....  5.000e-07


Diagonalization of the overlap matrix:
Smallest eigenvalue                        ... 1.275e-04
Time for diagonalization                   ...    0.032 sec
Threshold for overlap eigenvalues          ... 1.000e-08
Number of eigenvalues below threshold      ... 0
Time for construction of square roots      ...    0.046 sec
Total time needed                          ...    0.079 sec

Time for model grid setup =    0.223 sec

------------------------------
INITIAL GUESS: MODEL POTENTIAL
------------------------------
Loading Hartree-Fock densities                     ... done
Calculating cut-offs                               ... done
Initializing the effective Hamiltonian             ... done
Setting up the integral package (SHARK)            ... done
Starting the Coulomb interaction                   ... done (   0.2 sec)
Reading the grid                                   ... done
Mapping shells                                     ... done
Starting the XC term evaluation                    ... done (   0.1 sec)
  promolecular density results
     # of electrons  =    128.989848102
     EX              =    -98.637587935
     EC              =     -4.220025881
     EX+EC           =   -102.857613815
Transforming the Hamiltonian                       ... done (   0.0 sec)
Diagonalizing the Hamiltonian                      ... done (   0.0 sec)
Back transforming the eigenvectors                 ... done (   0.0 sec)
Now organizing SCF variables                       ... done
                      ------------------
                      INITIAL GUESS DONE (   0.7 sec)
                      ------------------
-------------------
DFT GRID GENERATION
-------------------

General Integration Accuracy     IntAcc      ... 4.388
Radial Grid Type                 RadialGrid  ... OptM3 with GC (2021)
Angular Grid (max. ang.)         AngularGrid ... 4 (Lebedev-302)
Angular grid pruning method      GridPruning ... 4 (adaptive)
Weight generation scheme         WeightScheme... Becke
Basis function cutoff            BFCut       ... 1.0000e-11
Integration weight cutoff        WCut        ... 1.0000e-14
Angular grids for H and He will be reduced by one unit
Partially contracted basis set               ... off
Rotationally invariant grid construction     ... off

Total number of grid points                  ...   174677
Total number of batches                      ...     2747
Average number of points per batch           ...       63
Average number of grid points per atom       ...     4479
Time for grid setup =    0.918 sec

--------------------
COSX GRID GENERATION
--------------------

GRIDX 1
-------
General Integration Accuracy     IntAcc      ... 3.816
Radial Grid Type                 RadialGrid  ... OptM3 with GC (2021)
Angular Grid (max. ang.)         AngularGrid ... 1 (Lebedev-50)
Angular grid pruning method      GridPruning ... 4 (adaptive)
Weight generation scheme         WeightScheme... Becke
Basis function cutoff            BFCut       ... 1.0000e-11
Integration weight cutoff        WCut        ... 1.0000e-14
Angular grids for H and He will be reduced by one unit
Partially contracted basis set               ... on
Rotationally invariant grid construction     ... off

Total number of grid points                  ...    22267
Total number of batches                      ...      371
Average number of points per batch           ...       60
Average number of grid points per atom       ...      571
UseSFitting                                  ... on

GRIDX 2
-------
General Integration Accuracy     IntAcc      ... 4.020
Radial Grid Type                 RadialGrid  ... OptM3 with GC (2021)
Angular Grid (max. ang.)         AngularGrid ... 2 (Lebedev-110)
Angular grid pruning method      GridPruning ... 4 (adaptive)
Weight generation scheme         WeightScheme... Becke
Basis function cutoff            BFCut       ... 1.0000e-11
Integration weight cutoff        WCut        ... 1.0000e-14
Angular grids for H and He will be reduced by one unit
Partially contracted basis set               ... on
Rotationally invariant grid construction     ... off

Total number of grid points                  ...    47313
Total number of batches                      ...      761
Average number of points per batch           ...       62
Average number of grid points per atom       ...     1213
UseSFitting                                  ... on

GRIDX 3
-------
General Integration Accuracy     IntAcc      ... 4.338
Radial Grid Type                 RadialGrid  ... OptM3 with GC (2021)
Angular Grid (max. ang.)         AngularGrid ... 3 (Lebedev-194)
Angular grid pruning method      GridPruning ... 4 (adaptive)
Weight generation scheme         WeightScheme... Becke
Basis function cutoff            BFCut       ... 1.0000e-11
Integration weight cutoff        WCut        ... 1.0000e-14
Angular grids for H and He will be reduced by one unit
Partially contracted basis set               ... on
Rotationally invariant grid construction     ... off

Total number of grid points                  ...   103514
Total number of batches                      ...     1637
Average number of points per batch           ...       63
Average number of grid points per atom       ...     2654
UseSFitting                                  ... on

Time for X-Grid setup             =    1.722 sec

 re-compute Schwartz prescreening matrix in partically contracted basis (1) ...done (   0.100 sec)
--------------
SCF ITERATIONS
--------------
ITER       Energy         Delta-E        Max-DP      RMS-DP      [F,P]     Damp
               ***  Starting incremental Fock matrix formation  ***
  0   -697.5237401077   0.000000000000 0.06838878  0.00102766  0.0869589 0.7000
  1   -697.7194568011  -0.195716693421 0.05038018  0.00075457  0.0457981 0.7000
                               ***Turning on DIIS***
  2   -697.8077046825  -0.088247881421 0.09895312  0.00145232  0.0175377 0.0000
  3   -697.9318875097  -0.124182827118 0.02002756  0.00037816  0.0249264 0.0000
  4   -697.9646927229  -0.032805213196 0.00884608  0.00013518  0.0060650 0.0000
  5   -697.9667590274  -0.002066304585 0.00417353  0.00004361  0.0029237 0.0000
  6   -697.9670756860  -0.000316658506 0.00321929  0.00002626  0.0020742 0.0000
  7   -697.9671988157  -0.000123129760 0.00187839  0.00001742  0.0013444 0.0000
  8   -697.9672610487  -0.000062232996 0.00301809  0.00003094  0.0008745 0.0000
               *** Restarting incremental Fock matrix formation ***
                                   *** Resetting DIIS ***
  9   -697.9675947166  -0.000333667937 0.00099718  0.00001431  0.0005671 0.0000
 10   -697.9675932478   0.000001468877 0.00040559  0.00000437  0.0012052 0.0000
 11   -697.9676030928  -0.000009845036 0.00043511  0.00000441  0.0003931 0.0000
 12   -697.9676059540  -0.000002861167 0.00062847  0.00000567  0.0001441 0.0000
 13   -697.9676077039  -0.000001749962 0.00017012  0.00000176  0.0000841 0.0000
 14   -697.9676079277  -0.000000223776 0.00013210  0.00000126  0.0000577 0.0000
 15   -697.9676080230  -0.000000095275 0.00005138  0.00000043  0.0000597 0.0000
 16   -697.9676080498  -0.000000026860 0.00003084  0.00000037  0.0000299 0.0000
 17   -697.9676080487   0.000000001147 0.00001505  0.00000016  0.0000104 0.0000
 18   -697.9676080717  -0.000000023019 0.00001122  0.00000013  0.0000087 0.0000
 19   -697.9676080648   0.000000006899 0.00000431  0.00000005  0.0000046 0.0000
 20   -697.9676080541   0.000000010708 0.00000564  0.00000005  0.0000016 0.0000
 21   -697.9676080642  -0.000000010061 0.00000307  0.00000003  0.0000012 0.0000
 22   -697.9676080667  -0.000000002510 0.00000323  0.00000003  0.0000015 0.0000
                            ***DIIS convergence achieved***

               *****************************************************
               *                     SUCCESS                       *
               *           SCF CONVERGED AFTER  23 CYCLES          *
               *****************************************************

Old exchange energy                            =    -20.130410489 Eh
New exchange energy                            =    -20.130511706 Eh
Exchange energy change after final integration =     -0.000101217 Eh
Total energy after final integration           =   -697.967709289 Eh
Final COS-X integration done in                =     4.624 sec

----------------
TOTAL SCF ENERGY
----------------

Total Energy       :         -697.96770929 Eh          -18992.66694 eV

Components:
Nuclear Repulsion  :         1144.93454437 Eh           31155.25285 eV
Electronic Energy  :        -1842.90225366 Eh          -50147.91979 eV
One Electron Energy:        -3212.98377911 Eh          -87429.73347 eV
Two Electron Energy:         1370.08152545 Eh           37281.81368 eV
Max COSX asymmetry :            0.00000051 Eh               0.00001 eV

Virial components:
Potential Energy   :        -1390.99660225 Eh          -37850.94185 eV
Kinetic Energy     :          693.02889296 Eh           18858.27491 eV
Virial Ratio       :            2.00712642


DFT components:
N(Alpha)           :       65.000137022076 electrons
N(Beta)            :       64.000127460140 electrons
N(Total)           :      129.000264482216 electrons
E(X)               :      -79.825546344084 Eh       
E(C)               :       -4.989808033373 Eh       
E(XC)              :      -84.815354377456 Eh       
DFET-embed. en.    :        0.000000000000 Eh       

---------------
SCF CONVERGENCE
---------------

  Last Energy change         ...   -5.0171e-09  Tolerance :   1.0000e-08
  Last MAX-Density change    ...    0.0000e+00  Tolerance :   1.0000e-07
  Last RMS-Density change    ...    0.0000e+00  Tolerance :   5.0000e-09
  Last DIIS Error            ...    8.7748e-07  Tolerance :   5.0000e-07

             **** THE GBW FILE WAS UPDATED (opt.gbw) ****
             **** DENSITY opt.scfp WAS UPDATED ****
             **** ENERGY FILE WAS UPDATED (opt.en.tmp) ****
----------------------
UHF SPIN CONTAMINATION
----------------------

Warning: in a DFT calculation there is little theoretical justification to 
         calculate <S**2> as in Hartree-Fock theory. We will do it anyways
         but you should keep in mind that the values have only limited relevance

Expectation value of <S**2>     :     0.786004
Ideal value S*(S+1) for S=0.5   :     0.750000
Deviation                       :     0.036004

             **** THE GBW FILE WAS UPDATED (opt.gbw) ****
             **** DENSITY opt.scfp WAS UPDATED ****
----------------
ORBITAL ENERGIES
----------------
                 SPIN UP ORBITALS
  NO   OCC          E(Eh)            E(eV) 
   0   1.0000     -10.215428      -277.9759 
   1   1.0000     -10.213436      -277.9217 
   2   1.0000     -10.204209      -277.6707 
   3   1.0000     -10.200062      -277.5578 
   4   1.0000     -10.196604      -277.4637 
   5   1.0000     -10.193613      -277.3823 
   6   1.0000     -10.192784      -277.3598 
   7   1.0000     -10.191756      -277.3318 
   8   1.0000     -10.190860      -277.3074 
   9   1.0000     -10.188908      -277.2543 
  10   1.0000     -10.187531      -277.2168 
  11   1.0000     -10.187364      -277.2123 
  12   1.0000     -10.186672      -277.1934 
  13   1.0000     -10.184340      -277.1300 
  14   1.0000     -10.182212      -277.0721 
  15   1.0000     -10.181896      -277.0635 
  16   1.0000     -10.177409      -276.9414 
  17   1.0000     -10.175645      -276.8934 
  18   1.0000      -0.875638       -23.8273 
  19   1.0000      -0.821129       -22.3441 
  20   1.0000      -0.798463       -21.7273 
  21   1.0000      -0.796432       -21.6720 
  22   1.0000      -0.769090       -20.9280 
  23   1.0000      -0.752771       -20.4839 
  24   1.0000      -0.731757       -19.9121 
  25   1.0000      -0.721396       -19.6302 
  26   1.0000      -0.698766       -19.0144 
  27   1.0000      -0.657543       -17.8927 
  28   1.0000      -0.640111       -17.4183 
  29   1.0000      -0.617961       -16.8156 
  30   1.0000      -0.594629       -16.1807 
  31   1.0000      -0.580758       -15.8032 
  32   1.0000      -0.563229       -15.3262 
  33   1.0000      -0.542200       -14.7540 
  34   1.0000      -0.524566       -14.2742 
  35   1.0000      -0.499430       -13.5902 
  36   1.0000      -0.486854       -13.2480 
  37   1.0000      -0.478530       -13.0215 
  38   1.0000      -0.471031       -12.8174 
  39   1.0000      -0.462858       -12.5950 
  40   1.0000      -0.434236       -11.8162 
  41   1.0000      -0.430661       -11.7189 
  42   1.0000      -0.426794       -11.6137 
  43   1.0000      -0.422379       -11.4935 
  44   1.0000      -0.412587       -11.2271 
  45   1.0000      -0.399051       -10.8587 
  46   1.0000      -0.398522       -10.8443 
  47   1.0000      -0.381025       -10.3682 
  48   1.0000      -0.379756       -10.3337 
  49   1.0000      -0.365980        -9.9588 
  50   1.0000      -0.358165        -9.7462 
  51   1.0000      -0.354857        -9.6561 
  52   1.0000      -0.341095        -9.2817 
  53   1.0000      -0.333283        -9.0691 
  54   1.0000      -0.331633        -9.0242 
  55   1.0000      -0.331019        -9.0075 
  56   1.0000      -0.328135        -8.9290 
  57   1.0000      -0.325092        -8.8462 
  58   1.0000      -0.321355        -8.7445 
  59   1.0000      -0.285594        -7.7714 
  60   1.0000      -0.276499        -7.5239 
  61   1.0000      -0.274878        -7.4798 
  62   1.0000      -0.271291        -7.3822 
  63   1.0000      -0.231126        -6.2893 
  64   1.0000      -0.174679        -4.7533 
  65   0.0000      -0.048346        -1.3156 
  66   0.0000       0.010902         0.2966 
  67   0.0000       0.040507         1.1022 
  68   0.0000       0.049399         1.3442 
  69   0.0000       0.052824         1.4374 
  70   0.0000       0.062544         1.7019 
  71   0.0000       0.063594         1.7305 
  72   0.0000       0.082166         2.2358 
  73   0.0000       0.085602         2.3294 
  74   0.0000       0.088618         2.4114 
  75   0.0000       0.091088         2.4786 
  76   0.0000       0.094506         2.5716 
  77   0.0000       0.095656         2.6029 
  78   0.0000       0.100794         2.7427 
  79   0.0000       0.102703         2.7947 
  80   0.0000       0.117991         3.2107 
  81   0.0000       0.125565         3.4168 
  82   0.0000       0.129858         3.5336 
  83   0.0000       0.144507         3.9322 
  84   0.0000       0.146774         3.9939 
  85   0.0000       0.151304         4.1172 
  86   0.0000       0.159918         4.3516 
  87   0.0000       0.160067         4.3556 
  88   0.0000       0.161879         4.4050 
  89   0.0000       0.168431         4.5832 
  90   0.0000       0.170304         4.6342 
  91   0.0000       0.178569         4.8591 
  92   0.0000       0.195868         5.3299 
  93   0.0000       0.204156         5.5554 
  94   0.0000       0.212173         5.7735 
  95   0.0000       0.217247         5.9116 
  96   0.0000       0.222641         6.0584 
  97   0.0000       0.242921         6.6102 
  98   0.0000       0.248381         6.7588 
  99   0.0000       0.260826         7.0974 
 100   0.0000       0.268462         7.3052 
 101   0.0000       0.290739         7.9114 
 102   0.0000       0.308342         8.3904 
 103   0.0000       0.323260         8.7963 
 104   0.0000       0.327181         8.9031 
 105   0.0000       0.348770         9.4905 
 106   0.0000       0.361079         9.8255 
 107   0.0000       0.366059         9.9610 
 108   0.0000       0.390482        10.6255 
 109   0.0000       0.409439        11.1414 
 110   0.0000       0.411458        11.1963 
 111   0.0000       0.412976        11.2377 
 112   0.0000       0.419185        11.4066 
 113   0.0000       0.423938        11.5359 
 114   0.0000       0.435778        11.8581 
 115   0.0000       0.439908        11.9705 
 116   0.0000       0.442308        12.0358 
 117   0.0000       0.461365        12.5544 
 118   0.0000       0.463113        12.6020 
 119   0.0000       0.470770        12.8103 
 120   0.0000       0.476326        12.9615 
 121   0.0000       0.478778        13.0282 
 122   0.0000       0.487725        13.2717 
 123   0.0000       0.502655        13.6779 
 124   0.0000       0.503766        13.7082 
 125   0.0000       0.505328        13.7507 
 126   0.0000       0.515981        14.0406 
 127   0.0000       0.522573        14.2199 
 128   0.0000       0.528361        14.3774 
 129   0.0000       0.540918        14.7191 
 130   0.0000       0.543255        14.7827 
 131   0.0000       0.551507        15.0073 
 132   0.0000       0.558121        15.1873 
 133   0.0000       0.560154        15.2426 
 134   0.0000       0.587154        15.9773 
 135   0.0000       0.588526        16.0146 
 136   0.0000       0.596351        16.2275 
 137   0.0000       0.604219        16.4416 
 138   0.0000       0.605524        16.4771 
 139   0.0000       0.607667        16.5355 
 140   0.0000       0.618553        16.8317 
 141   0.0000       0.623999        16.9799 
 142   0.0000       0.638899        17.3853 
 143   0.0000       0.641650        17.4602 
 144   0.0000       0.643700        17.5160 
 145   0.0000       0.644687        17.5428 
 146   0.0000       0.651693        17.7335 
 147   0.0000       0.654582        17.8121 
 148   0.0000       0.656467        17.8634 
 149   0.0000       0.659431        17.9440 
 150   0.0000       0.661749        18.0071 
 151   0.0000       0.662576        18.0296 
 152   0.0000       0.667872        18.1737 
 153   0.0000       0.668142        18.1811 
 154   0.0000       0.680188        18.5089 
 155   0.0000       0.681502        18.5446 
 156   0.0000       0.687070        18.6961 
 157   0.0000       0.689965        18.7749 
 158   0.0000       0.691716        18.8225 
 159   0.0000       0.697684        18.9849 
 160   0.0000       0.707374        19.2486 
 161   0.0000       0.718859        19.5611 
 162   0.0000       0.719487        19.5782 
 163   0.0000       0.728793        19.8315 
 164   0.0000       0.733264        19.9531 
 165   0.0000       0.735386        20.0109 
 166   0.0000       0.738198        20.0874 
 167   0.0000       0.747105        20.3298 
 168   0.0000       0.756810        20.5939 
 169   0.0000       0.768666        20.9165 
 170   0.0000       0.773547        21.0493 
 171   0.0000       0.781017        21.2526 
 172   0.0000       0.801848        21.8194 
 173   0.0000       0.818740        22.2790 
 174   0.0000       0.832014        22.6402 
 175   0.0000       0.832898        22.6643 
 176   0.0000       0.840985        22.8844 
 177   0.0000       0.852747        23.2044 
 178   0.0000       0.872423        23.7398 
 179   0.0000       0.879205        23.9244 
 180   0.0000       0.884446        24.0670 
 181   0.0000       0.912898        24.8412 
 182   0.0000       0.929250        25.2862 
 183   0.0000       0.938547        25.5391 
 184   0.0000       0.951740        25.8981 
 185   0.0000       0.978885        26.6368 
 186   0.0000       0.984192        26.7812 
 187   0.0000       0.990635        26.9565 
 188   0.0000       0.996552        27.1175 
 189   0.0000       1.014153        27.5965 
 190   0.0000       1.037451        28.2305 
 191   0.0000       1.042208        28.3599 
 192   0.0000       1.048119        28.5208 
 193   0.0000       1.049367        28.5547 
 194   0.0000       1.053742        28.6738 
 195   0.0000       1.065276        28.9876 
 196   0.0000       1.080736        29.4083 
 197   0.0000       1.083935        29.4954 
 198   0.0000       1.099576        29.9210 
 199   0.0000       1.144113        31.1329 
 200   0.0000       1.156738        31.4764 
 201   0.0000       1.165573        31.7168 
 202   0.0000       1.192907        32.4606 
 203   0.0000       1.204211        32.7682 
 204   0.0000       1.207345        32.8535 
 205   0.0000       1.208693        32.8902 
 206   0.0000       1.215326        33.0707 
 207   0.0000       1.218193        33.1487 
 208   0.0000       1.222515        33.2663 
 209   0.0000       1.227674        33.4067 
 210   0.0000       1.235996        33.6332 
 211   0.0000       1.257513        34.2187 
 212   0.0000       1.282713        34.9044 
 213   0.0000       1.288245        35.0549 
 214   0.0000       1.303807        35.4784 
 215   0.0000       1.308174        35.5972 
 216   0.0000       1.318181        35.8695 
 217   0.0000       1.327641        36.1270 
 218   0.0000       1.335410        36.3384 
 219   0.0000       1.345804        36.6212 
 220   0.0000       1.347491        36.6671 
 221   0.0000       1.372337        37.3432 
 222   0.0000       1.383833        37.6560 
 223   0.0000       1.388395        37.7801 
 224   0.0000       1.399291        38.0766 
 225   0.0000       1.409123        38.3442 
 226   0.0000       1.417373        38.5687 
 227   0.0000       1.424995        38.7761 
 228   0.0000       1.426538        38.8181 
 229   0.0000       1.428638        38.8752 
 230   0.0000       1.445929        39.3457 
 231   0.0000       1.452283        39.5186 
 232   0.0000       1.462407        39.7941 
 233   0.0000       1.468919        39.9713 
 234   0.0000       1.471374        40.0381 
 235   0.0000       1.483837        40.3773 
 236   0.0000       1.494251        40.6606 
 237   0.0000       1.520247        41.3680 
 238   0.0000       1.532304        41.6961 
 239   0.0000       1.537071        41.8258 
 240   0.0000       1.557037        42.3691 
 241   0.0000       1.558743        42.4156 
 242   0.0000       1.582974        43.0749 
 243   0.0000       1.585478        43.1430 
 244   0.0000       1.586371        43.1674 
 245   0.0000       1.601007        43.5656 
 246   0.0000       1.616692        43.9924 
 247   0.0000       1.622348        44.1463 
 248   0.0000       1.627986        44.2997 
 249   0.0000       1.629907        44.3520 
 250   0.0000       1.632969        44.4354 
 251   0.0000       1.639831        44.6221 
 252   0.0000       1.645672        44.7810 
 253   0.0000       1.651194        44.9313 
 254   0.0000       1.651557        44.9411 
 255   0.0000       1.660627        45.1879 
 256   0.0000       1.668785        45.4099 
 257   0.0000       1.671682        45.4888 
 258   0.0000       1.675723        45.5987 
 259   0.0000       1.685911        45.8760 
 260   0.0000       1.686095        45.8810 
 261   0.0000       1.694626        46.1131 
 262   0.0000       1.699052        46.2336 
 263   0.0000       1.702236        46.3202 
 264   0.0000       1.704068        46.3700 
 265   0.0000       1.710779        46.5527 
 266   0.0000       1.716738        46.7148 
 267   0.0000       1.725347        46.9491 
 268   0.0000       1.741682        47.3936 
 269   0.0000       1.751894        47.6715 
 270   0.0000       1.756155        47.7874 
 271   0.0000       1.762273        47.9539 
 272   0.0000       1.780298        48.4444 
 273   0.0000       1.783091        48.5204 
 274   0.0000       1.790165        48.7129 
 275   0.0000       1.796255        48.8786 
 276   0.0000       1.802427        49.0465 
 277   0.0000       1.814129        49.3650 
 278   0.0000       1.819540        49.5122 
 279   0.0000       1.822351        49.5887 
 280   0.0000       1.830322        49.8056 
 281   0.0000       1.857257        50.5385 
 282   0.0000       1.869854        50.8813 
 283   0.0000       1.879715        51.1497 
 284   0.0000       1.889196        51.4076 
 285   0.0000       1.897049        51.6213 
 286   0.0000       1.911873        52.0247 
 287   0.0000       1.915209        52.1155 
 288   0.0000       1.922164        52.3047 
 289   0.0000       1.929528        52.5051 
 290   0.0000       1.953161        53.1482 
 291   0.0000       1.975817        53.7647 
 292   0.0000       1.992176        54.2099 
 293   0.0000       1.996325        54.3228 
 294   0.0000       2.011951        54.7480 
 295   0.0000       2.024478        55.0888 
 296   0.0000       2.044573        55.6357 
 297   0.0000       2.050875        55.8071 
 298   0.0000       2.068025        56.2738 
 299   0.0000       2.075009        56.4639 
 300   0.0000       2.077037        56.5190 
 301   0.0000       2.086110        56.7659 
 302   0.0000       2.111666        57.4613 
 303   0.0000       2.126329        57.8604 
 304   0.0000       2.127910        57.9034 
 305   0.0000       2.128968        57.9322 
 306   0.0000       2.151888        58.5559 
 307   0.0000       2.155680        58.6590 
 308   0.0000       2.188892        59.5628 
 309   0.0000       2.198955        59.8366 
 310   0.0000       2.209728        60.1298 
 311   0.0000       2.212351        60.2011 
 312   0.0000       2.218541        60.3696 
 313   0.0000       2.227055        60.6012 
 314   0.0000       2.253329        61.3162 
 315   0.0000       2.260533        61.5122 
 316   0.0000       2.280657        62.0598 
 317   0.0000       2.291367        62.3513 
 318   0.0000       2.296580        62.4931 
 319   0.0000       2.301596        62.6296 
 320   0.0000       2.319450        63.1154 
 321   0.0000       2.326541        63.3084 
 322   0.0000       2.329442        63.3873 
 323   0.0000       2.334659        63.5293 
 324   0.0000       2.374928        64.6251 
 325   0.0000       2.382735        64.8375 
 326   0.0000       2.407093        65.5003 
 327   0.0000       2.410662        65.5974 
 328   0.0000       2.411760        65.6273 
 329   0.0000       2.412805        65.6558 
 330   0.0000       2.421981        65.9055 
 331   0.0000       2.424166        65.9649 
 332   0.0000       2.440497        66.4093 
 333   0.0000       2.484072        67.5950 
 334   0.0000       2.498574        67.9897 
 335   0.0000       2.502052        68.0843 
 336   0.0000       2.535150        68.9849 
 337   0.0000       2.545339        69.2622 
 338   0.0000       2.558327        69.6156 
 339   0.0000       2.592599        70.5482 
 340   0.0000       2.601325        70.7857 
 341   0.0000       2.625566        71.4453 
 342   0.0000       2.641758        71.8859 
 343   0.0000       2.661116        72.4127 
 344   0.0000       2.680257        72.9335 
 345   0.0000       2.713378        73.8348 
 346   0.0000       2.722000        74.0694 
 347   0.0000       2.754013        74.9405 
 348   0.0000       2.776645        75.5564 
 349   0.0000       2.822928        76.8158 
 350   0.0000       2.845088        77.4188 
 351   0.0000       2.871028        78.1246 
 352   0.0000       2.927889        79.6719 
 353   0.0000       3.006953        81.8234 
 354   0.0000       3.190824        86.8267 
 355   0.0000       3.202233        87.1372 
 356   0.0000       3.396185        92.4149 

                 SPIN DOWN ORBITALS
  NO   OCC          E(Eh)            E(eV) 
   0   1.0000     -10.215070      -277.9662 
   1   1.0000     -10.211996      -277.8825 
   2   1.0000     -10.202516      -277.6246 
   3   1.0000     -10.200740      -277.5762 
   4   1.0000     -10.193508      -277.3794 
   5   1.0000     -10.193363      -277.3755 
   6   1.0000     -10.192390      -277.3490 
   7   1.0000     -10.191636      -277.3285 
   8   1.0000     -10.189589      -277.2728 
   9   1.0000     -10.187991      -277.2293 
  10   1.0000     -10.187736      -277.2224 
  11   1.0000     -10.185378      -277.1582 
  12   1.0000     -10.184301      -277.1289 
  13   1.0000     -10.183598      -277.1098 
  14   1.0000     -10.182209      -277.0720 
  15   1.0000     -10.181896      -277.0635 
  16   1.0000     -10.177417      -276.9416 
  17   1.0000     -10.175647      -276.8934 
  18   1.0000      -0.872209       -23.7340 
  19   1.0000      -0.816056       -22.2060 
  20   1.0000      -0.795826       -21.6555 
  21   1.0000      -0.795043       -21.6342 
  22   1.0000      -0.767040       -20.8722 
  23   1.0000      -0.751902       -20.4603 
  24   1.0000      -0.727648       -19.8003 
  25   1.0000      -0.719933       -19.5904 
  26   1.0000      -0.696396       -18.9499 
  27   1.0000      -0.654471       -17.8091 
  28   1.0000      -0.638236       -17.3673 
  29   1.0000      -0.612373       -16.6635 
  30   1.0000      -0.593666       -16.1545 
  31   1.0000      -0.579181       -15.7603 
  32   1.0000      -0.560706       -15.2576 
  33   1.0000      -0.540908       -14.7188 
  34   1.0000      -0.522020       -14.2049 
  35   1.0000      -0.497238       -13.5305 
  36   1.0000      -0.485412       -13.2087 
  37   1.0000      -0.477152       -12.9840 
  38   1.0000      -0.470154       -12.7935 
  39   1.0000      -0.459346       -12.4994 
  40   1.0000      -0.432177       -11.7601 
  41   1.0000      -0.429182       -11.6786 
  42   1.0000      -0.425557       -11.5800 
  43   1.0000      -0.419663       -11.4196 
  44   1.0000      -0.412106       -11.2140 
  45   1.0000      -0.397418       -10.8143 
  46   1.0000      -0.391192       -10.6449 
  47   1.0000      -0.377464       -10.2713 
  48   1.0000      -0.377135       -10.2624 
  49   1.0000      -0.364807        -9.9269 
  50   1.0000      -0.357161        -9.7189 
  51   1.0000      -0.351691        -9.5700 
  52   1.0000      -0.338788        -9.2189 
  53   1.0000      -0.332767        -9.0551 
  54   1.0000      -0.329998        -8.9797 
  55   1.0000      -0.328614        -8.9420 
  56   1.0000      -0.327792        -8.9197 
  57   1.0000      -0.324331        -8.8255 
  58   1.0000      -0.320625        -8.7246 
  59   1.0000      -0.280070        -7.6211 
  60   1.0000      -0.276463        -7.5230 
  61   1.0000      -0.274220        -7.4619 
  62   1.0000      -0.258906        -7.0452 
  63   1.0000      -0.223135        -6.0718 
  64   0.0000      -0.084269        -2.2931 
  65   0.0000      -0.039301        -1.0694 
  66   0.0000       0.026979         0.7341 
  67   0.0000       0.040907         1.1131 
  68   0.0000       0.049705         1.3525 
  69   0.0000       0.059196         1.6108 
  70   0.0000       0.062678         1.7055 
  71   0.0000       0.064037         1.7425 
  72   0.0000       0.082586         2.2473 
  73   0.0000       0.086069         2.3421 
  74   0.0000       0.089211         2.4276 
  75   0.0000       0.091282         2.4839 
  76   0.0000       0.094822         2.5802 
  77   0.0000       0.095676         2.6035 
  78   0.0000       0.101643         2.7658 
  79   0.0000       0.104096         2.8326 
  80   0.0000       0.120219         3.2713 
  81   0.0000       0.126070         3.4305 
  82   0.0000       0.130045         3.5387 
  83   0.0000       0.145363         3.9555 
  84   0.0000       0.148708         4.0465 
  85   0.0000       0.152360         4.1459 
  86   0.0000       0.160509         4.3677 
  87   0.0000       0.160838         4.3766 
  88   0.0000       0.162182         4.4132 
  89   0.0000       0.170719         4.6455 
  90   0.0000       0.170855         4.6492 
  91   0.0000       0.180900         4.9225 
[...]
      px      :     0.027542
      py      :     0.015309
 25 C s       :     2.799025  s :     2.799025
      pz      :     1.041305  p :     3.053883
      px      :     1.022792
      py      :     0.989786
      dz2     :     0.027595  d :     0.190662
      dxz     :     0.058051
      dyz     :     0.018468
      dx2y2   :     0.038412
      dxy     :     0.048136
 26 H s       :     0.898469  s :     0.898469
      pz      :     0.034299  p :     0.076980
      px      :     0.026847
      py      :     0.015834
 27 H s       :     0.898474  s :     0.898474
      pz      :     0.034822  p :     0.076984
      px      :     0.026322
      py      :     0.015840
 28 C s       :     2.799191  s :     2.799191
      pz      :     1.041961  p :     3.055788
      px      :     1.021278
      py      :     0.992549
      dz2     :     0.027807  d :     0.191958
      dxz     :     0.057262
      dyz     :     0.018632
      dx2y2   :     0.039514
      dxy     :     0.048742
 29 H s       :     0.899999  s :     0.899999
      pz      :     0.033691  p :     0.075828
      px      :     0.026562
      py      :     0.015575
 30 H s       :     0.900006  s :     0.900006
      pz      :     0.034168  p :     0.075827
      px      :     0.026087
      py      :     0.015573
 31 C s       :     2.806499  s :     2.806499
      pz      :     1.054156  p :     3.114939
      px      :     1.041847
      py      :     1.018937
      dz2     :     0.026071  d :     0.146037
      dxz     :     0.045519
      dyz     :     0.009570
      dx2y2   :     0.024163
      dxy     :     0.040714
 32 H s       :     0.898662  s :     0.898662
      pz      :     0.034799  p :     0.076108
      px      :     0.025676
      py      :     0.015632
 33 H s       :     0.898655  s :     0.898655
      pz      :     0.034337  p :     0.076110
      px      :     0.026138
      py      :     0.015634
 34 C s       :     2.908741  s :     2.908741
      pz      :     0.975043  p :     3.040915
      px      :     1.086098
      py      :     0.979774
      dz2     :     0.012569  d :     0.099927
      dxz     :     0.024965
      dyz     :     0.000014
      dx2y2   :     0.037707
      dxy     :     0.024672
 35 H s       :     0.883043  s :     0.883043
      pz      :     0.020251  p :     0.094550
      px      :     0.054798
      py      :     0.019500
 36 H s       :     0.882759  s :     0.882759
      pz      :     0.019918  p :     0.094354
      px      :     0.054915
      py      :     0.019521
 37 H s       :     0.895164  s :     0.895164
      pz      :     0.015521  p :     0.076450
      px      :     0.028570
      py      :     0.032359
 38 H s       :     0.896115  s :     0.896115
      pz      :     0.015517  p :     0.076396
      px      :     0.025826
      py      :     0.035053

SPIN
  0 C s       :     0.002529  s :     0.002529
      pz      :     0.072418  p :     0.081728
      px      :     0.001063
      py      :     0.008246
      dz2     :    -0.000305  d :    -0.002384
      dxz     :    -0.001355
      dyz     :    -0.000002
      dx2y2   :    -0.000299
      dxy     :    -0.000423
  1 C s       :    -0.003000  s :    -0.003000
      pz      :    -0.026989  p :    -0.037169
      px      :    -0.002410
      py      :    -0.007770
      dz2     :     0.000157  d :     0.015886
      dxz     :     0.014628
      dyz     :    -0.000002
      dx2y2   :     0.000492
      dxy     :     0.000612
  2 C s       :     0.001388  s :     0.001388
      pz      :     0.014369  p :     0.019736
      px      :     0.001024
      py      :     0.004343
      dz2     :    -0.000082  d :    -0.007209
      dxz     :    -0.006375
      dyz     :     0.000048
      dx2y2   :    -0.000252
      dxy     :    -0.000548
  3 C s       :     0.005901  s :     0.005901
      pz      :     0.157712  p :     0.166602
      px      :     0.004198
      py      :     0.004692
      dz2     :    -0.000763  d :    -0.009067
      dxz     :    -0.001953
      dyz     :    -0.004380
      dx2y2   :    -0.000946
      dxy     :    -0.001026
  4 C s       :    -0.006640  s :    -0.006640
      pz      :    -0.088447  p :    -0.103909
      px      :    -0.006593
      py      :    -0.008870
      dz2     :     0.000514  d :     0.039326
      dxz     :     0.010398
      dyz     :     0.025513
      dx2y2   :     0.001362
      dxy     :     0.001539
  5 C s       :     0.005651  s :     0.005651
      pz      :     0.159814  p :     0.168327
      px      :     0.004547
      py      :     0.003966
      dz2     :    -0.000666  d :    -0.008025
      dxz     :    -0.003981
      dyz     :    -0.001719
      dx2y2   :    -0.000627
      dxy     :    -0.001033
  6 C s       :    -0.003698  s :    -0.003698
      pz      :    -0.065931  p :    -0.073430
      px      :    -0.002832
      py      :    -0.004666
      dz2     :     0.000353  d :     0.016622
      dxz     :     0.001657
      dyz     :     0.013035
      dx2y2   :     0.000619
      dxy     :     0.000959
  7 C s       :     0.006135  s :     0.006135
      pz      :     0.167148  p :     0.176215
      px      :     0.004525
      py      :     0.004542
      dz2     :    -0.000710  d :    -0.006332
      dxz     :    -0.002974
      dyz     :    -0.001487
      dx2y2   :    -0.000559
      dxy     :    -0.000603
  8 C s       :    -0.003888  s :    -0.003888
      pz      :    -0.070898  p :    -0.078891
      px      :    -0.004398
      py      :    -0.003596
      dz2     :     0.000333  d :     0.017370
      dxz     :     0.010879
      dyz     :     0.004792
      dx2y2   :     0.000703
      dxy     :     0.000663
  9 H s       :    -0.004864  s :    -0.004864
      pz      :     0.004943  p :     0.005734
      px      :     0.000291
      py      :     0.000500
 10 H s       :     0.002101  s :     0.002101
      pz      :    -0.002076  p :    -0.002564
      px      :    -0.000202
      py      :    -0.000285
 11 C s       :     0.017947  s :     0.017947
      pz      :     0.545251  p :     0.568451
      px      :     0.011754
      py      :     0.011445
      dz2     :    -0.002110  d :    -0.006381
      dxz     :    -0.000338
      dyz     :    -0.001714
      dx2y2   :    -0.001244
      dxy     :    -0.000976
 12 H s       :    -0.015208  s :    -0.015208
      pz      :     0.016097  p :     0.018534
      px      :     0.002256
      py      :     0.000181
 13 C s       :    -0.003446  s :    -0.003446
      pz      :    -0.003827  p :    -0.017806
      px      :    -0.005127
      py      :    -0.008852
      dz2     :     0.000421  d :     0.026781
      dxz     :     0.012728
      dyz     :     0.012156
      dx2y2   :     0.000641
      dxy     :     0.000835
 14 H s       :     0.025407  s :     0.025407
      pz      :    -0.000186  p :    -0.000599
      px      :    -0.000343
      py      :    -0.000070
 15 H s       :     0.025313  s :     0.025313
      pz      :    -0.000181  p :    -0.000599
      px      :    -0.000348
      py      :    -0.000070
 16 C s       :     0.000136  s :     0.000136
      pz      :     0.001038  p :     0.001530
      px      :     0.000318
      py      :     0.000174
      dz2     :    -0.000060  d :    -0.000507
      dxz     :     0.000160
      dyz     :    -0.000130
      dx2y2   :    -0.000400
      dxy     :    -0.000077
 17 H s       :     0.000132  s :     0.000132
      pz      :     0.000034  p :     0.000167
      px      :     0.000079
      py      :     0.000054
 18 H s       :     0.000126  s :     0.000126
      pz      :     0.000032  p :     0.000167
      px      :     0.000080
      py      :     0.000055
 19 C s       :    -0.000176  s :    -0.000176
      pz      :     0.000398  p :     0.000021
      px      :    -0.000064
      py      :    -0.000314
      dz2     :    -0.000004  d :     0.000112
      dxz     :     0.000014
      dyz     :     0.000113
      dx2y2   :     0.000008
      dxy     :    -0.000019
 20 H s       :     0.000211  s :     0.000211
      pz      :     0.000001  p :     0.000037
      px      :     0.000017
      py      :     0.000020
 21 H s       :     0.000211  s :     0.000211
      pz      :     0.000001  p :     0.000038
      px      :     0.000016
      py      :     0.000020
 22 C s       :    -0.001188  s :    -0.001188
      pz      :    -0.000285  p :    -0.005258
      px      :    -0.002194
      py      :    -0.002779
      dz2     :     0.000154  d :     0.008657
      dxz     :     0.004762
      dyz     :     0.003217
      dx2y2   :     0.000222
      dxy     :     0.000302
 23 H s       :     0.008231  s :     0.008231
      pz      :    -0.000078  p :    -0.000201
      px      :    -0.000148
      py      :     0.000025
 24 H s       :     0.008184  s :     0.008184
      pz      :    -0.000079  p :    -0.000201
      px      :    -0.000147
      py      :     0.000025
 25 C s       :     0.000037  s :     0.000037
      pz      :     0.000019  p :     0.000194
      px      :     0.000101
      py      :     0.000075
      dz2     :    -0.000015  d :    -0.000071
      dxz     :     0.000123
      dyz     :    -0.000026
      dx2y2   :    -0.000106
      dxy     :    -0.000047
 26 H s       :     0.000039  s :     0.000039
      pz      :     0.000007  p :     0.000021
      px      :     0.000011
      py      :     0.000003
 27 H s       :     0.000038  s :     0.000038
      pz      :     0.000007  p :     0.000020
      px      :     0.000010
      py      :     0.000003
 28 C s       :    -0.000048  s :    -0.000048
      pz      :     0.000177  p :     0.000064
      px      :    -0.000024
      py      :    -0.000088
      dz2     :    -0.000002  d :     0.000000
      dxz     :    -0.000002
      dyz     :     0.000012
      dx2y2   :    -0.000000
      dxy     :    -0.000007
 29 H s       :     0.000070  s :     0.000070
      pz      :     0.000001  p :     0.000019
      px      :     0.000006
      py      :     0.000013
 30 H s       :     0.000070  s :     0.000070
      pz      :     0.000001  p :     0.000019
      px      :     0.000006
      py      :     0.000013
 31 C s       :    -0.000009  s :    -0.000009
      pz      :    -0.000001  p :    -0.000046
      px      :    -0.000014
      py      :    -0.000032
      dz2     :    -0.000000  d :     0.000017
      dxz     :     0.000012
      dyz     :     0.000007
      dx2y2   :    -0.000003
      dxy     :     0.000001
 32 H s       :     0.000018  s :     0.000018
      pz      :    -0.000000  p :    -0.000002
      px      :    -0.000000
      py      :    -0.000001
 33 H s       :     0.000018  s :     0.000018
      pz      :    -0.000000  p :    -0.000002
      px      :    -0.000000
      py      :    -0.000001
 34 C s       :    -0.001243  s :    -0.001243
      pz      :    -0.033759  p :    -0.039460
      px      :    -0.000526
      py      :    -0.005175
      dz2     :     0.000141  d :     0.001299
      dxz     :     0.000769
      dyz     :     0.000000
      dx2y2   :     0.000149
      dxy     :     0.000239
 35 H s       :    -0.002635  s :    -0.002635
      pz      :     0.002128  p :     0.002754
      px      :     0.000412
      py      :     0.000214
 36 H s       :     0.001262  s :     0.001262
      pz      :    -0.000988  p :    -0.001327
      px      :    -0.000198
      py      :    -0.000140
 37 H s       :    -0.000132  s :    -0.000132
      pz      :     0.000032  p :     0.000020
      px      :     0.000003
      py      :    -0.000015
 38 H s       :    -0.000004  s :    -0.000004
      pz      :    -0.000000  p :    -0.000003
      px      :    -0.000001
      py      :    -0.000002


                      *****************************
                      * MAYER POPULATION ANALYSIS *
                      *****************************

  NA   - Mulliken gross atomic population
  ZA   - Total nuclear charge
  QA   - Mulliken gross atomic charge
  VA   - Mayer's total valence
  BVA  - Mayer's bonded valence
  FA   - Mayer's free valence

  ATOM       NA         ZA         QA         VA         BVA        FA
  0 C      6.6006     6.0000    -0.6006     3.3879     3.3809     0.0069
  1 C      5.3677     6.0000     0.6323     2.8670     2.8654     0.0016
  2 C      5.3747     6.0000     0.6253     2.8963     2.8958     0.0004
  3 C      6.0495     6.0000    -0.0495     3.7450     3.7096     0.0354
  4 C      5.9194     6.0000     0.0806     4.1150     4.1001     0.0148
  5 C      6.0117     6.0000    -0.0117     3.8601     3.8260     0.0341
  6 C      6.0228     6.0000    -0.0228     3.8142     3.8069     0.0073
  7 C      6.0767     6.0000    -0.0767     4.1247     4.0860     0.0388
  8 C      5.9738     6.0000     0.0262     3.8907     3.8824     0.0082
  9 H      1.0494     1.0000    -0.0494     1.0024     1.0023     0.0001
 10 H      1.0502     1.0000    -0.0502     1.0029     1.0029     0.0000
 11 C      6.0981     6.0000    -0.0981     3.9296     3.5553     0.3743
 12 H      1.0215     1.0000    -0.0215     1.0092     1.0080     0.0012
 13 C      5.9671     6.0000     0.0329     4.0105     4.0091     0.0015
 14 H      0.9706     1.0000     0.0294     0.9627     0.9616     0.0011
 15 H      0.9706     1.0000     0.0294     0.9627     0.9616     0.0011
 16 C      6.0382     6.0000    -0.0382     4.1311     4.1311     0.0000
 17 H      0.9870     1.0000     0.0130     0.9642     0.9642     0.0000
 18 H      0.9870     1.0000     0.0130     0.9641     0.9641     0.0000
 19 C      5.9939     6.0000     0.0061     4.0163     4.0163     0.0000
 20 H      0.9825     1.0000     0.0175     0.9775     0.9775     0.0000
 21 H      0.9825     1.0000     0.0175     0.9775     0.9775     0.0000
 22 C      5.9568     6.0000     0.0432     4.0288     4.0286     0.0002
 23 H      0.9680     1.0000     0.0320     0.9696     0.9695     0.0001
 24 H      0.9680     1.0000     0.0320     0.9697     0.9696     0.0001
 25 C      6.0363     6.0000    -0.0363     4.1150     4.1150     0.0000
 26 H      0.9833     1.0000     0.0167     0.9629     0.9629     0.0000
 27 H      0.9832     1.0000     0.0168     0.9628     0.9628     0.0000
 28 C      6.0239     6.0000    -0.0239     4.1175     4.1175     0.0000
 29 H      0.9940     1.0000     0.0060     0.9674     0.9674     0.0000
 30 H      0.9940     1.0000     0.0060     0.9674     0.9674     0.0000
 31 C      5.9963     6.0000     0.0037     4.0169     4.0169     0.0000
 32 H      0.9829     1.0000     0.0171     0.9773     0.9773     0.0000
 33 H      0.9829     1.0000     0.0171     0.9773     0.9773     0.0000
 34 C      6.6015     6.0000    -0.6015     3.3909     3.3894     0.0015
 35 H      1.0302     1.0000    -0.0302     1.0305     1.0304     0.0000
 36 H      1.0291     1.0000    -0.0291     1.0304     1.0304     0.0000
 37 H      0.9865     1.0000     0.0135     0.9733     0.9733     0.0000
 38 H      0.9874     1.0000     0.0126     0.9734     0.9734     0.0000

  Mayer bond orders larger than 0.100000
B(  0-C ,  1-C ) :   2.0990 B(  0-C , 35-H ) :   1.1197 B(  1-C ,  3-C ) :   0.9065 
B(  2-C ,  6-C ) :   0.9026 B(  2-C , 34-C ) :   2.1252 B(  3-C ,  4-C ) :   1.2770 
B(  3-C ,  8-C ) :   1.3953 B(  4-C ,  5-C ) :   1.2848 B(  4-C , 11-C ) :   1.3685 
B(  5-C ,  6-C ) :   1.4405 B(  5-C ,  9-H ) :   0.9200 B(  6-C ,  7-C ) :   1.3424 
B(  7-C ,  8-C ) :   1.4091 B(  7-C , 22-C ) :   1.0924 B(  8-C , 10-H ) :   0.9215 
B( 11-C , 12-H ) :   0.9028 B( 11-C , 13-C ) :   1.0837 B( 13-C , 14-H ) :   0.9117 
B( 13-C , 15-H ) :   0.9117 B( 13-C , 16-C ) :   1.0716 B( 16-C , 17-H ) :   0.9438 
B( 16-C , 18-H ) :   0.9437 B( 16-C , 19-C ) :   1.1065 B( 19-C , 20-H ) :   0.9653 
B( 19-C , 21-H ) :   0.9653 B( 19-C , 37-H ) :   0.9608 B( 22-C , 23-H ) :   0.8969 
B( 22-C , 24-H ) :   0.8969 B( 22-C , 25-C ) :   1.1035 B( 25-C , 26-H ) :   0.9294 
B( 25-C , 27-H ) :   0.9293 B( 25-C , 28-C ) :   1.0752 B( 28-C , 29-H ) :   0.9410 
B( 28-C , 30-H ) :   0.9410 B( 28-C , 31-C ) :   1.1060 B( 31-C , 32-H ) :   0.9662 
B( 31-C , 33-H ) :   0.9662 B( 31-C , 38-H ) :   0.9617 B( 34-C , 36-H ) :   1.1185 


-------
TIMINGS
-------

Total SCF time: 0 days 0 hours 0 min 43 sec 

Total time                  ....      43.258 sec
Sum of individual times     ....      40.673 sec  ( 94.0%)

Fock matrix formation       ....      36.461 sec  ( 84.3%)
  Split-RI-J                ....       2.963 sec  (  8.1% of F)
  Chain of spheres X        ....      22.201 sec  ( 60.9% of F)
  XC integration            ....       8.492 sec  ( 23.3% of F)
    Basis function eval.    ....       0.767 sec  (  9.0% of XC)
    Density eval.           ....       0.835 sec  (  9.8% of XC)
    XC-Functional eval.     ....       0.201 sec  (  2.4% of XC)
    XC-Potential eval.      ....       0.470 sec  (  5.5% of XC)
Diagonalization             ....       0.657 sec  (  1.5%)
Density matrix formation    ....       0.101 sec  (  0.2%)
Population analysis         ....       0.256 sec  (  0.6%)
Initial guess               ....       0.104 sec  (  0.2%)
Orbital Transformation      ....       0.000 sec  (  0.0%)
Orbital Orthonormalization  ....       0.076 sec  (  0.2%)
DIIS solution               ....       0.487 sec  (  1.1%)
Grid generation             ....       2.607 sec  (  6.0%)

Maximum memory used throughout the entire SCF-calculation: 94.9 MB

-------------------------   --------------------
FINAL SINGLE POINT ENERGY      -697.967712020061
-------------------------   --------------------

                                *** OPTIMIZATION RUN DONE ***

                            ***************************************
                            *     ORCA property calculations      *
                            ***************************************

                                    ---------------------
                                    Active property flags
                                    ---------------------
   (+) Dipole Moment


------------------------------------------------------------------------------
                       ORCA ELECTRIC PROPERTIES CALCULATION
------------------------------------------------------------------------------

Dipole Moment Calculation                       ... on
Quadrupole Moment Calculation                   ... off
Polarizability Calculation                      ... off
GBWName                                         ... opt.gbw
Electron density                                ... opt.scfp
The origin for moment calculation is the CENTER OF MASS  = (-0.072830, -0.015388  0.017821)

-------------
DIPOLE MOMENT
-------------
                                X             Y             Z
Electronic contribution:      0.61409       2.29056       0.01021
Nuclear contribution   :     -0.70376      -2.24976      -0.00945
                        -----------------------------------------
Total Dipole Moment    :     -0.08967       0.04080       0.00076
                        -----------------------------------------
Magnitude (a.u.)       :      0.09852
Magnitude (Debye)      :      0.25042



--------------------
Rotational spectrum 
--------------------
 
Rotational constants in cm-1:     0.022567     0.005964     0.004746 
Rotational constants in MHz :   676.555654   178.787891   142.292788 

 Dipole components along the rotational axes: 
x,y,z [a.u.] :    -0.014424    -0.097441     0.001838 
x,y,z [Debye]:    -0.036664    -0.247676     0.004672 

 

Timings for individual modules:

Sum of individual times         ...      159.316 sec (=   2.655 min)
GTO integral calculation        ...        5.657 sec (=   0.094 min)   3.6 %
SCF iterations                  ...      139.508 sec (=   2.325 min)  87.6 %
SCF Gradient evaluation         ...       13.880 sec (=   0.231 min)   8.7 %
Geometry relaxation             ...        0.270 sec (=   0.005 min)   0.2 %
                             ****ORCA TERMINATED NORMALLY****
TOTAL RUN TIME: 0 days 0 hours 2 minutes 43 seconds 264 msec
