
                                 *****************
                                 * O   R   C   A *
                                 *****************

           --- An Ab Initio, DFT and Semiempirical electronic structure package ---

                  #######################################################
                  #                        -***-                        #
                  #          Department of theory and spectroscopy      #
                  #               Directorship: Frank Neese             #
                  #        Max Planck Institute fuer Kohlenforschung    #
                  #                Kaiser Wilhelm Platz 1               #
                  #                 D-45470 Muelheim/Ruhr               #
                  #                      Germany                        #
                  #                                                     #
                  #                  All rights reserved                #
                  #                        -***-                        #
                  #######################################################


                         Program Version 4.2.1 -  RELEASE  -


 With contributions from (in alphabetic order):
   Daniel Aravena         : Magnetic Suceptibility
   Michael Atanasov       : Ab Initio Ligand Field Theory (pilot matlab implementation)
   Alexander A. Auer      : GIAO ZORA, VPT2
   Ute Becker             : Parallelization
   Giovanni Bistoni       : ED, misc. LED, open-shell LED, HFLD
   Martin Brehm           : Molecular dynamics
   Dmytro Bykov           : SCF Hessian
   Vijay G. Chilkuri      : MRCI spin determinant printing, contributions to CSF-ICE
   Dipayan Datta          : RHF DLPNO-CCSD density
   Achintya Kumar Dutta   : EOM-CC, STEOM-CC
   Dmitry Ganyushin       : Spin-Orbit,Spin-Spin,Magnetic field MRCI
   Miquel Garcia          : C-PCM Hessian, Gaussian charge scheme
   Yang Guo               : DLPNO-NEVPT2, CIM, IAO-localization
   Andreas Hansen         : Spin unrestricted coupled pair/coupled cluster methods
   Benjamin Helmich-Paris : CASSCF linear response (MC-RPA)
   Lee Huntington         : MR-EOM, pCC
   Robert Izsak           : Overlap fitted RIJCOSX, COSX-SCS-MP3, EOM
   Christian Kollmar      : KDIIS, OOCD, Brueckner-CCSD(T), CCSD density
   Simone Kossmann        : Meta GGA functionals, TD-DFT gradient, OOMP2, MP2 Hessian
   Martin Krupicka        : AUTO-CI
   Lucas Lang             : DCDCAS
   Dagmar Lenk            : GEPOL surface, SMD
   Dimitrios Liakos       : Extrapolation schemes; Compound Job, initial MDCI parallelization
   Dimitrios Manganas     : Further ROCIS development; embedding schemes
   Dimitrios Pantazis     : SARC Basis sets
   Taras Petrenko         : DFT Hessian,TD-DFT gradient, ASA, ECA, R-Raman, ABS, FL, XAS/XES, NRVS
   Peter Pinski           : DLPNO-MP2, DLPNO-MP2 Gradient
   Christoph Reimann      : Effective Core Potentials
   Marius Retegan         : Local ZFS, SOC
   Christoph Riplinger    : Optimizer, TS searches, QM/MM, DLPNO-CCSD(T), (RO)-DLPNO pert. Triples
   Tobias Risthaus        : Range-separated hybrids, TD-DFT gradient, RPA, STAB
   Michael Roemelt        : Original ROCIS implementation
   Masaaki Saitow         : Open-shell DLPNO-CCSD energy and density
   Barbara Sandhoefer     : DKH picture change effects
   Avijit Sen             : IP-ROCIS
   Kantharuban Sivalingam : CASSCF convergence, NEVPT2, FIC-MRCI
   Bernardo de Souza      : ESD, SOC TD-DFT
   Georgi Stoychev        : AutoAux, RI-MP2 NMR
   Willem Van den Heuvel  : Paramagnetic NMR
   Boris Wezisla          : Elementary symmetry handling
   Frank Wennmohs         : Technical directorship


 We gratefully acknowledge several colleagues who have allowed us to
 interface, adapt or use parts of their codes:
   Stefan Grimme, W. Hujo, H. Kruse,             : VdW corrections, initial TS optimization,
                  C. Bannwarth                     DFT functionals, gCP, sTDA/sTD-DF
   Ed Valeev, F. Pavosevic, A. Kumar             : LibInt (2-el integral package), F12 methods
   Garnet Chan, S. Sharma, J. Yang, R. Olivares  : DMRG
   Ulf Ekstrom                                   : XCFun DFT Library
   Mihaly Kallay                                 : mrcc  (arbitrary order and MRCC methods)
   Andreas Klamt, Michael Diedenhofen            : otool_cosmo (COSMO solvation model)
   Jiri Pittner, Ondrej Demel                    : Mk-CCSD
   Frank Weinhold                                : gennbo (NPA and NBO analysis)
   Christopher J. Cramer and Donald G. Truhlar   : smd solvation model
   Lars Goerigk                                  : TD-DFT with DH, B97 family of functionals
   V. Asgeirsson, H. Jonsson                     : NEB implementation
   FAccTs GmbH                                   : IRC, NEB, NEB-TS, Multilevel, MM, QM/MM, CI optimization
   S Lehtola, MJT Oliveira, MAL Marques          : LibXC Library


 Your calculation uses the libint2 library for the computation of 2-el integrals
 For citations please refer to: http://libint.valeyev.net

 Your ORCA version has been built with support for libXC version: 4.2.3
 For citations please refer to: https://tddft.org/programs/libxc/

 This ORCA versions uses:
   CBLAS   interface :  Fast vector & matrix operations
   LAPACKE interface :  Fast linear algebra routines
   SCALAPACK package :  Parallel linear algebra routines




***************************************
The coordinates will be read from file: Rhop.xyz
***************************************


----- Orbital basis set information -----
Your calculation utilizes the basis: cc-pVDZ 
       H, B-Ne : Obtained from the ccRepo (grant-hill.group.shef.ac.uk/ccrepo) Feb. 2017
                 T. H. Dunning, Jr., J. Chem. Phys. 90, 1007 (1989)
            He : Obtained from the ccRepo (grant-hill.group.shef.ac.uk/ccrepo) Feb. 2017
                 D. E. Woon, T. H. Dunning, Jr., J. Chem. Phys. 100, 2975 (1994)
  Li-Be, Na-Mg : Obtained from the ccRepo (grant-hill.group.shef.ac.uk/ccrepo) Feb. 2017
                 B. P. Prascher, D. E. Woon, K. A. Peterson, T. H. Dunning, Jr., A. K. Wilson, Theor. Chem. Acc. 128, 69 (2011)
         Al-Ar : Obtained from the ccRepo (grant-hill.group.shef.ac.uk/ccrepo) Feb. 2017
                 D. E. Woon, T. H. Dunning, Jr., J. Chem. Phys. 98, 1358 (1993)
            Ca : Obtained from the Peterson Research Group Website (tyr0.chem.wsu.edu/~kipeters) Feb. 2017
                 J. Koput, K. A. Peterson, J. Phys. Chem. 106, 9595 (2002)
         Sc-Zn : Obtained from the ccRepo (grant-hill.group.shef.ac.uk/ccrepo) Feb. 2017
                 N. B. Balabanov, K. A. Peterson, J. Chem. Phys. 123, 064107 (2005)
                 N. B. Balabanov, K. A. Peterson, J. Chem. Phys. 125, 074110 (2006)
         Ga-Kr : Obtained from the ccRepo (grant-hill.group.shef.ac.uk/ccrepo) Feb. 2017
                 A. K. Wilson, D. E. Woon, K. A. Peterson, T. H. Dunning, Jr., J. Chem. Phys. 110, 7667 (1999)

================================================================================
                                        WARNINGS
                       Please study these warnings very carefully!
================================================================================


WARNING: your system is open-shell and RHF/RKS was chosen
  ===> : WILL SWITCH to UHF/UKS


WARNING: Geometry Optimization
  ===> : Switching off AutoStart
         For restart on a previous wavefunction, please use MOREAD

INFO   : the flag for use of LIBINT has been found!

================================================================================
                                       INPUT FILE
================================================================================
NAME = opt.inp
|  1> ! B3LYP cc-pVDZ OPT
|  2> %pal nprocs 16 end
|  3> *XYZFile 0 2 Rhop.xyz
|  4> 
|  5>                          ****END OF INPUT****
================================================================================

                       *****************************
                       * Geometry Optimization Run *
                       *****************************

Geometry optimization settings:
Update method            Update   .... BFGS
Choice of coordinates    CoordSys .... Z-matrix Internals
Initial Hessian          InHess   .... Almoef's Model

Convergence Tolerances:
Energy Change            TolE     ....  5.0000e-06 Eh
Max. Gradient            TolMAXG  ....  3.0000e-04 Eh/bohr
RMS Gradient             TolRMSG  ....  1.0000e-04 Eh/bohr
Max. Displacement        TolMAXD  ....  4.0000e-03 bohr
RMS Displacement         TolRMSD  ....  2.0000e-03 bohr
Strict Convergence                ....  False
------------------------------------------------------------------------------
                        ORCA OPTIMIZATION COORDINATE SETUP
------------------------------------------------------------------------------

The optimization will be done in new redundant internal coordinates
Making redundant internal coordinates   ...  (new redundants) done
Evaluating the initial hessian          ...  (Almloef) done
Evaluating the coordinates              ...  done
Calculating the B-matrix                .... done
Calculating the G-matrix                .... done
Diagonalizing the G-matrix              .... done
Small eigenvalue found = 2.244e-03
Small eigenvalue found = 4.455e-03
Small eigenvalue found = 8.819e-03
Small eigenvalue found = 1.403e-02
Small eigenvalue found = 1.785e-02
The first mode is                       ....   84
The number of degrees of freedom        ....  111

    -----------------------------------------------------------------
                    Redundant Internal Coordinates


    -----------------------------------------------------------------
         Definition                    Initial Value    Approx d2E/dq
    -----------------------------------------------------------------
      1. B(C   1,C   0)                  1.2039         1.237992   
      2. B(C   3,C   1)                  1.4259         0.547622   
      3. B(C   4,C   3)                  1.4111         0.578224   
      4. B(C   5,C   4)                  1.3878         0.629955   
      5. B(C   6,C   5)                  1.4019         0.598152   
      6. B(C   6,C   2)                  1.4259         0.547693   
      7. B(C   7,C   6)                  1.4111         0.578125   
      8. B(C   8,C   7)                  1.3876         0.630222   
      9. B(C   8,C   3)                  1.4020         0.597867   
     10. B(H   9,C   5)                  1.0809         0.372351   
     11. B(H  10,C   8)                  1.0809         0.372365   
     12. B(C  11,C   4)                  1.5127         0.398023   
     13. B(H  12,C  11)                  1.0960         0.352269   
     14. B(C  13,C  11)                  1.5275         0.377009   
     15. B(H  14,C  13)                  1.0957         0.352646   
     16. B(H  15,C  13)                  1.0958         0.352550   
     17. B(C  16,C  13)                  1.5301         0.373432   
     18. B(H  17,C  16)                  1.0955         0.352935   
     19. B(H  18,C  16)                  1.0956         0.352755   
     20. B(C  19,C  16)                  1.5274         0.377135   
     21. B(H  20,C  19)                  1.0934         0.355623   
     22. B(H  21,C  19)                  1.0934         0.355570   
     23. B(C  22,C   7)                  1.5128         0.397870   
     24. B(H  23,C  22)                  1.0959         0.352417   
     25. B(H  24,C  22)                  1.0958         0.352455   
     26. B(C  25,C  22)                  1.5273         0.377284   
     27. B(H  26,C  25)                  1.0958         0.352524   
     28. B(H  27,C  25)                  1.0957         0.352615   
     29. B(C  28,C  25)                  1.5300         0.373552   
     30. B(H  29,C  28)                  1.0956         0.352759   
     31. B(H  30,C  28)                  1.0955         0.352927   
     32. B(C  31,C  28)                  1.5275         0.377029   
     33. B(H  32,C  31)                  1.0934         0.355592   
     34. B(H  33,C  31)                  1.0934         0.355603   
     35. B(C  34,C   2)                  1.2038         1.238027   
     36. B(H  35,C   0)                  1.0624         0.398517   
     37. B(H  36,C  34)                  1.0624         0.398518   
     38. B(H  37,C  19)                  1.0916         0.357963   
     39. B(H  38,C  31)                  1.0916         0.357977   
     40. L(C   1,C   0,H  35, 2)       180.1007         0.404786   
     41. L(C   1,C   0,H  35, 1)       180.0430         0.404786   
     42. L(C   0,C   1,C   3,C   8, 2) 180.5015         0.481351   
     43. L(C   0,C   1,C   3,C   8, 1) 179.5709         0.481351   
     44. L(C   6,C   2,C  34,C   5, 2) 179.7268         0.481365   
     45. L(C   6,C   2,C  34,C   5, 1) 179.4466         0.481365   
     46. A(C   1,C   3,C   4)          120.8535         0.419250   
     47. A(C   1,C   3,C   8)          118.8572         0.421757   
     48. A(C   4,C   3,C   8)          120.2893         0.425877   
     49. A(C   3,C   4,C   5)          117.3003         0.429887   
     50. A(C   5,C   4,C  11)          122.7248         0.402258   
     51. A(C   3,C   4,C  11)          119.9748         0.396241   
     52. A(C   4,C   5,H   9)          119.9011         0.355875   
     53. A(C   4,C   5,C   6)          122.4149         0.432512   
     54. A(C   6,C   5,H   9)          117.6841         0.352764   
     55. A(C   2,C   6,C   7)          120.8342         0.419247   
     56. A(C   5,C   6,C   7)          120.2795         0.425901   
     57. A(C   2,C   6,C   5)          118.8863         0.421802   
     58. A(C   6,C   7,C   8)          117.3134         0.429907   
     59. A(C   8,C   7,C  22)          122.7207         0.402260   
     60. A(C   6,C   7,C  22)          119.9659         0.396202   
     61. A(C   3,C   8,H  10)          117.7000         0.352738   
     62. A(C   7,C   8,H  10)          119.8973         0.355903   
     63. A(C   3,C   8,C   7)          122.4027         0.432508   
     64. A(H  12,C  11,C  13)          109.0822         0.323636   
     65. A(C   4,C  11,C  13)          116.8036         0.367893   
     66. A(C   4,C  11,H  12)          108.2119         0.326534   
     67. A(H  15,C  13,C  16)          108.9438         0.323173   
     68. A(H  14,C  13,C  16)          109.0293         0.323187   
     69. A(C  11,C  13,C  16)          112.5404         0.363896   
     70. A(H  14,C  13,H  15)          106.3186         0.288925   
     71. A(C  11,C  13,H  15)          109.9290         0.323678   
     72. A(C  11,C  13,H  14)          109.8805         0.323693   
     73. A(C  13,C  16,C  19)          113.2208         0.363917   
     74. A(H  17,C  16,H  18)          106.0313         0.288988   
     75. A(C  13,C  16,H  18)          109.2541         0.323204   
     76. A(C  13,C  16,H  17)          109.2016         0.323231   
     77. A(H  18,C  16,C  19)          109.4356         0.323727   
     78. A(H  17,C  16,C  19)          109.4449         0.323754   
     79. A(H  20,C  19,H  21)          107.4850         0.289693   
     80. A(C  16,C  19,H  21)          111.2520         0.324150   
     81. A(C  16,C  19,H  20)          111.2630         0.324158   
     82. A(H  21,C  19,H  37)          107.6706         0.289991   
     83. A(H  20,C  19,H  37)          107.6746         0.289998   
     84. A(C  16,C  19,H  37)          111.3061         0.324507   
     85. A(H  24,C  22,C  25)          109.1286         0.323703   
     86. A(H  23,C  22,C  25)          109.1467         0.323697   
     87. A(C   7,C  22,C  25)          116.8158         0.367915   
     88. A(H  23,C  22,H  24)          104.7028         0.288883   
     89. A(C   7,C  22,H  24)          108.1602         0.326542   
     90. A(C   7,C  22,H  23)          108.2070         0.326536   
     91. A(H  27,C  25,C  28)          109.0073         0.323199   
     92. A(H  26,C  25,C  28)          108.9616         0.323186   
     93. A(C  22,C  25,C  28)          112.5497         0.363962   
     94. A(H  26,C  25,H  27)          106.3172         0.288918   
     95. A(C  22,C  25,H  27)          109.8944         0.323727   
     96. A(C  22,C  25,H  26)          109.9108         0.323713   
     97. A(H  30,C  28,C  31)          109.4367         0.323738   
     98. A(H  29,C  28,C  31)          109.4295         0.323713   
     99. A(C  25,C  28,C  31)          113.2199         0.363920   
    100. A(H  29,C  28,H  30)          106.0224         0.288988   
    101. A(C  25,C  28,H  30)          109.2068         0.323246   
    102. A(C  25,C  28,H  29)          109.2724         0.323221   
    103. A(H  32,C  31,H  33)          107.4879         0.289693   
    104. A(C  28,C  31,H  33)          111.2603         0.324140   
    105. A(C  28,C  31,H  32)          111.2574         0.324138   
    106. A(H  33,C  31,H  38)          107.6732         0.289997   
    107. A(H  32,C  31,H  38)          107.6733         0.289996   
    108. A(C  28,C  31,H  38)          111.2996         0.324494   
    109. L(C   2,C  34,H  36, 2)       179.9290         0.404788   
    110. L(C   2,C  34,H  36, 1)       179.9000         0.404788   
    111. D(C   5,C   4,C   3,C   1)    179.9922         0.022964   
    112. D(C   5,C   4,C   3,C   8)     -0.0321         0.022964   
    113. D(C  11,C   4,C   3,C   8)    179.8417         0.022964   
    114. D(C  11,C   4,C   3,C   1)     -0.1340         0.022964   
    115. D(C   6,C   5,C   4,C  11)   -179.8492         0.027515   
    116. D(H   9,C   5,C   4,C   3)   -179.9596         0.027515   
    117. D(H   9,C   5,C   4,C  11)      0.1704         0.027515   
    118. D(C   6,C   5,C   4,C   3)      0.0208         0.027515   
    119. D(C   7,C   6,C   5,C   4)     -0.0119         0.024657   
    120. D(C   2,C   6,C   5,C   4)    179.9861         0.024657   
    121. D(C   2,C   6,C   5,H   9)     -0.0331         0.024657   
    122. D(C   7,C   6,C   5,H   9)    179.9689         0.024657   
    123. D(C  22,C   7,C   6,C   2)      0.0695         0.022956   
    124. D(C   8,C   7,C   6,C   2)   -179.9846         0.022956   
    125. D(C  22,C   7,C   6,C   5)   -179.9325         0.022956   
    126. D(C   8,C   7,C   6,C   5)      0.0135         0.022956   
    127. D(H  10,C   8,C   7,C  22)     -0.0479         0.027540   
    128. D(C   3,C   8,C   7,C  22)    179.9186         0.027540   
    129. D(H  10,C   8,C   3,C   4)   -179.9967         0.024632   
    130. D(C   7,C   8,C   3,C   4)      0.0360         0.024632   
    131. D(C   3,C   8,C   7,C   6)     -0.0258         0.027540   
    132. D(H  10,C   8,C   7,C   6)   -179.9923         0.027540   
    133. D(C   7,C   8,C   3,C   1)   -179.9878         0.024632   
    134. D(H  10,C   8,C   3,C   1)     -0.0206         0.024632   
    135. D(C  13,C  11,C   4,C   5)     -1.5594         0.010899   
    136. D(C  13,C  11,C   4,C   3)    178.5739         0.010899   
    137. D(H  12,C  11,C   4,C   5)    121.9324         0.010899   
    138. D(H  12,C  11,C   4,C   3)    -57.9343         0.010899   
    139. D(H  15,C  13,C  11,C   4)     58.4862         0.010617   
    140. D(H  14,C  13,C  11,H  12)    178.7674         0.010617   
    141. D(H  14,C  13,C  11,C   4)    -58.1884         0.010617   
    142. D(C  16,C  13,C  11,H  12)     57.0673         0.010617   
    143. D(C  16,C  13,C  11,C   4)   -179.8885         0.010617   
    144. D(H  15,C  13,C  11,H  12)    -64.5579         0.010617   
    145. D(C  19,C  16,C  13,C  11)   -179.8043         0.011136   
    146. D(C  19,C  16,C  13,H  14)     58.0133         0.011136   
    147. D(H  18,C  16,C  13,H  15)   -179.8554         0.011136   
    148. D(H  18,C  16,C  13,H  14)    -64.2214         0.011136   
    149. D(H  18,C  16,C  13,C  11)     57.9609         0.011136   
    150. D(H  17,C  16,C  13,H  15)     64.5878         0.011136   
    151. D(H  17,C  16,C  13,H  14)   -179.7782         0.011136   
    152. D(C  19,C  16,C  13,H  15)    -57.6207         0.011136   
    153. D(H  17,C  16,C  13,C  11)    -57.5958         0.011136   
    154. D(H  37,C  19,C  16,H  18)    -57.7452         0.011345   
    155. D(H  37,C  19,C  16,H  17)     58.0487         0.011345   
    156. D(H  37,C  19,C  16,C  13)   -179.8787         0.011345   
    157. D(H  21,C  19,C  16,H  18)     62.3387         0.011345   
    158. D(H  21,C  19,C  16,H  17)    178.1326         0.011345   
    159. D(H  21,C  19,C  16,C  13)    -59.7947         0.011345   
    160. D(H  20,C  19,C  16,H  18)   -177.8416         0.011345   
    161. D(H  20,C  19,C  16,H  17)    -62.0478         0.011345   
    162. D(H  20,C  19,C  16,C  13)     60.0249         0.011345   
    163. D(C  25,C  22,C   7,C   8)     -0.0631         0.011754   
    164. D(C  25,C  22,C   7,C   6)    179.8799         0.011754   
    165. D(H  24,C  22,C   7,C   8)   -123.5830         0.011754   
    166. D(H  24,C  22,C   7,C   6)     56.3599         0.011754   
    167. D(H  23,C  22,C   7,C   8)    123.5198         0.011754   
    168. D(H  23,C  22,C   7,C   6)    -56.5373         0.011754   
    169. D(H  27,C  25,C  22,H  23)    -64.6200         0.011353   
    170. D(H  27,C  25,C  22,C   7)     58.4800         0.011353   
    171. D(H  26,C  25,C  22,H  24)     64.8315         0.011353   
    172. D(H  26,C  25,C  22,H  23)    178.7095         0.011353   
    173. D(H  26,C  25,C  22,C   7)    -58.1905         0.011353   
    174. D(C  28,C  25,C  22,H  24)    -56.8099         0.011353   
    175. D(C  28,C  25,C  22,H  23)     57.0681         0.011353   
    176. D(C  28,C  25,C  22,C   7)   -179.8318         0.011353   
    177. D(H  27,C  25,C  22,H  24)   -178.4980         0.011353   
    178. D(C  31,C  28,C  25,H  27)    -57.7273         0.011142   
    179. D(C  31,C  28,C  25,C  22)   -179.9180         0.011142   
    180. D(H  30,C  28,C  25,H  27)   -179.9285         0.011142   
    181. D(H  30,C  28,C  25,H  26)    -64.2984         0.011142   
    182. D(H  30,C  28,C  25,C  22)     57.8808         0.011142   
    183. D(H  29,C  28,C  25,H  27)     64.5123         0.011142   
    184. D(C  31,C  28,C  25,H  26)     57.9028         0.011142   
    185. D(H  29,C  28,C  25,H  26)   -179.8576         0.011142   
    186. D(H  29,C  28,C  25,C  22)    -57.6784         0.011142   
    187. D(H  38,C  31,C  28,H  30)    -57.7990         0.011339   
    188. D(H  38,C  31,C  28,H  29)     57.9762         0.011339   
    189. D(H  38,C  31,C  28,C  25)   -179.8718         0.011339   
    190. D(H  33,C  31,C  28,H  30)     62.2893         0.011339   
    191. D(H  33,C  31,C  28,H  29)    178.0645         0.011339   
    192. D(H  33,C  31,C  28,C  25)    -59.7835         0.011339   
    193. D(H  32,C  31,C  28,H  30)   -177.8855         0.011339   
    194. D(H  32,C  31,C  28,H  29)    -62.1104         0.011339   
    195. D(H  32,C  31,C  28,C  25)     60.0416         0.011339   
    -----------------------------------------------------------------

Number of atoms                         .... 39
Number of degrees of freedom            .... 195

         *************************************************************
         *                GEOMETRY OPTIMIZATION CYCLE   1            *
         *************************************************************
---------------------------------
CARTESIAN COORDINATES (ANGSTROEM)
---------------------------------
  C      4.021255   -0.105555   -0.005288
  C      2.818585   -0.052359    0.000049
  C     -2.818573    0.051745    0.000055
  C      1.393659    0.000000    0.000000
  C      0.714960    1.237147   -0.000000
  C     -0.672358    1.202059   -0.000217
  C     -1.393659   -0.000000   -0.000000
  C     -0.714822   -1.237125    0.000202
  C      0.672385   -1.202227    0.000465
  H     -1.234707    2.125148   -0.000887
  H      1.234543   -2.125420    0.000501
  C      1.500316    2.530052    0.003117
  H      2.148685    2.534853    0.886733
  C      0.693094    3.826397   -0.031015
  H      0.055703    3.845082   -0.922042
  H      0.018245    3.868977    0.831235
  C      1.582505    5.071449   -0.027653
  H      2.223927    5.053627    0.860219
  H      2.257870    5.035325   -0.889591
  C      0.790682    6.377272   -0.056776
  H      0.133172    6.461776    0.812750
  H      0.163563    6.440674   -0.950268
  C     -1.500315   -2.530072   -0.001108
  H     -2.169550   -2.525019    0.866666
  H     -2.169751   -2.522131   -0.868668
  C     -0.693122   -3.826648   -0.003657
  H     -0.035552   -3.855138   -0.879752
  H     -0.038107   -3.859801    0.874098
  C     -1.582598   -5.071540   -0.008963
  H     -2.244242   -5.046953    0.863949
  H     -2.238133   -5.042350   -0.886170
  C     -0.790535   -6.377632   -0.009557
  H     -0.152401   -6.454678    0.874998
  H     -0.143909   -6.448783   -0.888409
  C     -4.021148    0.107043   -0.002842
  H      5.082584   -0.153298   -0.008132
  H     -5.082515    0.153992   -0.004083
  H      1.454567    7.243811   -0.055741
  H     -1.454541   -7.244044   -0.015654

----------------------------
CARTESIAN COORDINATES (A.U.)
----------------------------
  NO LB      ZA    FRAG     MASS         X           Y           Z
   0 C     6.0000    0    12.011    7.599070   -0.199470   -0.009992
   1 C     6.0000    0    12.011    5.326354   -0.098943    0.000093
   2 C     6.0000    0    12.011   -5.326330    0.097783    0.000103
   3 C     6.0000    0    12.011    2.633633    0.000000    0.000000
   4 C     6.0000    0    12.011    1.351079    2.337870   -0.000000
   5 C     6.0000    0    12.011   -1.270573    2.271563   -0.000410
   6 C     6.0000    0    12.011   -2.633633   -0.000000   -0.000000
   7 C     6.0000    0    12.011   -1.350819   -2.337828    0.000382
   8 C     6.0000    0    12.011    1.270623   -2.271879    0.000879
   9 H     1.0000    0     1.008   -2.333258    4.015948   -0.001676
  10 H     1.0000    0     1.008    2.332949   -4.016462    0.000946
  11 C     6.0000    0    12.011    2.835187    4.781104    0.005891
  12 H     1.0000    0     1.008    4.060427    4.790177    1.675683
  13 C     6.0000    0    12.011    1.309757    7.230842   -0.058609
  14 H     1.0000    0     1.008    0.105264    7.266152   -1.742406
  15 H     1.0000    0     1.008    0.034478    7.311307    1.570806
  16 C     6.0000    0    12.011    2.990501    9.583649   -0.052256
  17 H     1.0000    0     1.008    4.202614    9.549971    1.625578
  18 H     1.0000    0     1.008    4.266757    9.515386   -1.681083
  19 C     6.0000    0    12.011    1.494173   12.051298   -0.107291
  20 H     1.0000    0     1.008    0.251658   12.210988    1.535874
  21 H     1.0000    0     1.008    0.309090   12.171110   -1.795745
  22 C     6.0000    0    12.011   -2.835185   -4.781143   -0.002094
  23 H     1.0000    0     1.008   -4.099855   -4.771594    1.637761
  24 H     1.0000    0     1.008   -4.100236   -4.766137   -1.641545
  25 C     6.0000    0    12.011   -1.309810   -7.231316   -0.006911
  26 H     1.0000    0     1.008   -0.067184   -7.285155   -1.662491
  27 H     1.0000    0     1.008   -0.072012   -7.293966    1.651806
  28 C     6.0000    0    12.011   -2.990676   -9.583821   -0.016938
  29 H     1.0000    0     1.008   -4.241004   -9.537359    1.632627
  30 H     1.0000    0     1.008   -4.229459   -9.528661   -1.674618
  31 C     6.0000    0    12.011   -1.493895  -12.051977   -0.018059
  32 H     1.0000    0     1.008   -0.287997  -12.197575    1.653506
  33 H     1.0000    0     1.008   -0.271949  -12.186434   -1.678849
  34 C     6.0000    0    12.011   -7.598868    0.202282   -0.005370
  35 H     1.0000    0     1.008    9.604692   -0.289691   -0.015368
  36 H     1.0000    0     1.008   -9.604562    0.291003   -0.007715
  37 H     1.0000    0     1.008    2.748734   13.688819   -0.105336
  38 H     1.0000    0     1.008   -2.748684  -13.689260   -0.029581

--------------------------------
INTERNAL COORDINATES (ANGSTROEM)
--------------------------------
 C      0   0   0     0.000000000000     0.00000000     0.00000000
 C      1   0   0     1.203857076632     0.00000000     0.00000000
 C      2   1   0     5.638119251409   178.50363365     0.00000000
 C      2   1   3     1.425888217630   179.50105652   338.90173731
 C      4   2   1     1.411086633428   120.85353620   210.86687857
 C      5   4   2     1.387761920996   117.30034524   179.99222448
 C      6   5   4     1.401863375292   122.41485317     0.00000000
 C      7   6   5     1.411133481108   120.27947144     0.00000000
 C      8   7   6     1.387646348646   117.31337577     0.00000000
 H      6   5   4     1.080892855044   119.90109021   180.04044018
 H      9   8   7     1.080883273782   119.89727687   180.00769194
 C      5   4   2     1.512744356891   119.97477233   359.86601625
 H     12   5   4     1.095984883155   108.21194902   302.06568303
 C     12   5   4     1.527509332378   116.80360948   178.57389866
 H     14  12   5     1.095693645981   109.88046130   301.81157975
 H     14  12   5     1.095768266505   109.92897137    58.48624734
 C     14  12   5     1.530103928367   112.54043221   180.11146288
 H     17  14  12     1.095470909427   109.20155305   302.40417201
 H     17  14  12     1.095609709221   109.25405862    57.96093231
 C     17  14  12     1.527418096054   113.22077308   180.19569179
 H     20  17  14     1.093405655023   111.26298617    60.02490164
 H     20  17  14     1.093446450698   111.25201110   300.20526395
 C      8   7   6     1.512848780336   119.96591861   180.06749764
 H     23   8   7     1.095870924105   108.20701101   303.46272917
 H     23   8   7     1.095841281134   108.16016191    56.35991169
 C     23   8   7     1.527310222597   116.81581982   179.87986148
 H     26  23   8     1.095787989935   109.91080347   301.80953668
 H     26  23   8     1.095717639302   109.89438895    58.48003791
 C     26  23   8     1.530016852502   112.54969228   180.16815780
 H     29  26  23     1.095606289580   109.27241885   302.32164834
 H     29  26  23     1.095477300878   109.20676463    57.88084967
 C     29  26  23     1.527494702029   113.21991690   180.08204844
 H     32  29  26     1.093428987579   111.25739340    60.04162327
 H     32  29  26     1.093420895170   111.26026010   300.21647161
 C      3   2   1     1.203849298127   178.41915491   194.77752437
 H      1   2   4     1.062406301441   179.89060609   262.28867715
 H     35   3   7     1.062406061917   179.87740535   201.14468535
 H     20  17  14     1.091620136040   111.30614148   180.12133675
 H     32  29  26     1.091609964378   111.29959344   180.12816969

---------------------------
INTERNAL COORDINATES (A.U.)
---------------------------
 C      0   0   0     0.000000000000     0.00000000     0.00000000
 C      1   0   0     2.274960179217     0.00000000     0.00000000
 C      2   1   0    10.654501295552   178.50363365     0.00000000
 C      2   1   3     2.694538228906   179.50105652   338.90173731
 C      4   2   1     2.666567288416   120.85353620   210.86687857
 C      5   4   2     2.622489969766   117.30034524   179.99222448
 C      6   5   4     2.649137856476   122.41485317     0.00000000
 C      7   6   5     2.666655817701   120.27947144     0.00000000
 C      8   7   6     2.622271569676   117.31337577     0.00000000
 H      6   5   4     2.042591476145   119.90109021   180.04044018
 H      9   8   7     2.042573370184   119.89727687   180.00769194
 C      5   4   2     2.858672545160   119.97477233   359.86601625
 H     12   5   4     2.071111276080   108.21194902   302.06568303
 C     12   5   4     2.886574305204   116.80360948   178.57389866
 H     14  12   5     2.070560917582   109.88046130   301.81157975
 H     14  12   5     2.070701929936   109.92897137    58.48624734
 C     14  12   5     2.891477381051   112.54043221   180.11146288
 H     17  14  12     2.070140006495   109.20155305   302.40417201
 H     17  14  12     2.070402300094   109.25405862    57.96093231
 C     17  14  12     2.886401893538   113.22077308   180.19569179
 H     20  17  14     2.066237241275   111.26298617    60.02490164
 H     20  17  14     2.066314333927   111.25201110   300.20526395
 C      8   7   6     2.858869876871   119.96591861   180.06749764
 H     23   8   7     2.070895924685   108.20701101   303.46272917
 H     23   8   7     2.070839907588   108.16016191    56.35991169
 C     23   8   7     2.886198042247   116.81581982   179.87986148
 H     26  23   8     2.070739201817   109.91080347   301.80953668
 H     26  23   8     2.070606258388   109.89438895    58.48003791
 C     26  23   8     2.891312831512   112.54969228   180.16815780
 H     29  26  23     2.070395837908   109.27241885   302.32164834
 H     29  26  23     2.070152084587   109.20676463    57.88084967
 C     29  26  23     2.886546657851   113.21991690   180.08204844
 H     32  29  26     2.066281333415   111.25739340    60.04162327
 H     32  29  26     2.066266040979   111.26026010   300.21647161
 C      3   2   1     2.274945479974   178.41915491   194.77752437
 H      1   2   4     2.007656952677   179.89060609   262.28867715
 H     35   3   7     2.007656500042   179.87740535   201.14468535
 H     20  17  14     2.062863099390   111.30614148   180.12133675
 H     32  29  26     2.062843877734   111.29959344   180.12816969

---------------------
BASIS SET INFORMATION
---------------------
There are 2 groups of distinct atoms

 Group   1 Type C   : 17s4p1d contracted to 3s2p1d pattern {881/31/1}
 Group   2 Type H   : 4s1p contracted to 2s1p pattern {31/1}

Atom   0C    basis set group =>   1
Atom   1C    basis set group =>   1
Atom   2C    basis set group =>   1
Atom   3C    basis set group =>   1
Atom   4C    basis set group =>   1
Atom   5C    basis set group =>   1
Atom   6C    basis set group =>   1
Atom   7C    basis set group =>   1
Atom   8C    basis set group =>   1
Atom   9H    basis set group =>   2
Atom  10H    basis set group =>   2
Atom  11C    basis set group =>   1
Atom  12H    basis set group =>   2
Atom  13C    basis set group =>   1
Atom  14H    basis set group =>   2
Atom  15H    basis set group =>   2
Atom  16C    basis set group =>   1
Atom  17H    basis set group =>   2
Atom  18H    basis set group =>   2
Atom  19C    basis set group =>   1
Atom  20H    basis set group =>   2
Atom  21H    basis set group =>   2
Atom  22C    basis set group =>   1
Atom  23H    basis set group =>   2
Atom  24H    basis set group =>   2
Atom  25C    basis set group =>   1
Atom  26H    basis set group =>   2
Atom  27H    basis set group =>   2
Atom  28C    basis set group =>   1
Atom  29H    basis set group =>   2
Atom  30H    basis set group =>   2
Atom  31C    basis set group =>   1
Atom  32H    basis set group =>   2
Atom  33H    basis set group =>   2
Atom  34C    basis set group =>   1
Atom  35H    basis set group =>   2
Atom  36H    basis set group =>   2
Atom  37H    basis set group =>   2
Atom  38H    basis set group =>   2


           ************************************************************
           *        Program running with 16 parallel MPI-processes    *
           *              working on a common directory               *
           ************************************************************
------------------------------------------------------------------------------
                           ORCA GTO INTEGRAL CALCULATION
------------------------------------------------------------------------------

                         BASIS SET STATISTICS AND STARTUP INFO

 # of primitive gaussian shells          ...  501
 # of primitive gaussian functions       ...  759
 # of contracted shells                  ...  171
 # of contracted basis functions         ...  357
 Highest angular momentum                ...    2
 Maximum contraction depth               ...    8
 Integral package used                   ... LIBINT
 Integral threshhold            Thresh   ...  2.500e-11
 Primitive cut-off              TCut     ...  2.500e-12


------------------------------ INTEGRAL EVALUATION ----------------------------


 * One electron integrals 
 Pre-screening matrix                    ... done
 Shell pair data                         ... done (   0.006 sec)



           ************************************************************
           *        Program running with 16 parallel MPI-processes    *
           *              working on a common directory               *
           ************************************************************
-------------------------------------------------------------------------------
                                 ORCA SCF
-------------------------------------------------------------------------------

------------
SCF SETTINGS
------------
Hamiltonian:
 Density Functional     Method          .... DFT(GTOs)
 Exchange Functional    Exchange        .... B88
   X-Alpha parameter    XAlpha          ....  0.666667
   Becke's b parameter  XBeta           ....  0.004200
 Correlation Functional Correlation     .... LYP
 LDA part of GGA corr.  LDAOpt          .... VWN-5
 Gradients option       PostSCFGGA      .... off
 Hybrid DFT is turned on
   Fraction HF Exchange ScalHFX         ....  0.200000
   Scaling of DF-GGA-X  ScalDFX         ....  0.720000
   Scaling of DF-GGA-C  ScalDFC         ....  0.810000
   Scaling of DF-LDA-C  ScalLDAC        ....  1.000000
   Perturbative correction              ....  0.000000
   Density functional embedding theory  .... OFF
   NL short-range parameter             ....  4.800000


General Settings:
 Integral files         IntName         .... opt
 Hartree-Fock type      HFTyp           .... UHF
 Total Charge           Charge          ....    0
 Multiplicity           Mult            ....    2
 Number of Electrons    NEL             ....  129
 Basis Dimension        Dim             ....  357
 Nuclear Repulsion      ENuc            ....   1149.3004299088 Eh

Convergence Acceleration:
 DIIS                   CNVDIIS         .... on
   Start iteration      DIISMaxIt       ....    12
   Startup error        DIISStart       ....  0.200000
   # of expansion vecs  DIISMaxEq       ....     5
   Bias factor          DIISBfac        ....   1.050
   Max. coefficient     DIISMaxC        ....  10.000
 Newton-Raphson         CNVNR           .... off
 SOSCF                  CNVSOSCF        .... off
 Level Shifting         CNVShift        .... on
   Level shift para.    LevelShift      ....    0.2500
   Turn off err/grad.   ShiftErr        ....    0.0010
 Zerner damping         CNVZerner       .... off
 Static damping         CNVDamp         .... on
   Fraction old density DampFac         ....    0.7000
   Max. Damping (<1)    DampMax         ....    0.9800
   Min. Damping (>=0)   DampMin         ....    0.0000
   Turn off err/grad.   DampErr         ....    0.1000
 Fernandez-Rico         CNVRico         .... off

SCF Procedure:
 Maximum # iterations   MaxIter         ....   125
 SCF integral mode      SCFMode         .... Direct
   Integral package                     .... LIBINT
 Reset frequency        DirectResetFreq ....    20
 Integral Threshold     Thresh          ....  2.500e-11 Eh
 Primitive CutOff       TCut            ....  2.500e-12 Eh

Convergence Tolerance:
 Convergence Check Mode ConvCheckMode   .... Total+1el-Energy
 Convergence forced     ConvForced      .... 0
 Energy Change          TolE            ....  1.000e-08 Eh
 1-El. energy change                    ....  1.000e-05 Eh
 DIIS Error             TolErr          ....  5.000e-07


Diagonalization of the overlap matrix:
Smallest eigenvalue                        ... 1.196e-04
Time for diagonalization                   ...    0.029 sec
Threshold for overlap eigenvalues          ... 1.000e-08
Number of eigenvalues below threshold      ... 0
Time for construction of square roots      ...    0.043 sec
Total time needed                          ...    0.073 sec

-------------------
DFT GRID GENERATION
-------------------

General Integration Accuracy     IntAcc      ...  4.340
Radial Grid Type                 RadialGrid  ... Gauss-Chebyshev
Angular Grid (max. acc.)         AngularGrid ... Lebedev-110
Angular grid pruning method      GridPruning ... 3 (G Style)
Weight generation scheme         WeightScheme... Becke
Basis function cutoff            BFCut       ...    1.0000e-11
Integration weight cutoff        WCut        ...    1.0000e-14
Grids for H and He will be reduced by one unit

# of grid points (after initial pruning)     ...  46482 (   0.0 sec)
# of grid points (after weights+screening)   ...  41686 (   0.1 sec)
nearest neighbour list constructed           ...    0.0 sec
Grid point re-assignment to atoms done       ...    0.0 sec
Grid point division into batches done        ...    0.0 sec
Reduced shell lists constructed in    0.1 sec

Total number of grid points                  ...    41686
Total number of batches                      ...      671
Average number of points per batch           ...       62
Average number of grid points per atom       ...     1069
Average number of shells per batch           ...    85.33 (49.90%)
Average number of basis functions per batch  ...   168.72 (47.26%)
Average number of large shells per batch     ...    49.86 (58.44%)
Average number of large basis fcns per batch ...   104.23 (61.78%)
Maximum spatial batch extension              ...  14.37, 11.70, 30.25 au
Average spatial batch extension              ...   0.15,  0.21,  0.31 au

Time for grid setup =    0.262 sec

------------------------------
INITIAL GUESS: MODEL POTENTIAL
------------------------------
Loading Hartree-Fock densities                     ... done
Calculating cut-offs                               ... done
Setting up the integral package                    ... done
Initializing the effective Hamiltonian             ... done
Starting the Coulomb interaction                   ... done (   0.2 sec)
Reading the grid                                   ... done
Mapping shells                                     ... done
Starting the XC term evaluation                    ... done (   0.1 sec)
  promolecular density results
     # of electrons  =    129.026862363
     EX              =    -98.690902971
     EC              =     -4.224012536
     EX+EC           =   -102.914915506
Transforming the Hamiltonian                       ... done (   0.0 sec)
Diagonalizing the Hamiltonian                      ... done (   0.0 sec)
Back transforming the eigenvectors                 ... done (   0.0 sec)
Now organizing SCF variables                       ... done
                      ------------------
                      INITIAL GUESS DONE (   0.7 sec)
                      ------------------
--------------
SCF ITERATIONS
--------------
ITER       Energy         Delta-E        Max-DP      RMS-DP      [F,P]     Damp
               ***  Starting incremental Fock matrix formation  ***
  0   -697.4854872927   0.000000000000 0.07153686  0.00104628  0.1772730 0.7000
  1   -697.6866598314  -0.201172538688 0.05228558  0.00076746  0.0936169 0.7000
                               ***Turning on DIIS***
  2   -697.7777864120  -0.091126580635 0.10205744  0.00147286  0.0361221 0.0000
  3   -697.9068280426  -0.129041630580 0.02118932  0.00038989  0.0505505 0.0000
  4   -697.9401761173  -0.033348074701 0.00864572  0.00013886  0.0115836 0.0000
  5   -697.9422420987  -0.002065981385 0.00208837  0.00004253  0.0028836 0.0000
  6   -697.9425173180  -0.000275219327 0.00180345  0.00002266  0.0013446 0.0000
  7   -697.9426039298  -0.000086611861 0.00168905  0.00002733  0.0009334 0.0000
  8   -697.9426668027  -0.000062872832 0.00044783  0.00000554  0.0010048 0.0000
  9   -697.9426736523  -0.000006849608 0.00050392  0.00000804  0.0001963 0.0000
 10   -697.9426786872  -0.000005034883 0.00019864  0.00000267  0.0001630 0.0000
 11   -697.9426794646  -0.000000777471 0.00012242  0.00000114  0.0000823 0.0000
 12   -697.9426796830  -0.000000218409 0.00006959  0.00000075  0.0000947 0.0000
 13   -697.9426798031  -0.000000120075 0.00005720  0.00000062  0.0000332 0.0000
 14   -697.9426798848  -0.000000081654 0.00004444  0.00000048  0.0000062 0.0000
 15   -697.9426799350  -0.000000050257 0.00003970  0.00000046  0.0000067 0.0000
 16   -697.9426799746  -0.000000039545 0.00003413  0.00000042  0.0000038 0.0000
 17   -697.9426799994  -0.000000024836 0.00003906  0.00000048  0.0000027 0.0000
 18   -697.9426800155  -0.000000016111 0.00002954  0.00000037  0.0000016 0.0000
                 **** Energy Check signals convergence ****

               *****************************************************
               *                     SUCCESS                       *
               *           SCF CONVERGED AFTER  19 CYCLES          *
               *****************************************************

Setting up the final grid:

General Integration Accuracy     IntAcc      ...  4.670
Radial Grid Type                 RadialGrid  ... Gauss-Chebyshev
Angular Grid (max. acc.)         AngularGrid ... Lebedev-302
Angular grid pruning method      GridPruning ... 3 (G Style)
Weight generation scheme         WeightScheme... Becke
Basis function cutoff            BFCut       ...    1.0000e-11
Integration weight cutoff        WCut        ...    1.0000e-14
Grids for H and He will be reduced by one unit

# of grid points (after initial pruning)     ... 183090 (   0.0 sec)
# of grid points (after weights+screening)   ... 161491 (   0.3 sec)
nearest neighbour list constructed           ...    0.0 sec
Grid point re-assignment to atoms done       ...    0.0 sec
Grid point division into batches done        ...    0.6 sec
Reduced shell lists constructed in    0.8 sec

Total number of grid points                  ...   161491
Total number of batches                      ...     2545
Average number of points per batch           ...       63
Average number of grid points per atom       ...     4141
Average number of shells per batch           ...    78.40 (45.85%)
Average number of basis functions per batch  ...   155.29 (43.50%)
Average number of large shells per batch     ...    45.23 (57.69%)
Average number of large basis fcns per batch ...    94.58 (60.91%)
Maximum spatial batch extension              ...  16.58, 14.61, 23.33 au
Average spatial batch extension              ...   0.14,  0.14,  0.15 au

Final grid set up in    1.2 sec
Final integration                            ... done (   0.5 sec)
Change in XC energy                          ...     0.002228090
Integrated number of electrons               ...   129.000361383
Previous integrated no of electrons          ...   129.020739110

----------------
TOTAL SCF ENERGY
----------------

Total Energy       :         -697.94045193 Eh          -18991.92523 eV

Components:
Nuclear Repulsion  :         1149.30042991 Eh           31274.05464 eV
Electronic Energy  :        -1847.24088184 Eh          -50265.97987 eV
One Electron Energy:        -3221.56728587 Eh          -87663.30256 eV
Two Electron Energy:         1374.32640402 Eh           37397.32270 eV

Virial components:
Potential Energy   :        -1391.45779308 Eh          -37863.49149 eV
Kinetic Energy     :          693.51734114 Eh           18871.56626 eV
Virial Ratio       :            2.00637779


DFT components:
N(Alpha)           :       65.000181895071 electrons
N(Beta)            :       64.000179487947 electrons
N(Total)           :      129.000361383018 electrons
E(X)               :      -79.912058327786 Eh       
E(C)               :       -4.992709974450 Eh       
E(XC)              :      -84.904768302235 Eh       
DFET-embed. en.    :        0.000000000000 Eh       

---------------
SCF CONVERGENCE
---------------

  Last Energy change         ...   -6.7967e-09  Tolerance :   1.0000e-08
  Last MAX-Density change    ...    1.0644e-05  Tolerance :   1.0000e-07
  Last RMS-Density change    ...    1.2862e-07  Tolerance :   5.0000e-09
  Last DIIS Error            ...    1.6006e-06  Tolerance :   5.0000e-07

             **** THE GBW FILE WAS UPDATED (opt.gbw) ****
             **** DENSITY FILE WAS UPDATED (opt.scfp) ****
             **** ENERGY FILE WAS UPDATED (opt.en.tmp) ****
----------------------
UHF SPIN CONTAMINATION
----------------------

Warning: in a DFT calculation there is little theoretical justification to 
         calculate <S**2> as in Hartree-Fock theory. We will do it anyways
         but you should keep in mind that the values have only limited relevance

Expectation value of <S**2>     :     0.763094
Ideal value S*(S+1) for S=0.5   :     0.750000
Deviation                       :     0.013094

             **** THE GBW FILE WAS UPDATED (opt.gbw) ****
             **** DENSITY FILE WAS UPDATED (opt.scfp) ****
----------------
ORBITAL ENERGIES
----------------
                 SPIN UP ORBITALS
  NO   OCC          E(Eh)            E(eV) 
   0   1.0000     -10.213006      -277.9100 
   1   1.0000     -10.211900      -277.8799 
   2   1.0000     -10.203367      -277.6477 
   3   1.0000     -10.202291      -277.6185 
   4   1.0000     -10.201263      -277.5905 
   5   1.0000     -10.193926      -277.3908 
   6   1.0000     -10.190513      -277.2979 
   7   1.0000     -10.190251      -277.2908 
   8   1.0000     -10.186987      -277.2020 
   9   1.0000     -10.186463      -277.1877 
  10   1.0000     -10.185078      -277.1501 
  11   1.0000     -10.183278      -277.1011 
  12   1.0000     -10.182459      -277.0788 
  13   1.0000     -10.180623      -277.0288 
  14   1.0000     -10.179966      -277.0110 
  15   1.0000     -10.178150      -276.9615 
  16   1.0000     -10.173051      -276.8228 
  17   1.0000     -10.171790      -276.7885 
  18   1.0000      -0.881221       -23.9792 
  19   1.0000      -0.821078       -22.3427 
  20   1.0000      -0.799631       -21.7591 
  21   1.0000      -0.797827       -21.7100 
  22   1.0000      -0.770055       -20.9543 
  23   1.0000      -0.755563       -20.5599 
  24   1.0000      -0.731835       -19.9142 
  25   1.0000      -0.723707       -19.6931 
  26   1.0000      -0.701460       -19.0877 
  27   1.0000      -0.655668       -17.8416 
  28   1.0000      -0.643272       -17.5043 
  29   1.0000      -0.619895       -16.8682 
  30   1.0000      -0.597464       -16.2578 
  31   1.0000      -0.581581       -15.8256 
  32   1.0000      -0.565650       -15.3921 
  33   1.0000      -0.543424       -14.7873 
  34   1.0000      -0.526004       -14.3133 
  35   1.0000      -0.501004       -13.6330 
  36   1.0000      -0.486854       -13.2480 
  37   1.0000      -0.480870       -13.0851 
  38   1.0000      -0.474933       -12.9236 
  39   1.0000      -0.466016       -12.6809 
  40   1.0000      -0.433988       -11.8094 
  41   1.0000      -0.426924       -11.6172 
  42   1.0000      -0.425813       -11.5870 
  43   1.0000      -0.423932       -11.5358 
  44   1.0000      -0.415055       -11.2942 
  45   1.0000      -0.404759       -11.0141 
  46   1.0000      -0.398031       -10.8310 
  47   1.0000      -0.384314       -10.4577 
  48   1.0000      -0.373157       -10.1541 
  49   1.0000      -0.365845        -9.9552 
  50   1.0000      -0.360262        -9.8032 
  51   1.0000      -0.353502        -9.6193 
  52   1.0000      -0.337312        -9.1787 
  53   1.0000      -0.333031        -9.0622 
  54   1.0000      -0.331697        -9.0259 
  55   1.0000      -0.328679        -8.9438 
  56   1.0000      -0.326510        -8.8848 
  57   1.0000      -0.324280        -8.8241 
  58   1.0000      -0.323602        -8.8057 
  59   1.0000      -0.285055        -7.7567 
  60   1.0000      -0.279330        -7.6010 
  61   1.0000      -0.276945        -7.5360 
  62   1.0000      -0.267355        -7.2751 
  63   1.0000      -0.231292        -6.2938 
  64   1.0000      -0.201562        -5.4848 
  65   0.0000      -0.049995        -1.3604 
  66   0.0000       0.002109         0.0574 
  67   0.0000       0.044003         1.1974 
  68   0.0000       0.052443         1.4271 
  69   0.0000       0.054206         1.4750 
  70   0.0000       0.061281         1.6675 
  71   0.0000       0.065004         1.7689 
  72   0.0000       0.084756         2.3063 
  73   0.0000       0.088670         2.4128 
  74   0.0000       0.091544         2.4911 
  75   0.0000       0.094577         2.5736 
  76   0.0000       0.094990         2.5848 
  77   0.0000       0.095572         2.6006 
  78   0.0000       0.098029         2.6675 
  79   0.0000       0.109585         2.9819 
  80   0.0000       0.120499         3.2789 
  81   0.0000       0.127832         3.4785 
  82   0.0000       0.131675         3.5831 
  83   0.0000       0.147447         4.0122 
  84   0.0000       0.150420         4.0931 
  85   0.0000       0.153738         4.1834 
  86   0.0000       0.161567         4.3965 
  87   0.0000       0.162497         4.4218 
  88   0.0000       0.163469         4.4482 
  89   0.0000       0.171376         4.6634 
  90   0.0000       0.175111         4.7650 
  91   0.0000       0.180330         4.9070 
  92   0.0000       0.198565         5.4032 
  93   0.0000       0.208037         5.6610 
  94   0.0000       0.212239         5.7753 
  95   0.0000       0.218137         5.9358 
  96   0.0000       0.221010         6.0140 
  97   0.0000       0.239868         6.5271 
  98   0.0000       0.242369         6.5952 
  99   0.0000       0.260172         7.0796 
 100   0.0000       0.267654         7.2832 
 101   0.0000       0.289805         7.8860 
 102   0.0000       0.304781         8.2935 
 103   0.0000       0.325646         8.8613 
 104   0.0000       0.329190         8.9577 
 105   0.0000       0.347639         9.4597 
 106   0.0000       0.366920         9.9844 
 107   0.0000       0.372250        10.1294 
 108   0.0000       0.375369        10.2143 
 109   0.0000       0.410783        11.1780 
 110   0.0000       0.412812        11.2332 
 111   0.0000       0.413642        11.2558 
 112   0.0000       0.416549        11.3349 
 113   0.0000       0.419887        11.4257 
 114   0.0000       0.433450        11.7948 
 115   0.0000       0.435681        11.8555 
 116   0.0000       0.441807        12.0222 
 117   0.0000       0.455778        12.4024 
 118   0.0000       0.459993        12.5171 
 119   0.0000       0.467781        12.7290 
 120   0.0000       0.475066        12.9272 
 121   0.0000       0.482251        13.1227 
 122   0.0000       0.492354        13.3976 
 123   0.0000       0.493954        13.4412 
 124   0.0000       0.502142        13.6640 
 125   0.0000       0.508564        13.8387 
 126   0.0000       0.511552        13.9200 
 127   0.0000       0.513102        13.9622 
 128   0.0000       0.524990        14.2857 
 129   0.0000       0.545062        14.8319 
 130   0.0000       0.545708        14.8495 
 131   0.0000       0.552847        15.0437 
 132   0.0000       0.557013        15.1571 
 133   0.0000       0.559264        15.2184 
 134   0.0000       0.573757        15.6127 
 135   0.0000       0.594575        16.1792 
 136   0.0000       0.598251        16.2792 
 137   0.0000       0.606127        16.4936 
 138   0.0000       0.610831        16.6216 
 139   0.0000       0.617516        16.8035 
 140   0.0000       0.622173        16.9302 
 141   0.0000       0.623283        16.9604 
 142   0.0000       0.634022        17.2526 
 143   0.0000       0.644725        17.5439 
 144   0.0000       0.646816        17.6008 
 145   0.0000       0.647519        17.6199 
 146   0.0000       0.651512        17.7285 
 147   0.0000       0.655110        17.8265 
 148   0.0000       0.659075        17.9343 
 149   0.0000       0.662479        18.0270 
 150   0.0000       0.664233        18.0747 
 151   0.0000       0.666867        18.1464 
 152   0.0000       0.671152        18.2630 
 153   0.0000       0.672846        18.3091 
 154   0.0000       0.677234        18.4285 
 155   0.0000       0.680518        18.5178 
 156   0.0000       0.685666        18.6579 
 157   0.0000       0.688834        18.7441 
 158   0.0000       0.697529        18.9807 
 159   0.0000       0.700188        19.0531 
 160   0.0000       0.702247        19.1091 
 161   0.0000       0.717130        19.5141 
 162   0.0000       0.720966        19.6185 
 163   0.0000       0.723049        19.6752 
 164   0.0000       0.727533        19.7972 
 165   0.0000       0.737594        20.0710 
 166   0.0000       0.739703        20.1283 
 167   0.0000       0.744591        20.2614 
 168   0.0000       0.759828        20.6760 
 169   0.0000       0.767532        20.8856 
 170   0.0000       0.774090        21.0641 
 171   0.0000       0.793319        21.5873 
 172   0.0000       0.811288        22.0763 
 173   0.0000       0.826790        22.4981 
 174   0.0000       0.829314        22.5668 
 175   0.0000       0.833915        22.6920 
 176   0.0000       0.843643        22.9567 
 177   0.0000       0.854733        23.2585 
 178   0.0000       0.857247        23.3269 
 179   0.0000       0.877184        23.8694 
 180   0.0000       0.883470        24.0404 
 181   0.0000       0.898906        24.4605 
 182   0.0000       0.919272        25.0147 
 183   0.0000       0.936884        25.4939 
 184   0.0000       0.951556        25.8931 
 185   0.0000       0.972712        26.4688 
 186   0.0000       0.984418        26.7874 
 187   0.0000       0.993112        27.0239 
 188   0.0000       0.998935        27.1824 
 189   0.0000       1.022736        27.8301 
 190   0.0000       1.033521        28.1235 
 191   0.0000       1.042865        28.3778 
 192   0.0000       1.049845        28.5677 
 193   0.0000       1.058235        28.7960 
 194   0.0000       1.065740        29.0003 
 195   0.0000       1.071681        29.1619 
 196   0.0000       1.083182        29.4749 
 197   0.0000       1.088611        29.6226 
 198   0.0000       1.099150        29.9094 
 199   0.0000       1.150315        31.3017 
 200   0.0000       1.167990        31.7826 
 201   0.0000       1.172270        31.8991 
 202   0.0000       1.191326        32.4176 
 203   0.0000       1.201246        32.6876 
 204   0.0000       1.206499        32.8305 
 205   0.0000       1.215466        33.0745 
 206   0.0000       1.216252        33.0959 
 207   0.0000       1.216827        33.1115 
 208   0.0000       1.222877        33.2762 
 209   0.0000       1.225139        33.3377 
 210   0.0000       1.238657        33.7056 
 211   0.0000       1.249524        34.0013 
 212   0.0000       1.274120        34.6706 
 213   0.0000       1.284655        34.9572 
 214   0.0000       1.306636        35.5554 
 215   0.0000       1.309873        35.6435 
 216   0.0000       1.328510        36.1506 
 217   0.0000       1.331911        36.2431 
 218   0.0000       1.332309        36.2540 
 219   0.0000       1.337465        36.3943 
 220   0.0000       1.347465        36.6664 
 221   0.0000       1.363277        37.0966 
 222   0.0000       1.380609        37.5683 
 223   0.0000       1.391326        37.8599 
 224   0.0000       1.401223        38.1292 
 225   0.0000       1.408838        38.3364 
 226   0.0000       1.418169        38.5903 
 227   0.0000       1.431783        38.9608 
 228   0.0000       1.432891        38.9909 
 229   0.0000       1.433410        39.0051 
 230   0.0000       1.444027        39.2940 
 231   0.0000       1.468188        39.9514 
 232   0.0000       1.471057        40.0295 
 233   0.0000       1.474753        40.1301 
 234   0.0000       1.483510        40.3684 
 235   0.0000       1.492471        40.6122 
 236   0.0000       1.506304        40.9886 
 237   0.0000       1.522155        41.4199 
 238   0.0000       1.529218        41.6121 
 239   0.0000       1.539649        41.8960 
 240   0.0000       1.553676        42.2777 
 241   0.0000       1.568417        42.6788 
 242   0.0000       1.581895        43.0455 
 243   0.0000       1.592977        43.3471 
 244   0.0000       1.598571        43.4993 
 245   0.0000       1.609276        43.7906 
 246   0.0000       1.624616        44.2080 
 247   0.0000       1.630125        44.3580 
 248   0.0000       1.634990        44.4903 
 249   0.0000       1.638090        44.5747 
 250   0.0000       1.644793        44.7571 
 251   0.0000       1.645321        44.7715 
 252   0.0000       1.652950        44.9791 
 253   0.0000       1.654392        45.0183 
 254   0.0000       1.661756        45.2187 
 255   0.0000       1.670765        45.4638 
 256   0.0000       1.676751        45.6267 
 257   0.0000       1.684049        45.8253 
 258   0.0000       1.689867        45.9836 
 259   0.0000       1.698362        46.2148 
 260   0.0000       1.699005        46.2323 
 261   0.0000       1.705879        46.4193 
 262   0.0000       1.709464        46.5169 
 263   0.0000       1.712776        46.6070 
 264   0.0000       1.717244        46.7286 
 265   0.0000       1.720619        46.8204 
 266   0.0000       1.725777        46.9608 
 267   0.0000       1.732924        47.1553 
 268   0.0000       1.739418        47.3320 
 269   0.0000       1.743307        47.4378 
 270   0.0000       1.762459        47.9590 
 271   0.0000       1.766688        48.0740 
 272   0.0000       1.776593        48.3436 
 273   0.0000       1.784244        48.5517 
 274   0.0000       1.799966        48.9796 
 275   0.0000       1.801244        49.0143 
 276   0.0000       1.804253        49.0962 
 277   0.0000       1.810965        49.2789 
 278   0.0000       1.815383        49.3991 
 279   0.0000       1.834331        49.9147 
 280   0.0000       1.848094        50.2892 
 281   0.0000       1.858198        50.5641 
 282   0.0000       1.884543        51.2810 
 283   0.0000       1.892441        51.4959 
 284   0.0000       1.899121        51.6777 
 285   0.0000       1.908815        51.9415 
 286   0.0000       1.918296        52.1995 
 287   0.0000       1.923565        52.3429 
 288   0.0000       1.932492        52.5858 
 289   0.0000       1.939041        52.7640 
 290   0.0000       1.950458        53.0747 
 291   0.0000       1.969912        53.6040 
 292   0.0000       1.995015        54.2871 
 293   0.0000       2.012563        54.7646 
 294   0.0000       2.017409        54.8965 
 295   0.0000       2.031994        55.2934 
 296   0.0000       2.034373        55.3581 
 297   0.0000       2.046956        55.7005 
 298   0.0000       2.065840        56.2144 
 299   0.0000       2.077711        56.5374 
 300   0.0000       2.100067        57.1457 
 301   0.0000       2.103986        57.2524 
 302   0.0000       2.109637        57.4062 
 303   0.0000       2.116838        57.6021 
 304   0.0000       2.136379        58.1338 
 305   0.0000       2.139943        58.2308 
 306   0.0000       2.156418        58.6791 
 307   0.0000       2.172921        59.1282 
 308   0.0000       2.206741        60.0485 
 309   0.0000       2.213436        60.2307 
 310   0.0000       2.223552        60.5059 
 311   0.0000       2.230764        60.7022 
 312   0.0000       2.236400        60.8555 
 313   0.0000       2.243655        61.0530 
 314   0.0000       2.253717        61.3267 
 315   0.0000       2.265001        61.6338 
 316   0.0000       2.280388        62.0525 
 317   0.0000       2.308251        62.8107 
 318   0.0000       2.308998        62.8310 
 319   0.0000       2.314493        62.9806 
 320   0.0000       2.326090        63.2961 
 321   0.0000       2.332884        63.4810 
 322   0.0000       2.338861        63.6436 
 323   0.0000       2.348965        63.9186 
 324   0.0000       2.374978        64.6264 
 325   0.0000       2.396747        65.2188 
 326   0.0000       2.421545        65.8936 
 327   0.0000       2.432522        66.1923 
 328   0.0000       2.436588        66.3029 
 329   0.0000       2.437318        66.3228 
 330   0.0000       2.441200        66.4284 
 331   0.0000       2.441415        66.4343 
 332   0.0000       2.464291        67.0568 
 333   0.0000       2.506829        68.2143 
 334   0.0000       2.516069        68.4657 
 335   0.0000       2.523466        68.6670 
 336   0.0000       2.539292        69.0977 
 337   0.0000       2.551810        69.4383 
 338   0.0000       2.580480        70.2184 
 339   0.0000       2.603810        70.8533 
 340   0.0000       2.607766        70.9609 
 341   0.0000       2.628090        71.5140 
 342   0.0000       2.652735        72.1846 
 343   0.0000       2.687181        73.1219 
 344   0.0000       2.717440        73.9453 
 345   0.0000       2.730835        74.3098 
 346   0.0000       2.736893        74.4746 
 347   0.0000       2.740264        74.5664 
 348   0.0000       2.788587        75.8813 
 349   0.0000       2.839863        77.2766 
 350   0.0000       2.850138        77.5562 
 351   0.0000       2.877744        78.3074 
 352   0.0000       2.894048        78.7511 
 353   0.0000       2.971678        80.8635 
 354   0.0000       3.237197        88.0886 
 355   0.0000       3.246570        88.3437 
 356   0.0000       3.417489        92.9946 

                 SPIN DOWN ORBITALS
  NO   OCC          E(Eh)            E(eV) 
   0   1.0000     -10.212635      -277.8999 
   1   1.0000     -10.211388      -277.8660 
   2   1.0000     -10.202661      -277.6285 
   3   1.0000     -10.201872      -277.6070 
   4   1.0000     -10.192209      -277.3441 
   5   1.0000     -10.191266      -277.3185 
   6   1.0000     -10.190065      -277.2858 
   7   1.0000     -10.189043      -277.2580 
   8   1.0000     -10.187284      -277.2101 
   9   1.0000     -10.186545      -277.1900 
  10   1.0000     -10.185363      -277.1578 
  11   1.0000     -10.183589      -277.1096 
  12   1.0000     -10.181898      -277.0635 
  13   1.0000     -10.180622      -277.0288 
  14   1.0000     -10.179966      -277.0110 
  15   1.0000     -10.177982      -276.9570 
  16   1.0000     -10.173051      -276.8228 
  17   1.0000     -10.171795      -276.7886 
  18   1.0000      -0.879301       -23.9270 
  19   1.0000      -0.817752       -22.2522 
  20   1.0000      -0.799153       -21.7461 
  21   1.0000      -0.793963       -21.6048 
  22   1.0000      -0.768823       -20.9207 
  23   1.0000      -0.755067       -20.5464 
  24   1.0000      -0.727836       -19.8054 
  25   1.0000      -0.722523       -19.6608 
  26   1.0000      -0.698244       -19.0002 
  27   1.0000      -0.653633       -17.7863 
  28   1.0000      -0.642171       -17.4744 
  29   1.0000      -0.613113       -16.6836 
  30   1.0000      -0.596430       -16.2297 
  31   1.0000      -0.580146       -15.7866 
  32   1.0000      -0.561990       -15.2925 
  33   1.0000      -0.542635       -14.7658 
  34   1.0000      -0.523858       -14.2549 
  35   1.0000      -0.498916       -13.5762 
  36   1.0000      -0.486073       -13.2267 
  37   1.0000      -0.479869       -13.0579 
  38   1.0000      -0.474528       -12.9126 
  39   1.0000      -0.461323       -12.5532 
  40   1.0000      -0.433440       -11.7945 
  41   1.0000      -0.425279       -11.5724 
  42   1.0000      -0.423339       -11.5196 
  43   1.0000      -0.422554       -11.4983 
  44   1.0000      -0.413715       -11.2578 
  45   1.0000      -0.399576       -10.8730 
  46   1.0000      -0.395133       -10.7521 
  47   1.0000      -0.382033       -10.3956 
  48   1.0000      -0.372020       -10.1232 
  49   1.0000      -0.364530        -9.9194 
  50   1.0000      -0.358594        -9.7578 
  51   1.0000      -0.351138        -9.5550 
  52   1.0000      -0.335191        -9.1210 
  53   1.0000      -0.332087        -9.0366 
  54   1.0000      -0.330232        -8.9861 
  55   1.0000      -0.327877        -8.9220 
  56   1.0000      -0.325506        -8.8575 
  57   1.0000      -0.323097        -8.7919 
  58   1.0000      -0.321846        -8.7579 
  59   1.0000      -0.282066        -7.6754 
  60   1.0000      -0.278982        -7.5915 
  61   1.0000      -0.275702        -7.5022 
  62   1.0000      -0.256001        -6.9661 
  63   1.0000      -0.223310        -6.0766 
  64   0.0000      -0.084000        -2.2858 
  65   0.0000      -0.044633        -1.2145 
  66   0.0000       0.013536         0.3683 
  67   0.0000       0.044417         1.2087 
  68   0.0000       0.054429         1.4811 
  69   0.0000       0.055112         1.4997 
  70   0.0000       0.061348         1.6694 
  71   0.0000       0.066181         1.8009 
  72   0.0000       0.084890         2.3100 
  73   0.0000       0.089042         2.4230 
  74   0.0000       0.092600         2.5198 
  75   0.0000       0.094856         2.5812 
  76   0.0000       0.095411         2.5963 
  77   0.0000       0.096677         2.6307 
  78   0.0000       0.098436         2.6786 
  79   0.0000       0.110674         3.0116 
  80   0.0000       0.121371         3.3027 
  81   0.0000       0.128372         3.4932 
  82   0.0000       0.131937         3.5902 
  83   0.0000       0.147680         4.0186 
  84   0.0000       0.151823         4.1313 
  85   0.0000       0.155230         4.2240 
  86   0.0000       0.162296         4.4163 
  87   0.0000       0.162750         4.4287 
  88   0.0000       0.164539         4.4773 
  89   0.0000       0.172491         4.6937 
  90   0.0000       0.176040         4.7903 
  91   0.0000       0.181967         4.9516 
  92   0.0000       0.201532         5.4840 
  93   0.0000       0.209126         5.6906 
  94   0.0000       0.213524         5.8103 
  95   0.0000       0.221273         6.0211 
  96   0.0000       0.224827         6.1179 
  97   0.0000       0.241261         6.5651 
  98   0.0000       0.247464         6.7338 
  99   0.0000       0.261973         7.1287 
 100   0.0000       0.270227         7.3533 
 101   0.0000       0.291806         7.9404 
 102   0.0000       0.307109         8.3569 
 103   0.0000       0.326611         8.8875 
 104   0.0000       0.330442         8.9918 
 105   0.0000       0.349899         9.5212 
 106   0.0000       0.368696        10.0327 
 107   0.0000       0.374127        10.1805 
 108   0.0000       0.377287        10.2665 
 109   0.0000       0.410996        11.1838 
 110   0.0000       0.413461        11.2509 
 111   0.0000       0.415403        11.3037 
 112   0.0000       0.418787        11.3958 
 113   0.0000       0.420077        11.4309 
 114   0.0000       0.435171        11.8416 
 115   0.0000       0.438717        11.9381 
 116   0.0000       0.452588        12.3155 
 117   0.0000       0.457768        12.4565 
 118   0.0000       0.465623        12.6702 
 119   0.0000       0.468916        12.7599 
 120   0.0000       0.476841        12.9755 
 121   0.0000       0.486898        13.2492 
 122   0.0000       0.493640        13.4326 
 123   0.0000       0.498479        13.5643 
 124   0.0000       0.503630        13.7045 
 125   0.0000       0.510431        13.8895 
 126   0.0000       0.514166        13.9912 
 127   0.0000       0.515045        14.0151 
 128   0.0000       0.525942        14.3116 
 129   0.0000       0.546695        14.8763 
 130   0.0000       0.548918        14.9368 
 131   0.0000       0.554013        15.0755 
 132   0.0000       0.559659        15.2291 
 133   0.0000       0.572118        15.5681 
 134   0.0000       0.579152        15.7595 
 135   0.0000       0.596236        16.2244 
 136   0.0000       0.601361        16.3639 
 137   0.0000       0.607162        16.5217 
 138   0.0000       0.611726        16.6459 
 139   0.0000       0.619369        16.8539 
 140   0.0000       0.622707        16.9447 
 141   0.0000       0.627262        17.0687 
 142   0.0000       0.636110        17.3094 
 143   0.0000       0.645016        17.5518 
 144   0.0000       0.647835        17.6285 
 145   0.0000       0.648753        17.6535 
 146   0.0000       0.653832        17.7917 
 147   0.0000       0.656980        17.8773 
 148   0.0000       0.659682        17.9509 
 149   0.0000       0.663354        18.0508 
 150   0.0000       0.664987        18.0952 
 151   0.0000       0.668449        18.1894 
 152   0.0000       0.671529        18.2732 
 153   0.0000       0.673315        18.3218 
 154   0.0000       0.678310        18.4577 
 155   0.0000       0.681341        18.5402 
 156   0.0000       0.687330        18.7032 
 157   0.0000       0.690034        18.7768 
 158   0.0000       0.697931        18.9917 
 159   0.0000       0.701206        19.0808 
 160   0.0000       0.703991        19.1566 
 161   0.0000       0.717417        19.5219 
 162   0.0000       0.722166        19.6511 
 163   0.0000       0.724138        19.7048 
 164   0.0000       0.729217        19.8430 
 165   0.0000       0.739397        20.1200 
 166   0.0000       0.742118        20.1941 
 167   0.0000       0.745859        20.2958 
 168   0.0000       0.763794        20.7839 
 169   0.0000       0.769980        20.9522 
 170   0.0000       0.774961        21.0878 
 171   0.0000       0.795541        21.6478 
 172   0.0000       0.816625        22.2215 
 173   0.0000       0.828317        22.5396 
 174   0.0000       0.830935        22.6109 
 175   0.0000       0.835048        22.7228 
 176   0.0000       0.845512        23.0076 
 177   0.0000       0.855721        23.2854 
 178   0.0000       0.857902        23.3447 
 179   0.0000       0.878333        23.9007 
 180   0.0000       0.886750        24.1297 
 181   0.0000       0.900406        24.5013 
 182   0.0000       0.922900        25.1134 
 183   0.0000       0.944038        25.6886 
 184   0.0000       0.954442        25.9717 
 185   0.0000       0.975777        26.5522 
 186   0.0000       0.988117        26.8880 
 187   0.0000       0.995186        27.0804 
 188   0.0000       1.000122        27.2147 
 189   0.0000       1.023449        27.8495 
 190   0.0000       1.034787        28.1580 
 191   0.0000       1.044619        28.4255 
 192   0.0000       1.050386        28.5825 
 193   0.0000       1.060636        28.8614 
 194   0.0000       1.067979        29.0612 
 195   0.0000       1.073161        29.2022 
 196   0.0000       1.085418        29.5357 
 197   0.0000       1.090132        29.6640 
 198   0.0000       1.100997        29.9597 
 199   0.0000       1.150853        31.3163 
 200   0.0000       1.168695        31.8018 
 201   0.0000       1.173184        31.9240 
 202   0.0000       1.193149        32.4672 
 203   0.0000       1.202508        32.7219 
 204   0.0000       1.206684        32.8355 
 205   0.0000       1.216047        33.0903 
 206   0.0000       1.216822        33.1114 
 207   0.0000       1.216967        33.1154 
 208   0.0000       1.223724        33.2992 
 209   0.0000       1.226181        33.3661 
 210   0.0000       1.239171        33.7196 
 211   0.0000       1.250946        34.0400 
 212   0.0000       1.282407        34.8961 
 213   0.0000       1.285799        34.9884 
 214   0.0000       1.309722        35.6393 
 215   0.0000       1.310759        35.6676 
 216   0.0000       1.329753        36.1844 
 217   0.0000       1.333411        36.2840 
 218   0.0000       1.333861        36.2962 
 219   0.0000       1.338265        36.4161 
 220   0.0000       1.348214        36.6868 
 221   0.0000       1.370026        37.2803 
 222   0.0000       1.381486        37.5921 
 223   0.0000       1.399168        38.0733 
 224   0.0000       1.401857        38.1465 
 225   0.0000       1.411428        38.4069 
 226   0.0000       1.420321        38.6489 
 227   0.0000       1.432150        38.9708 
 228   0.0000       1.433437        39.0058 
 229   0.0000       1.434721        39.0407 
 230   0.0000       1.446794        39.3693 
 231   0.0000       1.468953        39.9723 
 232   0.0000       1.472324        40.0640 
 233   0.0000       1.476020        40.1645 
 234   0.0000       1.484398        40.3925 
 235   0.0000       1.494027        40.6545 
 236   0.0000       1.511476        41.1293 
 237   0.0000       1.524743        41.4904 
 238   0.0000       1.530841        41.6563 
 239   0.0000       1.541665        41.9509 
 240   0.0000       1.556507        42.3547 
 241   0.0000       1.570144        42.7258 
 242   0.0000       1.583745        43.0959 
 243   0.0000       1.593681        43.3663 
 244   0.0000       1.600587        43.5542 
 245   0.0000       1.609890        43.8073 
 246   0.0000       1.626231        44.2520 
 247   0.0000       1.630716        44.3740 
 248   0.0000       1.637422        44.5565 
 249   0.0000       1.638211        44.5780 
 250   0.0000       1.645488        44.7760 
 251   0.0000       1.645763        44.7835 
 252   0.0000       1.653752        45.0009 
 253   0.0000       1.656736        45.0821 
 254   0.0000       1.662433        45.2371 
 255   0.0000       1.672437        45.5093 
 256   0.0000       1.678207        45.6663 
 257   0.0000       1.685416        45.8625 
 258   0.0000       1.691444        46.0265 
 259   0.0000       1.698917        46.2299 
 260   0.0000       1.700553        46.2744 
 261   0.0000       1.708781        46.4983 
 262   0.0000       1.710442        46.5435 
 263   0.0000       1.714743        46.6605 
 264   0.0000       1.719830        46.7990 
 265   0.0000       1.721714        46.8502 
 266   0.0000       1.729335        47.0576 
 267   0.0000       1.734492        47.1979 
 268   0.0000       1.742135        47.4059 
 269   0.0000       1.746463        47.5237 
 270   0.0000       1.762737        47.9665 
 271   0.0000       1.767864        48.1060 
 272   0.0000       1.778128        48.3853 
 273   0.0000       1.786132        48.6031 
 274   0.0000       1.801267        49.0150 
 275   0.0000       1.803325        49.0710 
 276   0.0000       1.806814        49.1659 
 277   0.0000       1.812085        49.3093 
 278   0.0000       1.820037        49.5257 
 279   0.0000       1.835969        49.9593 
 280   0.0000       1.849951        50.3397 
 281   0.0000       1.859604        50.6024 
 282   0.0000       1.886329        51.3296 
 283   0.0000       1.894958        51.5644 
 284   0.0000       1.904693        51.8293 
 285   0.0000       1.910556        51.9889 
 286   0.0000       1.920361        52.2557 
 287   0.0000       1.925046        52.3832 
 288   0.0000       1.935129        52.6575 
 289   0.0000       1.940618        52.8069 
 290   0.0000       1.952572        53.1322 
 291   0.0000       1.972147        53.6648 
 292   0.0000       1.998210        54.3741 
 293   0.0000       2.015393        54.8416 
 294   0.0000       2.019462        54.9524 
 295   0.0000       2.033099        55.3234 
 296   0.0000       2.037244        55.4362 
 297   0.0000       2.054221        55.8982 
 298   0.0000       2.067441        56.2579 
 299   0.0000       2.078937        56.5707 
 300   0.0000       2.101445        57.1832 
 301   0.0000       2.105749        57.3003 
 302   0.0000       2.112661        57.4884 
 303   0.0000       2.120220        57.6941 
 304   0.0000       2.138480        58.1910 
 305   0.0000       2.142725        58.3065 
 306   0.0000       2.159911        58.7742 
 307   0.0000       2.175825        59.2072 
 308   0.0000       2.207510        60.0694 
 309   0.0000       2.214864        60.2695 
 310   0.0000       2.225321        60.5541 
 311   0.0000       2.231877        60.7325 
 312   0.0000       2.237805        60.8938 
 313   0.0000       2.245931        61.1149 
 314   0.0000       2.256870        61.4126 
 315   0.0000       2.266187        61.6661 
 316   0.0000       2.280975        62.0685 
 317   0.0000       2.308604        62.8203 
 318   0.0000       2.309790        62.8526 
 319   0.0000       2.314786        62.9885 
 320   0.0000       2.330161        63.4069 
 321   0.0000       2.335319        63.5473 
 322   0.0000       2.339705        63.6666 
 323   0.0000       2.350347        63.9562 
 324   0.0000       2.377250        64.6883 
 325   0.0000       2.398405        65.2639 
 326   0.0000       2.422513        65.9199 
 327   0.0000       2.433415        66.2166 
[...]
      pz      :     0.034310  p :     0.077626
      px      :     0.028005
      py      :     0.015311
 24 H s       :     0.882312  s :     0.882312
      pz      :     0.034790  p :     0.077643
      px      :     0.027545
      py      :     0.015309
 25 C s       :     2.799148  s :     2.799148
      pz      :     1.041061  p :     3.054253
      px      :     1.023102
      py      :     0.990090
      dz2     :     0.027606  d :     0.190598
      dxz     :     0.058016
      dyz     :     0.018461
      dx2y2   :     0.038425
      dxy     :     0.048090
 26 H s       :     0.898467  s :     0.898467
      pz      :     0.034252  p :     0.076884
      px      :     0.026813
      py      :     0.015819
 27 H s       :     0.898539  s :     0.898539
      pz      :     0.034729  p :     0.076890
      px      :     0.026332
      py      :     0.015829
 28 C s       :     2.799392  s :     2.799392
      pz      :     1.041601  p :     3.055649
      px      :     1.021371
      py      :     0.992678
      dz2     :     0.027813  d :     0.191946
      dxz     :     0.057268
      dyz     :     0.018619
      dx2y2   :     0.039525
      dxy     :     0.048721
 29 H s       :     0.900070  s :     0.900070
      pz      :     0.033674  p :     0.075751
      px      :     0.026512
      py      :     0.015565
 30 H s       :     0.900136  s :     0.900136
      pz      :     0.034090  p :     0.075750
      px      :     0.026095
      py      :     0.015564
 31 C s       :     2.806527  s :     2.806527
      pz      :     1.053768  p :     3.114758
      px      :     1.042058
      py      :     1.018932
      dz2     :     0.026059  d :     0.146050
      dxz     :     0.045549
      dyz     :     0.009533
      dx2y2   :     0.024220
      dxy     :     0.040690
 32 H s       :     0.898723  s :     0.898723
      pz      :     0.034725  p :     0.076055
      px      :     0.025701
      py      :     0.015629
 33 H s       :     0.898681  s :     0.898681
      pz      :     0.034338  p :     0.076055
      px      :     0.026094
      py      :     0.015624
 34 C s       :     2.908147  s :     2.908147
      pz      :     0.974744  p :     3.040974
      px      :     1.086492
      py      :     0.979739
      dz2     :     0.012587  d :     0.100153
      dxz     :     0.025055
      dyz     :     0.000014
      dx2y2   :     0.037752
      dxy     :     0.024745
 35 H s       :     0.883109  s :     0.883109
      pz      :     0.020243  p :     0.094469
      px      :     0.054714
      py      :     0.019512
 36 H s       :     0.882845  s :     0.882845
      pz      :     0.019917  p :     0.094271
      px      :     0.054825
      py      :     0.019529
 37 H s       :     0.894730  s :     0.894730
      pz      :     0.015545  p :     0.076485
      px      :     0.028559
      py      :     0.032381
 38 H s       :     0.896117  s :     0.896117
      pz      :     0.015548  p :     0.076402
      px      :     0.025769
      py      :     0.035086

SPIN
  0 C s       :     0.002519  s :     0.002519
      pz      :     0.072359  p :     0.081661
      px      :     0.001062
      py      :     0.008240
      dz2     :    -0.000305  d :    -0.002382
      dxz     :    -0.001355
      dyz     :    -0.000002
      dx2y2   :    -0.000298
      dxy     :    -0.000422
  1 C s       :    -0.002996  s :    -0.002996
      pz      :    -0.026978  p :    -0.037150
      px      :    -0.002405
      py      :    -0.007767
      dz2     :     0.000157  d :     0.015862
      dxz     :     0.014605
      dyz     :    -0.000002
      dx2y2   :     0.000492
      dxy     :     0.000611
  2 C s       :     0.001386  s :     0.001386
      pz      :     0.014366  p :     0.019728
      px      :     0.001023
      py      :     0.004340
      dz2     :    -0.000082  d :    -0.007208
      dxz     :    -0.006375
      dyz     :     0.000048
      dx2y2   :    -0.000252
      dxy     :    -0.000547
  3 C s       :     0.005891  s :     0.005891
      pz      :     0.157566  p :     0.166434
      px      :     0.004188
      py      :     0.004680
      dz2     :    -0.000762  d :    -0.009057
      dxz     :    -0.001952
      dyz     :    -0.004375
      dx2y2   :    -0.000945
      dxy     :    -0.001023
  4 C s       :    -0.006633  s :    -0.006633
      pz      :    -0.088440  p :    -0.103883
      px      :    -0.006582
      py      :    -0.008860
      dz2     :     0.000514  d :     0.039326
      dxz     :     0.010412
      dyz     :     0.025503
      dx2y2   :     0.001361
      dxy     :     0.001537
  5 C s       :     0.005640  s :     0.005640
      pz      :     0.159645  p :     0.168136
      px      :     0.004531
      py      :     0.003959
      dz2     :    -0.000666  d :    -0.008023
      dxz     :    -0.003982
      dyz     :    -0.001717
      dx2y2   :    -0.000625
      dxy     :    -0.001033
  6 C s       :    -0.003690  s :    -0.003690
      pz      :    -0.065919  p :    -0.073396
      px      :    -0.002823
      py      :    -0.004653
      dz2     :     0.000353  d :     0.016583
      dxz     :     0.001657
      dyz     :     0.012999
      dx2y2   :     0.000618
      dxy     :     0.000956
  7 C s       :     0.006119  s :     0.006119
      pz      :     0.166674  p :     0.175708
      px      :     0.004507
      py      :     0.004527
      dz2     :    -0.000708  d :    -0.006327
      dxz     :    -0.002972
      dyz     :    -0.001488
      dx2y2   :    -0.000557
      dxy     :    -0.000601
  8 C s       :    -0.003878  s :    -0.003878
      pz      :    -0.070824  p :    -0.078793
      px      :    -0.004381
      py      :    -0.003587
      dz2     :     0.000333  d :     0.017332
      dxz     :     0.010850
      dyz     :     0.004787
      dx2y2   :     0.000702
      dxy     :     0.000661
  9 H s       :    -0.004852  s :    -0.004852
      pz      :     0.004936  p :     0.005724
      px      :     0.000289
      py      :     0.000499
 10 H s       :     0.002096  s :     0.002096
      pz      :    -0.002075  p :    -0.002560
      px      :    -0.000201
      py      :    -0.000285
 11 C s       :     0.017942  s :     0.017942
      pz      :     0.546062  p :     0.569243
      px      :     0.011744
      py      :     0.011437
      dz2     :    -0.002114  d :    -0.006381
      dxz     :    -0.000337
      dyz     :    -0.001714
      dx2y2   :    -0.001241
      dxy     :    -0.000976
 12 H s       :    -0.015192  s :    -0.015192
      pz      :     0.016138  p :     0.018566
      px      :     0.002248
      py      :     0.000181
 13 C s       :    -0.003448  s :    -0.003448
      pz      :    -0.003829  p :    -0.017803
      px      :    -0.005135
      py      :    -0.008839
      dz2     :     0.000422  d :     0.026797
      dxz     :     0.012726
      dyz     :     0.012175
      dx2y2   :     0.000640
      dxy     :     0.000834
 14 H s       :     0.025422  s :     0.025422
      pz      :    -0.000186  p :    -0.000597
      px      :    -0.000344
      py      :    -0.000067
 15 H s       :     0.025346  s :     0.025346
      pz      :    -0.000182  p :    -0.000598
      px      :    -0.000349
      py      :    -0.000067
 16 C s       :     0.000137  s :     0.000137
      pz      :     0.001051  p :     0.001534
      px      :     0.000314
      py      :     0.000168
      dz2     :    -0.000060  d :    -0.000504
      dxz     :     0.000162
      dyz     :    -0.000130
      dx2y2   :    -0.000399
      dxy     :    -0.000077
 17 H s       :     0.000144  s :     0.000144
      pz      :     0.000035  p :     0.000169
      px      :     0.000080
      py      :     0.000054
 18 H s       :     0.000137  s :     0.000137
      pz      :     0.000032  p :     0.000168
      px      :     0.000081
      py      :     0.000055
 19 C s       :    -0.000175  s :    -0.000175
      pz      :     0.000406  p :     0.000035
      px      :    -0.000061
      py      :    -0.000309
      dz2     :    -0.000004  d :     0.000113
      dxz     :     0.000014
      dyz     :     0.000114
      dx2y2   :     0.000008
      dxy     :    -0.000019
 20 H s       :     0.000213  s :     0.000213
      pz      :     0.000001  p :     0.000038
      px      :     0.000017
      py      :     0.000020
 21 H s       :     0.000213  s :     0.000213
      pz      :     0.000001  p :     0.000038
      px      :     0.000017
      py      :     0.000020
 22 C s       :    -0.001185  s :    -0.001185
      pz      :    -0.000293  p :    -0.005252
      px      :    -0.002187
      py      :    -0.002773
      dz2     :     0.000154  d :     0.008620
      dxz     :     0.004739
      dyz     :     0.003205
      dx2y2   :     0.000220
      dxy     :     0.000301
 23 H s       :     0.008199  s :     0.008199
      pz      :    -0.000077  p :    -0.000200
      px      :    -0.000147
      py      :     0.000025
 24 H s       :     0.008137  s :     0.008137
      pz      :    -0.000078  p :    -0.000200
      px      :    -0.000146
      py      :     0.000025
 25 C s       :     0.000038  s :     0.000038
      pz      :     0.000022  p :     0.000198
      px      :     0.000102
      py      :     0.000074
      dz2     :    -0.000015  d :    -0.000072
      dxz     :     0.000121
      dyz     :    -0.000026
      dx2y2   :    -0.000106
      dxy     :    -0.000046
 26 H s       :     0.000037  s :     0.000037
      pz      :     0.000007  p :     0.000021
      px      :     0.000011
      py      :     0.000002
 27 H s       :     0.000035  s :     0.000035
      pz      :     0.000007  p :     0.000020
      px      :     0.000010
      py      :     0.000003
 28 C s       :    -0.000048  s :    -0.000048
      pz      :     0.000178  p :     0.000066
      px      :    -0.000024
      py      :    -0.000088
      dz2     :    -0.000002  d :     0.000001
      dxz     :    -0.000002
      dyz     :     0.000012
      dx2y2   :    -0.000000
      dxy     :    -0.000007
 29 H s       :     0.000072  s :     0.000072
      pz      :     0.000001  p :     0.000020
      px      :     0.000006
      py      :     0.000013
 30 H s       :     0.000072  s :     0.000072
      pz      :     0.000001  p :     0.000019
      px      :     0.000006
      py      :     0.000013
 31 C s       :    -0.000009  s :    -0.000009
      pz      :    -0.000001  p :    -0.000046
      px      :    -0.000014
      py      :    -0.000032
      dz2     :    -0.000000  d :     0.000017
      dxz     :     0.000012
      dyz     :     0.000007
      dx2y2   :    -0.000003
      dxy     :     0.000001
 32 H s       :     0.000017  s :     0.000017
      pz      :    -0.000000  p :    -0.000001
      px      :    -0.000000
      py      :    -0.000001
 33 H s       :     0.000018  s :     0.000018
      pz      :    -0.000000  p :    -0.000002
      px      :    -0.000000
      py      :    -0.000001
 34 C s       :    -0.001239  s :    -0.001239
      pz      :    -0.033776  p :    -0.039471
      px      :    -0.000525
      py      :    -0.005169
      dz2     :     0.000142  d :     0.001299
      dxz     :     0.000769
      dyz     :     0.000000
      dx2y2   :     0.000149
      dxy     :     0.000239
 35 H s       :    -0.002622  s :    -0.002622
      pz      :     0.002127  p :     0.002751
      px      :     0.000410
      py      :     0.000214
 36 H s       :     0.001257  s :     0.001257
      pz      :    -0.000989  p :    -0.001326
      px      :    -0.000197
      py      :    -0.000140
 37 H s       :    -0.000133  s :    -0.000133
      pz      :     0.000033  p :     0.000021
      px      :     0.000003
      py      :    -0.000015
 38 H s       :    -0.000004  s :    -0.000004
      pz      :    -0.000000  p :    -0.000003
      px      :    -0.000001
      py      :    -0.000002


                      *****************************
                      * MAYER POPULATION ANALYSIS *
                      *****************************

  NA   - Mulliken gross atomic population
  ZA   - Total nuclear charge
  QA   - Mulliken gross atomic charge
  VA   - Mayer's total valence
  BVA  - Mayer's bonded valence
  FA   - Mayer's free valence

  ATOM       NA         ZA         QA         VA         BVA        FA
  0 C      6.5813     6.0000    -0.5813     3.4258     3.4189     0.0069
  1 C      5.3923     6.0000     0.6077     2.9430     2.9414     0.0016
  2 C      5.3986     6.0000     0.6014     2.9723     2.9719     0.0004
  3 C      6.0521     6.0000    -0.0521     3.7436     3.7083     0.0353
  4 C      5.9224     6.0000     0.0776     4.1209     4.1061     0.0149
  5 C      6.0076     6.0000    -0.0076     3.8578     3.8238     0.0340
  6 C      6.0276     6.0000    -0.0276     3.8114     3.8041     0.0073
  7 C      6.0798     6.0000    -0.0798     4.1350     4.0964     0.0385
  8 C      5.9689     6.0000     0.0311     3.8886     3.8804     0.0082
  9 H      1.0479     1.0000    -0.0479     1.0030     1.0029     0.0001
 10 H      1.0484     1.0000    -0.0484     1.0033     1.0033     0.0000
 11 C      6.0998     6.0000    -0.0998     3.9306     3.5546     0.3760
 12 H      1.0185     1.0000    -0.0185     1.0095     1.0082     0.0012
 13 C      5.9682     6.0000     0.0318     4.0104     4.0089     0.0015
 14 H      0.9707     1.0000     0.0293     0.9633     0.9622     0.0011
 15 H      0.9704     1.0000     0.0296     0.9632     0.9621     0.0011
 16 C      6.0403     6.0000    -0.0403     4.1315     4.1315     0.0000
 17 H      0.9870     1.0000     0.0130     0.9645     0.9645     0.0000
 18 H      0.9866     1.0000     0.0134     0.9644     0.9644     0.0000
 19 C      5.9950     6.0000     0.0050     4.0147     4.0147     0.0000
 20 H      0.9825     1.0000     0.0175     0.9777     0.9777     0.0000
 21 H      0.9827     1.0000     0.0173     0.9777     0.9777     0.0000
 22 C      5.9597     6.0000     0.0403     4.0290     4.0287     0.0002
 23 H      0.9662     1.0000     0.0338     0.9698     0.9697     0.0001
 24 H      0.9666     1.0000     0.0334     0.9700     0.9699     0.0001
 25 C      6.0392     6.0000    -0.0392     4.1137     4.1137     0.0000
 26 H      0.9828     1.0000     0.0172     0.9635     0.9635     0.0000
 27 H      0.9830     1.0000     0.0170     0.9634     0.9634     0.0000
 28 C      6.0235     6.0000    -0.0235     4.1138     4.1138     0.0000
 29 H      0.9935     1.0000     0.0065     0.9678     0.9678     0.0000
 30 H      0.9938     1.0000     0.0062     0.9679     0.9679     0.0000
 31 C      5.9967     6.0000     0.0033     4.0164     4.0164     0.0000
 32 H      0.9831     1.0000     0.0169     0.9777     0.9777     0.0000
 33 H      0.9829     1.0000     0.0171     0.9777     0.9777     0.0000
 34 C      6.5803     6.0000    -0.5803     3.4297     3.4282     0.0015
 35 H      1.0244     1.0000    -0.0244     1.0305     1.0304     0.0000
 36 H      1.0231     1.0000    -0.0231     1.0303     1.0303     0.0000
 37 H      0.9849     1.0000     0.0151     0.9742     0.9742     0.0000
 38 H      0.9878     1.0000     0.0122     0.9744     0.9744     0.0000

  Mayer bond orders larger than 0.100000
B(  0-C ,  1-C ) :   2.1516 B(  0-C , 35-H ) :   1.1054 B(  1-C ,  3-C ) :   0.9129 
B(  2-C ,  6-C ) :   0.9083 B(  2-C , 34-C ) :   2.1784 B(  3-C ,  4-C ) :   1.2785 
B(  3-C ,  8-C ) :   1.3896 B(  4-C ,  5-C ) :   1.2884 B(  4-C , 11-C ) :   1.3678 
B(  5-C ,  6-C ) :   1.4340 B(  5-C ,  9-H ) :   0.9220 B(  6-C ,  7-C ) :   1.3445 
B(  7-C ,  8-C ) :   1.4122 B(  7-C , 22-C ) :   1.0932 B(  8-C , 10-H ) :   0.9231 
B( 11-C , 12-H ) :   0.9040 B( 11-C , 13-C ) :   1.0827 B( 13-C , 14-H ) :   0.9122 
B( 13-C , 15-H ) :   0.9123 B( 13-C , 16-C ) :   1.0715 B( 16-C , 17-H ) :   0.9442 
B( 16-C , 18-H ) :   0.9442 B( 16-C , 19-C ) :   1.1056 B( 19-C , 20-H ) :   0.9654 
B( 19-C , 21-H ) :   0.9654 B( 19-C , 37-H ) :   0.9612 B( 22-C , 23-H ) :   0.8973 
B( 22-C , 24-H ) :   0.8972 B( 22-C , 25-C ) :   1.1022 B( 25-C , 26-H ) :   0.9297 
B( 25-C , 27-H ) :   0.9295 B( 25-C , 28-C ) :   1.0741 B( 28-C , 29-H ) :   0.9416 
B( 28-C , 30-H ) :   0.9416 B( 28-C , 31-C ) :   1.1039 B( 31-C , 32-H ) :   0.9665 
B( 31-C , 33-H ) :   0.9665 B( 31-C , 38-H ) :   0.9627 B( 34-C , 36-H ) :   1.1040 


-------
TIMINGS
-------

Total SCF time: 0 days 0 hours 0 min 31 sec 

Total time                  ....      31.130 sec
Sum of individual times     ....      30.148 sec  ( 96.8%)

Fock matrix formation       ....      27.154 sec  ( 87.2%)
  XC integration            ....       1.887 sec  (  6.9% of F)
    Basis function eval.    ....       0.301 sec  ( 15.9% of XC)
    Density eval.           ....       0.257 sec  ( 13.6% of XC)
    XC-Functional eval.     ....       0.056 sec  (  2.9% of XC)
    XC-Potential eval.      ....       0.300 sec  ( 15.9% of XC)
Diagonalization             ....       0.756 sec  (  2.4%)
Density matrix formation    ....       0.058 sec  (  0.2%)
Population analysis         ....       0.237 sec  (  0.8%)
Initial guess               ....       0.105 sec  (  0.3%)
Orbital Transformation      ....       0.000 sec  (  0.0%)
Orbital Orthonormalization  ....       0.078 sec  (  0.3%)
DIIS solution               ....       0.429 sec  (  1.4%)
Grid generation             ....       1.408 sec  (  4.5%)

-------------------------   --------------------
FINAL SINGLE POINT ENERGY      -697.967069057681
-------------------------   --------------------

                                *** OPTIMIZATION RUN DONE ***

                            ***************************************
                            *     ORCA property calculations      *
                            ***************************************

                                    ---------------------
                                    Active property flags
                                    ---------------------
   (+) Dipole Moment


------------------------------------------------------------------------------
                       ORCA ELECTRIC PROPERTIES CALCULATION
------------------------------------------------------------------------------

Dipole Moment Calculation                       ... on
Quadrupole Moment Calculation                   ... off
Polarizability Calculation                      ... off
GBWName                                         ... opt.gbw
Electron density file                           ... opt.scfp
The origin for moment calculation is the CENTER OF MASS  = (-0.073029, -0.015364  0.019190)

-------------
DIPOLE MOMENT
-------------
                                X             Y             Z
Electronic contribution:      0.60828       2.28847       0.03869
Nuclear contribution   :     -0.69956      -2.25026      -0.03837
                        -----------------------------------------
Total Dipole Moment    :     -0.09127       0.03821       0.00032
                        -----------------------------------------
Magnitude (a.u.)       :      0.09895
Magnitude (Debye)      :      0.25151



--------------------
Rotational spectrum 
--------------------
 
Rotational constants in cm-1:     0.022559     0.005966     0.004748 
Rotational constants in MHz :   676.289778   178.862773   142.329161 

 Dipole components along the rotational axes: 
x,y,z [a.u.] :    -0.011498    -0.098267     0.001419 
x,y,z [Debye]:    -0.029225    -0.249775     0.003607 

 

Timings for individual modules:

Sum of individual times         ...     1338.122 sec (=  22.302 min)
GTO integral calculation        ...       27.828 sec (=   0.464 min)   2.1 %
SCF iterations                  ...     1015.340 sec (=  16.922 min)  75.9 %
SCF Gradient evaluation         ...      287.598 sec (=   4.793 min)  21.5 %
Geometry relaxation             ...        7.356 sec (=   0.123 min)   0.5 %
                             ****ORCA TERMINATED NORMALLY****
TOTAL RUN TIME: 0 days 0 hours 22 minutes 25 seconds 375 msec
