
                                 *****************
                                 * O   R   C   A *
                                 *****************

                                            #,                                       
                                            ###                                      
                                            ####                                     
                                            #####                                    
                                            ######                                   
                                           ########,                                 
                                     ,,################,,,,,                         
                               ,,#################################,,                 
                          ,,##########################################,,             
                       ,#########################################, ''#####,          
                    ,#############################################,,   '####,        
                  ,##################################################,,,,####,       
                ,###########''''           ''''###############################       
              ,#####''   ,,,,##########,,,,          '''####'''          '####       
            ,##' ,,,,###########################,,,                        '##       
           ' ,,###''''                  '''############,,,                           
         ,,##''                                '''############,,,,        ,,,,,,###''
      ,#''                                            '''#######################'''  
     '                                                          ''''####''''         
             ,#######,   #######,   ,#######,      ##                                
            ,#'     '#,  ##    ##  ,#'     '#,    #''#        ######   ,####,        
            ##       ##  ##   ,#'  ##            #'  '#       #        #'  '#        
            ##       ##  #######   ##           ,######,      #####,   #    #        
            '#,     ,#'  ##    ##  '#,     ,#' ,#      #,         ##   #,  ,#        
             '#######'   ##     ##  '#######'  #'      '#     #####' # '####'        



                  #######################################################
                  #                        -***-                        #
                  #          Department of theory and spectroscopy      #
                  #    Directorship and core code : Frank Neese         #
                  #        Max Planck Institute fuer Kohlenforschung    #
                  #                Kaiser Wilhelm Platz 1               #
                  #                 D-45470 Muelheim/Ruhr               #
                  #                      Germany                        #
                  #                                                     #
                  #                  All rights reserved                #
                  #                        -***-                        #
                  #######################################################


                         Program Version 5.0.4 -  RELEASE  -


 With contributions from (in alphabetic order):
   Daniel Aravena         : Magnetic Suceptibility
   Michael Atanasov       : Ab Initio Ligand Field Theory (pilot matlab implementation)
   Alexander A. Auer      : GIAO ZORA, VPT2 properties, NMR spectrum
   Ute Becker             : Parallelization
   Giovanni Bistoni       : ED, misc. LED, open-shell LED, HFLD
   Martin Brehm           : Molecular dynamics
   Dmytro Bykov           : SCF Hessian
   Vijay G. Chilkuri      : MRCI spin determinant printing, contributions to CSF-ICE
   Dipayan Datta          : RHF DLPNO-CCSD density
   Achintya Kumar Dutta   : EOM-CC, STEOM-CC
   Dmitry Ganyushin       : Spin-Orbit,Spin-Spin,Magnetic field MRCI
   Miquel Garcia          : C-PCM and meta-GGA Hessian, CC/C-PCM, Gaussian charge scheme
   Yang Guo               : DLPNO-NEVPT2, F12-NEVPT2, CIM, IAO-localization
   Andreas Hansen         : Spin unrestricted coupled pair/coupled cluster methods
   Benjamin Helmich-Paris : MC-RPA, TRAH-SCF, COSX integrals
   Lee Huntington         : MR-EOM, pCC
   Robert Izsak           : Overlap fitted RIJCOSX, COSX-SCS-MP3, EOM
   Marcus Kettner         : VPT2
   Christian Kollmar      : KDIIS, OOCD, Brueckner-CCSD(T), CCSD density, CASPT2, CASPT2-K
   Simone Kossmann        : Meta GGA functionals, TD-DFT gradient, OOMP2, MP2 Hessian
   Martin Krupicka        : Initial AUTO-CI
   Lucas Lang             : DCDCAS
   Marvin Lechner         : AUTO-CI (C++ implementation), FIC-MRCC
   Dagmar Lenk            : GEPOL surface, SMD
   Dimitrios Liakos       : Extrapolation schemes; Compound Job, initial MDCI parallelization
   Dimitrios Manganas     : Further ROCIS development; embedding schemes
   Dimitrios Pantazis     : SARC Basis sets
   Anastasios Papadopoulos: AUTO-CI, single reference methods and gradients
   Taras Petrenko         : DFT Hessian,TD-DFT gradient, ASA, ECA, R-Raman, ABS, FL, XAS/XES, NRVS
   Peter Pinski           : DLPNO-MP2, DLPNO-MP2 Gradient
   Christoph Reimann      : Effective Core Potentials
   Marius Retegan         : Local ZFS, SOC
   Christoph Riplinger    : Optimizer, TS searches, QM/MM, DLPNO-CCSD(T), (RO)-DLPNO pert. Triples
   Tobias Risthaus        : Range-separated hybrids, TD-DFT gradient, RPA, STAB
   Michael Roemelt        : Original ROCIS implementation
   Masaaki Saitow         : Open-shell DLPNO-CCSD energy and density
   Barbara Sandhoefer     : DKH picture change effects
   Avijit Sen             : IP-ROCIS
   Kantharuban Sivalingam : CASSCF convergence, NEVPT2, FIC-MRCI
   Bernardo de Souza      : ESD, SOC TD-DFT
   Georgi Stoychev        : AutoAux, RI-MP2 NMR, DLPNO-MP2 response
   Willem Van den Heuvel  : Paramagnetic NMR
   Boris Wezisla          : Elementary symmetry handling
   Frank Wennmohs         : Technical directorship


 We gratefully acknowledge several colleagues who have allowed us to
 interface, adapt or use parts of their codes:
   Stefan Grimme, W. Hujo, H. Kruse, P. Pracht,  : VdW corrections, initial TS optimization,
                  C. Bannwarth, S. Ehlert          DFT functionals, gCP, sTDA/sTD-DF
   Ed Valeev, F. Pavosevic, A. Kumar             : LibInt (2-el integral package), F12 methods
   Garnet Chan, S. Sharma, J. Yang, R. Olivares  : DMRG
   Ulf Ekstrom                                   : XCFun DFT Library
   Mihaly Kallay                                 : mrcc  (arbitrary order and MRCC methods)
   Jiri Pittner, Ondrej Demel                    : Mk-CCSD
   Frank Weinhold                                : gennbo (NPA and NBO analysis)
   Christopher J. Cramer and Donald G. Truhlar   : smd solvation model
   Lars Goerigk                                  : TD-DFT with DH, B97 family of functionals
   V. Asgeirsson, H. Jonsson                     : NEB implementation
   FAccTs GmbH                                   : IRC, NEB, NEB-TS, DLPNO-Multilevel, CI-OPT
                                                   MM, QMMM, 2- and 3-layer-ONIOM, Crystal-QMMM,
                                                   LR-CPCM, SF, NACMEs, symmetry and pop. for TD-DFT,
                                                   nearIR, NL-DFT gradient (VV10), updates on ESD,
                                                   ML-optimized integration grids
   S Lehtola, MJT Oliveira, MAL Marques          : LibXC Library
   Liviu Ungur et al                             : ANISO software


 Your calculation uses the libint2 library for the computation of 2-el integrals
 For citations please refer to: http://libint.valeyev.net

 Your ORCA version has been built with support for libXC version: 5.1.0
 For citations please refer to: https://tddft.org/programs/libxc/

 This ORCA versions uses:
   CBLAS   interface :  Fast vector & matrix operations
   LAPACKE interface :  Fast linear algebra routines
   SCALAPACK package :  Parallel linear algebra routines
   Shared memory     :  Shared parallel matrices
   BLAS/LAPACK       :  OpenBLAS 0.3.15  USE64BITINT DYNAMIC_ARCH NO_AFFINITY SkylakeX SINGLE_THREADED
        Core in use  :  SkylakeX
   Copyright (c) 2011-2014, The OpenBLAS Project




***************************************
The coordinates will be read from file: model.xyz
***************************************


================================================================================

----- Orbital basis set information -----
Your calculation utilizes the basis: EPR-II
   V. Barone, in Recent Advances in Density Functional Methods, Part 1 (ed. D. P. Chong), World Scientific, Singapore, 1995, p. 287.

----- AuxJ basis set information -----
Your calculation utilizes the auxiliary basis: def2/J
   F. Weigend, Phys. Chem. Chem. Phys. 8, 1057 (2006).

================================================================================
                                        WARNINGS
                       Please study these warnings very carefully!
================================================================================


WARNING: your system is open-shell and RHF/RKS was chosen
  ===> : WILL SWITCH to UHF/UKS


WARNING: Geometry Optimization
  ===> : Switching off AutoStart
         For restart on a previous wavefunction, please use MOREAD

INFO   : the flag for use of the SHARK integral package has been found!

================================================================================
                                       INPUT FILE
================================================================================
NAME = opt_EPRII.inp
|  1> ! B3LYP EPR-II OPT
|  2> %pal nprocs 16 end
|  3> *XYZFile 0 2 model.xyz
|  4> 
|  5>                          ****END OF INPUT****
================================================================================

                       *****************************
                       * Geometry Optimization Run *
                       *****************************

Geometry optimization settings:
Update method            Update   .... BFGS
Choice of coordinates    CoordSys .... Z-matrix Internals
Initial Hessian          InHess   .... Almoef's Model

Convergence Tolerances:
Energy Change            TolE     ....  5.0000e-06 Eh
Max. Gradient            TolMAXG  ....  3.0000e-04 Eh/bohr
RMS Gradient             TolRMSG  ....  1.0000e-04 Eh/bohr
Max. Displacement        TolMAXD  ....  4.0000e-03 bohr
RMS Displacement         TolRMSD  ....  2.0000e-03 bohr
Strict Convergence                ....  False
------------------------------------------------------------------------------
                        ORCA OPTIMIZATION COORDINATE SETUP
------------------------------------------------------------------------------

The optimization will be done in new redundant internal coordinates
Making redundant internal coordinates   ...  (new redundants) done
Evaluating the initial hessian          ...  (Almloef) done
Evaluating the coordinates              ...  done
Calculating the B-matrix                .... done
Calculating the G-matrix                .... done
Diagonalizing the G-matrix              .... done
Small eigenvalue found = 2.332e-03
Small eigenvalue found = 4.686e-03
Small eigenvalue found = 9.087e-03
Small eigenvalue found = 1.383e-02
Small eigenvalue found = 1.840e-02
Small eigenvalue found = 2.972e-02
The first mode is                       ....   84
The number of degrees of freedom        ....  111

    -----------------------------------------------------------------
                    Redundant Internal Coordinates


    -----------------------------------------------------------------
         Definition                    Initial Value    Approx d2E/dq
    -----------------------------------------------------------------
      1. B(C   1,C   0)                  1.2172         1.178777   
      2. B(C   3,C   1)                  1.4278         0.543860   
      3. B(C   4,C   3)                  1.4428         0.514608   
      4. B(C   5,C   4)                  1.4236         0.552252   
      5. B(C   6,C   5)                  1.3957         0.611807   
      6. B(C   6,C   2)                  1.4339         0.531646   
      7. B(C   7,C   6)                  1.4292         0.541046   
      8. B(C   8,C   7)                  1.3974         0.608128   
      9. B(C   8,C   3)                  1.4052         0.590758   
     10. B(H   9,C   5)                  1.0902         0.359886   
     11. B(H  10,C   8)                  1.0898         0.360339   
     12. B(C  11,C   4)                  1.4128         0.574695   
     13. B(H  12,C  11)                  1.0932         0.355863   
     14. B(C  13,C  11)                  1.4994         0.418088   
     15. B(H  14,C  13)                  1.1098         0.334868   
     16. B(H  15,C  13)                  1.1098         0.334888   
     17. B(C  16,C  13)                  1.5342         0.367869   
     18. B(H  17,C  16)                  1.1053         0.340419   
     19. B(H  18,C  16)                  1.1053         0.340403   
     20. B(C  19,C  16)                  1.5297         0.373929   
     21. B(H  20,C  19)                  1.1038         0.342290   
     22. B(H  21,C  19)                  1.1038         0.342279   
     23. B(C  22,C   7)                  1.5146         0.395328   
     24. B(H  23,C  22)                  1.1061         0.339373   
     25. B(H  24,C  22)                  1.1061         0.339420   
     26. B(C  25,C  22)                  1.5309         0.372372   
     27. B(H  26,C  25)                  1.1057         0.339974   
     28. B(H  27,C  25)                  1.1057         0.339978   
     29. B(C  28,C  25)                  1.5334         0.368891   
     30. B(H  29,C  28)                  1.1059         0.339722   
     31. B(H  30,C  28)                  1.1059         0.339719   
     32. B(C  31,C  28)                  1.5306         0.372729   
     33. B(H  32,C  31)                  1.1038         0.342342   
     34. B(H  33,C  31)                  1.1038         0.342357   
     35. B(C  34,C   2)                  1.2158         1.184766   
     36. B(H  35,C   0)                  1.0724         0.384188   
     37. B(H  36,C  34)                  1.0725         0.384057   
     38. B(H  37,C  19)                  1.1019         0.344748   
     39. B(H  38,C  31)                  1.1021         0.344424   
     40. L(C   1,C   0,H  35, 2)       180.2974         0.398725   
     41. L(C   1,C   0,H  35, 1)       180.3380         0.398725   
     42. L(C   0,C   1,C   3,C   8, 2) 179.7030         0.476418   
     43. L(C   0,C   1,C   3,C   8, 1) 179.0531         0.476418   
     44. L(C   6,C   2,C  34,C   5, 2) 179.8592         0.474874   
     45. L(C   6,C   2,C  34,C   5, 1) 179.8540         0.474874   
     46. A(C   1,C   3,C   4)          121.0412         0.410150   
     47. A(C   1,C   3,C   8)          118.8324         0.420340   
     48. A(C   4,C   3,C   8)          120.1264         0.416219   
     49. A(C   3,C   4,C   5)          116.4094         0.411265   
     50. A(C   5,C   4,C  11)          121.7889         0.419422   
     51. A(C   3,C   4,C  11)          121.8017         0.414184   
     52. A(C   4,C   5,H   9)          119.2529         0.346052   
     53. A(C   4,C   5,C   6)          122.6164         0.424135   
     54. A(C   6,C   5,H   9)          118.1307         0.352080   
     55. A(C   2,C   6,C   7)          120.3842         0.412147   
     56. A(C   5,C   6,C   7)          120.5345         0.422584   
     57. A(C   2,C   6,C   5)          119.0813         0.421263   
     58. A(C   6,C   7,C   8)          117.4157         0.422129   
     59. A(C   8,C   7,C  22)          122.8769         0.399290   
     60. A(C   6,C   7,C  22)          119.7073         0.391189   
     61. A(C   3,C   8,H  10)          117.4370         0.350078   
     62. A(C   7,C   8,H  10)          119.6655         0.351796   
     63. A(C   3,C   8,C   7)          122.8975         0.428823   
     64. A(H  12,C  11,C  13)          117.8889         0.329746   
     65. A(C   4,C  11,C  13)          124.8982         0.399250   
     66. A(C   4,C  11,H  12)          117.2128         0.347721   
     67. A(H  15,C  13,C  16)          109.1762         0.319679   
     68. A(H  14,C  13,C  16)          109.1687         0.319676   
     69. A(C  11,C  13,C  16)          113.5070         0.369453   
     70. A(H  14,C  13,H  15)          104.6292         0.284313   
     71. A(C  11,C  13,H  15)          109.9956         0.326458   
     72. A(C  11,C  13,H  14)          109.9822         0.326455   
     73. A(C  13,C  16,C  19)          113.1058         0.362456   
     74. A(H  17,C  16,H  18)          106.0232         0.285767   
     75. A(C  13,C  16,H  18)          108.9951         0.320534   
     76. A(C  13,C  16,H  17)          109.0016         0.320536   
     77. A(H  18,C  16,C  19)          109.7332         0.321392   
     78. A(H  17,C  16,C  19)          109.7324         0.321394   
     79. A(H  20,C  19,H  21)          107.3568         0.286256   
     80. A(C  16,C  19,H  21)          111.3059         0.321681   
     81. A(C  16,C  19,H  20)          111.3084         0.321683   
     82. A(H  21,C  19,H  37)          107.6099         0.286576   
     83. A(H  20,C  19,H  37)          107.6113         0.286578   
     84. A(C  16,C  19,H  37)          111.4432         0.322060   
     85. A(H  24,C  22,C  25)          109.2298         0.321020   
     86. A(H  23,C  22,C  25)          109.2339         0.321013   
     87. A(C   7,C  22,C  25)          116.9090         0.366686   
     88. A(H  23,C  22,H  24)          104.3156         0.285501   
     89. A(C   7,C  22,H  24)          108.2050         0.324183   
     90. A(C   7,C  22,H  23)          108.2087         0.324176   
     91. A(H  27,C  25,C  28)          109.0282         0.320614   
     92. A(H  26,C  25,C  28)          109.0467         0.320613   
     93. A(C  22,C  25,C  28)          112.6146         0.362370   
     94. A(H  26,C  25,H  27)          106.2094         0.285653   
     95. A(C  22,C  25,H  27)          109.8734         0.321107   
     96. A(C  22,C  25,H  26)          109.8597         0.321106   
     97. A(H  30,C  28,C  31)          109.5733         0.321117   
     98. A(H  29,C  28,C  31)          109.5746         0.321117   
     99. A(C  25,C  28,C  31)          113.1578         0.362429   
    100. A(H  29,C  28,H  30)          105.8561         0.285586   
    101. A(C  25,C  28,H  30)          109.2097         0.320574   
    102. A(C  25,C  28,H  29)          109.2082         0.320574   
    103. A(H  32,C  31,H  33)          107.3559         0.286273   
    104. A(C  28,C  31,H  33)          111.2939         0.321524   
    105. A(C  28,C  31,H  32)          111.2960         0.321521   
    106. A(H  33,C  31,H  38)          107.5900         0.286544   
    107. A(H  32,C  31,H  38)          107.5876         0.286542   
    108. A(C  28,C  31,H  38)          111.5091         0.321841   
    109. L(C   2,C  34,H  36, 2)       180.3208         0.399056   
    110. L(C   2,C  34,H  36, 1)       180.1285         0.399056   
    111. D(C   5,C   4,C   3,C   1)   -179.9575         0.018053   
    112. D(C   5,C   4,C   3,C   8)      0.0255         0.018053   
    113. D(C  11,C   4,C   3,C   8)   -179.9905         0.018053   
    114. D(C  11,C   4,C   3,C   1)      0.0265         0.018053   
    115. D(C   6,C   5,C   4,C  11)    179.9973         0.020870   
    116. D(H   9,C   5,C   4,C   3)    179.9737         0.020870   
    117. D(H   9,C   5,C   4,C  11)     -0.0103         0.020870   
    118. D(C   6,C   5,C   4,C   3)     -0.0186         0.020870   
    119. D(C   7,C   6,C   5,C   4)      0.0093         0.025860   
    120. D(C   2,C   6,C   5,C   4)    179.9950         0.025860   
    121. D(C   2,C   6,C   5,H   9)      0.0025         0.025860   
    122. D(C   7,C   6,C   5,H   9)   -179.9831         0.025860   
    123. D(C  22,C   7,C   6,C   2)     -0.0069         0.020004   
    124. D(C   8,C   7,C   6,C   2)   -179.9915         0.020004   
    125. D(C  22,C   7,C   6,C   5)    179.9786         0.020004   
    126. D(C   8,C   7,C   6,C   5)     -0.0060         0.020004   
    127. D(H  10,C   8,C   7,C  22)      0.0199         0.025532   
    128. D(C   3,C   8,C   7,C  22)   -179.9703         0.025532   
    129. D(H  10,C   8,C   3,C   4)    179.9853         0.024020   
    130. D(C   7,C   8,C   3,C   4)     -0.0243         0.024020   
    131. D(C   3,C   8,C   7,C   6)      0.0138         0.025532   
    132. D(H  10,C   8,C   7,C   6)   -179.9960         0.025532   
    133. D(C   7,C   8,C   3,C   1)    179.9591         0.024020   
    134. D(H  10,C   8,C   3,C   1)     -0.0313         0.024020   
    135. D(C  13,C  11,C   4,C   5)     -0.0135         0.022672   
    136. D(C  13,C  11,C   4,C   3)   -179.9967         0.022672   
    137. D(H  12,C  11,C   4,C   5)    179.9854         0.022672   
    138. D(H  12,C  11,C   4,C   3)      0.0023         0.022672   
    139. D(H  15,C  13,C  11,C   4)     57.2519         0.012929   
    140. D(H  14,C  13,C  11,H  12)    122.5259         0.012929   
    141. D(H  14,C  13,C  11,C   4)    -57.4751         0.012929   
    142. D(C  16,C  13,C  11,H  12)     -0.1007         0.012929   
    143. D(C  16,C  13,C  11,C   4)    179.8983         0.012929   
    144. D(H  15,C  13,C  11,H  12)   -122.7471         0.012929   
    145. D(C  19,C  16,C  13,C  11)   -179.9711         0.010826   
    146. D(C  19,C  16,C  13,H  14)     56.9542         0.010826   
    147. D(H  18,C  16,C  13,H  15)   -179.2240         0.010826   
    148. D(H  18,C  16,C  13,H  14)    -65.3963         0.010826   
    149. D(H  18,C  16,C  13,C  11)     57.6784         0.010826   
    150. D(H  17,C  16,C  13,H  15)     65.4805         0.010826   
    151. D(H  17,C  16,C  13,H  14)    179.3083         0.010826   
    152. D(C  19,C  16,C  13,H  15)    -56.8736         0.010826   
    153. D(H  17,C  16,C  13,C  11)    -57.6171         0.010826   
    154. D(H  37,C  19,C  16,H  18)    -58.0592         0.011164   
    155. D(H  37,C  19,C  16,H  17)     58.0578         0.011164   
    156. D(H  37,C  19,C  16,C  13)   -179.9969         0.011164   
    157. D(H  21,C  19,C  16,H  18)     62.0769         0.011164   
    158. D(H  21,C  19,C  16,H  17)    178.1939         0.011164   
    159. D(H  21,C  19,C  16,C  13)    -59.8607         0.011164   
    160. D(H  20,C  19,C  16,H  18)   -178.1990         0.011164   
    161. D(H  20,C  19,C  16,H  17)    -62.0820         0.011164   
    162. D(H  20,C  19,C  16,C  13)     59.8634         0.011164   
    163. D(C  25,C  22,C   7,C   8)     -0.1530         0.011611   
    164. D(C  25,C  22,C   7,C   6)    179.8632         0.011611   
    165. D(H  24,C  22,C   7,C   8)   -123.9137         0.011611   
    166. D(H  24,C  22,C   7,C   6)     56.1025         0.011611   
    167. D(H  23,C  22,C   7,C   8)    123.6164         0.011611   
    168. D(H  23,C  22,C   7,C   6)    -56.3674         0.011611   
    169. D(H  27,C  25,C  22,H  23)    -64.9482         0.011076   
    170. D(H  27,C  25,C  22,C   7)     58.2963         0.011076   
    171. D(H  26,C  25,C  22,H  24)     65.0349         0.011076   
    172. D(H  26,C  25,C  22,H  23)    178.5543         0.011076   
    173. D(H  26,C  25,C  22,C   7)    -58.2011         0.011076   
    174. D(C  28,C  25,C  22,H  24)    -56.7233         0.011076   
    175. D(C  28,C  25,C  22,H  23)     56.7961         0.011076   
    176. D(C  28,C  25,C  22,C   7)   -179.9594         0.011076   
    177. D(H  27,C  25,C  22,H  24)   -178.4676         0.011076   
    178. D(C  31,C  28,C  25,H  27)    -57.8220         0.010882   
    179. D(C  31,C  28,C  25,C  22)    179.9557         0.010882   
    180. D(H  30,C  28,C  25,H  27)    179.8417         0.010882   
    181. D(H  30,C  28,C  25,H  26)    -64.5986         0.010882   
    182. D(H  30,C  28,C  25,C  22)     57.6194         0.010882   
    183. D(H  29,C  28,C  25,H  27)     64.5150         0.010882   
    184. D(C  31,C  28,C  25,H  26)     57.7377         0.010882   
    185. D(H  29,C  28,C  25,H  26)   -179.9253         0.010882   
    186. D(H  29,C  28,C  25,C  22)    -57.7073         0.010882   
    187. D(H  38,C  31,C  28,H  30)    -57.8836         0.011096   
    188. D(H  38,C  31,C  28,H  29)     57.8506         0.011096   
    189. D(H  38,C  31,C  28,C  25)    179.9830         0.011096   
    190. D(H  33,C  31,C  28,H  30)     62.2638         0.011096   
    191. D(H  33,C  31,C  28,H  29)    177.9980         0.011096   
    192. D(H  33,C  31,C  28,C  25)    -59.8696         0.011096   
    193. D(H  32,C  31,C  28,H  30)   -178.0296         0.011096   
    194. D(H  32,C  31,C  28,H  29)    -62.2953         0.011096   
    195. D(H  32,C  31,C  28,C  25)     59.8371         0.011096   
    -----------------------------------------------------------------

Number of atoms                         .... 39
Number of degrees of freedom            .... 195

         *************************************************************
         *                GEOMETRY OPTIMIZATION CYCLE   1            *
         *************************************************************
---------------------------------
CARTESIAN COORDINATES (ANGSTROEM)
---------------------------------
  C      3.991788   -0.049240    0.058108
  C      2.775740    0.000818    0.040924
  C     -2.904926    0.001969   -0.021065
  C      1.348501    0.035970    0.024651
  C      0.635243    1.290110    0.014122
  C     -0.786025    1.210124   -0.000914
  C     -1.471080   -0.005896   -0.005830
  C     -0.755051   -1.242724    0.004473
  C      0.640732   -1.178015    0.019328
  H     -1.371296    2.129824   -0.008865
  H      1.223342   -2.098995    0.027465
  C      1.310813    2.530858    0.018832
  H      2.403663    2.505003    0.030818
  C      0.641084    3.872285    0.008661
  H     -0.020408    3.959192   -0.878174
  H     -0.042671    3.961660    0.878176
  C      1.626345    5.048246    0.019383
  H      2.275422    4.965813    0.910219
  H      2.296697    4.963937   -0.855394
  C      0.933467    6.412041    0.009601
  H      0.280768    6.536675    0.890987
  H      0.302265    6.534793   -0.887575
  C     -1.517430   -2.551443   -0.000599
  H     -2.203439   -2.555198    0.867109
  H     -2.188523   -2.557024   -0.879837
  C     -0.686654   -3.837261    0.007762
  H     -0.015119   -3.856287   -0.870392
  H     -0.031197   -3.855470    0.897992
  C     -1.555555   -5.100742    0.000739
  H     -2.229365   -5.083796    0.877444
  H     -2.214538   -5.084219   -0.887176
  C     -0.737137   -6.394159    0.007906
  H     -0.093627   -6.456407    0.902512
  H     -0.079125   -6.457034   -0.876030
  C     -4.120621    0.011732   -0.035488
  H      5.062776   -0.099657    0.078803
  H     -5.192882    0.026348   -0.050615
  H      1.665288    7.235733    0.017560
  H     -1.387506   -7.283908    0.002941

----------------------------
CARTESIAN COORDINATES (A.U.)
----------------------------
  NO LB      ZA    FRAG     MASS         X           Y           Z
   0 C     6.0000    0    12.011    7.543387   -0.093050    0.109809
   1 C     6.0000    0    12.011    5.245389    0.001546    0.077335
   2 C     6.0000    0    12.011   -5.489514    0.003722   -0.039807
   3 C     6.0000    0    12.011    2.548298    0.067973    0.046584
   4 C     6.0000    0    12.011    1.200436    2.437954    0.026687
   5 C     6.0000    0    12.011   -1.485371    2.286804   -0.001728
   6 C     6.0000    0    12.011   -2.779939   -0.011142   -0.011018
   7 C     6.0000    0    12.011   -1.426839   -2.348407    0.008453
   8 C     6.0000    0    12.011    1.210808   -2.226125    0.036525
   9 H     1.0000    0     1.008   -2.591374    4.024784   -0.016753
  10 H     1.0000    0     1.008    2.311781   -3.966526    0.051902
  11 C     6.0000    0    12.011    2.477077    4.782628    0.035587
  12 H     1.0000    0     1.008    4.542265    4.733770    0.058237
  13 C     6.0000    0    12.011    1.211473    7.317559    0.016367
  14 H     1.0000    0     1.008   -0.038565    7.481789   -1.659508
  15 H     1.0000    0     1.008   -0.080636    7.486452    1.659512
  16 C     6.0000    0    12.011    3.073346    9.539803    0.036628
  17 H     1.0000    0     1.008    4.299925    9.384027    1.720066
  18 H     1.0000    0     1.008    4.340129    9.380481   -1.616460
  19 C     6.0000    0    12.011    1.763996   12.117001    0.018144
  20 H     1.0000    0     1.008    0.530575   12.352525    1.683722
  21 H     1.0000    0     1.008    0.571197   12.348970   -1.677274
  22 C     6.0000    0    12.011   -2.867527   -4.821529   -0.001132
  23 H     1.0000    0     1.008   -4.163895   -4.828624    1.638599
  24 H     1.0000    0     1.008   -4.135709   -4.832075   -1.662650
  25 C     6.0000    0    12.011   -1.297588   -7.251373    0.014668
  26 H     1.0000    0     1.008   -0.028571   -7.287325   -1.644802
  27 H     1.0000    0     1.008   -0.058953   -7.285783    1.696960
  28 C     6.0000    0    12.011   -2.939572   -9.639005    0.001397
  29 H     1.0000    0     1.008   -4.212890   -9.606983    1.658129
  30 H     1.0000    0     1.008   -4.184870   -9.607782   -1.676520
  31 C     6.0000    0    12.011   -1.392986  -12.083209    0.014940
  32 H     1.0000    0     1.008   -0.176929  -12.200840    1.705500
  33 H     1.0000    0     1.008   -0.149525  -12.202026   -1.655456
  34 C     6.0000    0    12.011   -7.786844    0.022171   -0.067063
  35 H     1.0000    0     1.008    9.567261   -0.188325    0.148916
  36 H     1.0000    0     1.008   -9.813124    0.049791   -0.095648
  37 H     1.0000    0     1.008    3.146937   13.673554    0.033183
  38 H     1.0000    0     1.008   -2.622006  -13.764592    0.005558

--------------------------------
INTERNAL COORDINATES (ANGSTROEM)
--------------------------------
 C      0   0   0     0.000000000000     0.00000000     0.00000000
 C      1   0   0     1.217198970430     0.00000000     0.00000000
 C      2   1   0     5.681004601816   177.64740133     0.00000000
 C      2   1   3     1.427764709600   179.04098789     4.88395755
 C      4   2   1     1.442814618264   121.04115943   170.73551055
 C      5   4   2     1.423596374880   116.40940875   180.04250256
 C      6   5   4     1.395719002335   122.61642772     0.00000000
 C      7   6   5     1.429176852768   120.53451430     0.00000000
 C      8   7   6     1.397360852263   117.41574141     0.00000000
 H      6   5   4     1.090161686004   119.25290446   179.97372195
 H      9   8   7     1.089819105179   119.66547878   180.00401020
 C      5   4   2     1.412753188159   121.80168353     0.02653600
 H     12   5   4     1.093222111356   117.21282872     0.00000000
 C     12   5   4     1.499356079612   124.89824281   180.00328768
 H     14  12   5     1.109774899194   109.98224078   302.52491495
 H     14  12   5     1.109758438535   109.99562980    57.25191299
 C     14  12   5     1.534189837895   113.50703085   179.89831305
 H     17  14  12     1.105299665650   109.00159080   302.38291560
 H     17  14  12     1.105312042978   108.99511489    57.67838119
 C     17  14  12     1.529742060448   113.10575114   180.02885686
 H     20  17  14     1.103807064559   111.30839233    59.86338153
 H     20  17  14     1.103815962708   111.30588770   300.13928564
 C      8   7   6     1.514593813755   119.70734801   179.97863328
 H     23   8   7     1.106137308186   108.20869318   303.63256908
 H     23   8   7     1.106099383299   108.20498756    56.10248812
 C     23   8   7     1.530877907707   116.90901800   179.86322827
 H     26  23   8     1.105655588828   109.85973483   301.79885745
 H     26  23   8     1.105651982388   109.87342160    58.29631173
 C     26  23   8     1.533434330866   112.61459569   180.04061859
 H     29  26  23     1.105857029927   109.20818453   302.29266698
 H     29  26  23     1.105859668289   109.20968051    57.61940548
 C     29  26  23     1.530616666740   113.15782013   179.95573414
 H     32  29  26     1.103765994710   111.29604661    59.83705599
 H     32  29  26     1.103754258905   111.29386646   300.13043542
 C      3   2   1     1.215819505462   179.54822432   182.44144594
 H      1   2   4     1.072374000531   179.55017476   328.05163120
 H     35   3   7     1.072467397770   179.65444167   355.85773913
 H     20  17  14     1.101859419311   111.44324752   180.00312326
 H     32  29  26     1.102115761963   111.50913426   179.98299719

---------------------------
INTERNAL COORDINATES (A.U.)
---------------------------
 C      0   0   0     0.000000000000     0.00000000     0.00000000
 C      1   0   0     2.300172704604     0.00000000     0.00000000
 C      2   1   0    10.735542862978   177.64740133     0.00000000
 C      2   1   3     2.698084284822   179.04098789     4.88395755
 C      4   2   1     2.726524490537   121.04115943   170.73551055
 C      5   4   2     2.690207273767   116.40940875   180.04250256
 C      6   5   4     2.637526674323   122.61642772     0.00000000
 C      7   6   5     2.700752848671   120.53451430     0.00000000
 C      8   7   6     2.640629321039   117.41574141     0.00000000
 H      6   5   4     2.060107028241   119.25290446   179.97372195
 H      9   8   7     2.059459644304   119.66547878   180.00401020
 C      5   4   2     2.669716620445   121.80168353     0.02653600
 H     12   5   4     2.065890394010   117.21282872     0.00000000
 C     12   5   4     2.833372367697   124.89824281   180.00328768
 H     14  12   5     2.097170629776   109.98224078   302.52491495
 H     14  12   5     2.097139523638   109.99562980    57.25191299
 C     14  12   5     2.899198631066   113.50703085   179.89831305
 H     17  14  12     2.088713663994   109.00159080   302.38291560
 H     17  14  12     2.088737053754   108.99511489    57.67838119
 C     17  14  12     2.890793549788   113.10575114   180.02885686
 H     20  17  14     2.085893056704   111.30839233    59.86338153
 H     20  17  14     2.085909871769   111.30588770   300.13928564
 C      8   7   6     2.862167512128   119.70734801   179.97863328
 H     23   8   7     2.090296578984   108.20869318   303.63256908
 H     23   8   7     2.090224911335   108.20498756    56.10248812
 C     23   8   7     2.892939990037   116.90901800   179.86322827
 H     26  23   8     2.089386261324   109.85973483   301.79885745
 H     26  23   8     2.089379446140   109.87342160    58.29631173
 C     26  23   8     2.897770929690   112.61459569   180.04061859
 H     29  26  23     2.089766929834   109.20818453   302.29266698
 H     29  26  23     2.089771915615   109.20968051    57.61940548
 C     29  26  23     2.892446316155   113.15782013   179.95573414
 H     32  29  26     2.085815445937   111.29604661    59.83705599
 H     32  29  26     2.085793268480   111.29386646   300.13043542
 C      3   2   1     2.297565893602   179.54822432   182.44144594
 H      1   2   4     2.026493174142   179.55017476   328.05163120
 H     35   3   7     2.026669669345   179.65444167   355.85773913
 H     20  17  14     2.082212540579   111.44324752   180.00312326
 H     32  29  26     2.082696957988   111.50913426   179.98299719

---------------------
BASIS SET INFORMATION
---------------------
There are 2 groups of distinct atoms

 Group   1 Type C   : 10s5p1d contracted to 6s2p1d pattern {511111/41/1}
 Group   2 Type H   : 6s1p contracted to 4s1p pattern {3111/1}

Atom   0C    basis set group =>   1
Atom   1C    basis set group =>   1
Atom   2C    basis set group =>   1
Atom   3C    basis set group =>   1
Atom   4C    basis set group =>   1
Atom   5C    basis set group =>   1
Atom   6C    basis set group =>   1
Atom   7C    basis set group =>   1
Atom   8C    basis set group =>   1
Atom   9H    basis set group =>   2
Atom  10H    basis set group =>   2
Atom  11C    basis set group =>   1
Atom  12H    basis set group =>   2
Atom  13C    basis set group =>   1
Atom  14H    basis set group =>   2
Atom  15H    basis set group =>   2
Atom  16C    basis set group =>   1
Atom  17H    basis set group =>   2
Atom  18H    basis set group =>   2
Atom  19C    basis set group =>   1
Atom  20H    basis set group =>   2
Atom  21H    basis set group =>   2
Atom  22C    basis set group =>   1
Atom  23H    basis set group =>   2
Atom  24H    basis set group =>   2
Atom  25C    basis set group =>   1
Atom  26H    basis set group =>   2
Atom  27H    basis set group =>   2
Atom  28C    basis set group =>   1
Atom  29H    basis set group =>   2
Atom  30H    basis set group =>   2
Atom  31C    basis set group =>   1
Atom  32H    basis set group =>   2
Atom  33H    basis set group =>   2
Atom  34C    basis set group =>   1
Atom  35H    basis set group =>   2
Atom  36H    basis set group =>   2
Atom  37H    basis set group =>   2
Atom  38H    basis set group =>   2
---------------------------------
AUXILIARY/J BASIS SET INFORMATION
---------------------------------
There are 2 groups of distinct atoms

 Group   1 Type C   : 12s5p4d2f1g contracted to 6s4p3d1f1g pattern {711111/2111/211/2/1}
 Group   2 Type H   : 5s2p1d contracted to 3s1p1d pattern {311/2/1}

Atom   0C    basis set group =>   1
Atom   1C    basis set group =>   1
Atom   2C    basis set group =>   1
Atom   3C    basis set group =>   1
Atom   4C    basis set group =>   1
Atom   5C    basis set group =>   1
Atom   6C    basis set group =>   1
Atom   7C    basis set group =>   1
Atom   8C    basis set group =>   1
Atom   9H    basis set group =>   2
Atom  10H    basis set group =>   2
Atom  11C    basis set group =>   1
Atom  12H    basis set group =>   2
Atom  13C    basis set group =>   1
Atom  14H    basis set group =>   2
Atom  15H    basis set group =>   2
Atom  16C    basis set group =>   1
Atom  17H    basis set group =>   2
Atom  18H    basis set group =>   2
Atom  19C    basis set group =>   1
Atom  20H    basis set group =>   2
Atom  21H    basis set group =>   2
Atom  22C    basis set group =>   1
Atom  23H    basis set group =>   2
Atom  24H    basis set group =>   2
Atom  25C    basis set group =>   1
Atom  26H    basis set group =>   2
Atom  27H    basis set group =>   2
Atom  28C    basis set group =>   1
Atom  29H    basis set group =>   2
Atom  30H    basis set group =>   2
Atom  31C    basis set group =>   1
Atom  32H    basis set group =>   2
Atom  33H    basis set group =>   2
Atom  34C    basis set group =>   1
Atom  35H    basis set group =>   2
Atom  36H    basis set group =>   2
Atom  37H    basis set group =>   2
Atom  38H    basis set group =>   2


           ************************************************************
           *        Program running with 16 parallel MPI-processes    *
           *              working on a common directory               *
           ************************************************************
------------------------------------------------------------------------------
                           ORCA GTO INTEGRAL CALCULATION
                           -- RI-GTO INTEGRALS CHOSEN --
------------------------------------------------------------------------------
------------------------------------------------------------------------------
                   ___                                                        
                  /   \      - P O W E R E D   B Y -                         
                 /     \                                                     
                 |  |  |   _    _      __       _____    __    __             
                 |  |  |  | |  | |    /  \     |  _  \  |  |  /  |          
                  \  \/   | |  | |   /    \    | | | |  |  | /  /          
                 / \  \   | |__| |  /  /\  \   | |_| |  |  |/  /          
                |  |  |   |  __  | /  /__\  \  |    /   |      \           
                |  |  |   | |  | | |   __   |  |    \   |  |\   \          
                \     /   | |  | | |  |  |  |  | |\  \  |  | \   \       
                 \___/    |_|  |_| |__|  |__|  |_| \__\ |__|  \__/        
                                                                              
                      - O R C A' S   B I G   F R I E N D -                    
                                      &                                       
                       - I N T E G R A L  F E E D E R -                       
                                                                              
 v1 FN, 2020, v2 2021                                                         
------------------------------------------------------------------------------


Reading SHARK input file opt_EPRII.SHARKINP.tmp ... ok
----------------------
SHARK INTEGRAL PACKAGE
----------------------

Number of atoms                             ...     39
Number of basis functions                   ...    453
Number of shells                            ...    267
Maximum angular momentum                    ...      2
Integral batch strategy                     ... SHARK/LIBINT Hybrid
RI-J (if used) integral strategy            ... SPLIT-RIJ (Revised 2003 algorithm where possible)
Printlevel                                  ...      1
Contraction scheme used                     ... SEGMENTED contraction
Coulomb Range Separation                    ... NOT USED
Exchange Range Separation                   ... NOT USED
Finite Nucleus Model                        ... NOT USED
Auxiliary Coulomb fitting basis             ... AVAILABLE
   # of basis functions in Aux-J            ...   1113
   # of shells in Aux-J                     ...    375
   Maximum angular momentum in Aux-J        ...      4
Auxiliary J/K fitting basis                 ... NOT available
Auxiliary Correlation fitting basis         ... NOT available
Auxiliary 'external' fitting basis          ... NOT available
Integral threshold                          ...     2.500000e-11
Primitive cut-off                           ...     2.500000e-12
Primitive pair pre-selection threshold      ...     2.500000e-12

Calculating pre-screening integrals         ... done (  0.0 sec) Dimension = 267
Organizing shell pair data                  ... done (  0.1 sec)
Shell pair information
Total number of shell pairs                 ...     35778
Shell pairs after pre-screening             ...     20958
Total number of primitive shell pairs       ...     95181
Primitive shell pairs kept                  ...     40134
          la=0 lb=0:   9587 shell pairs
          la=1 lb=0:   7220 shell pairs
          la=1 lb=1:   1266 shell pairs
          la=2 lb=0:   2022 shell pairs
          la=2 lb=1:    740 shell pairs
          la=2 lb=2:    123 shell pairs

Calculating one electron integrals          ... done (  0.0 sec)
Calculating RI/J V-Matrix + Cholesky decomp.... done (  0.3 sec)
Calculating Nuclear repulsion               ... done (  0.0 sec) ENN=   1144.886103824135 Eh

SHARK setup successfully completed in   1.0 seconds

Maximum memory used throughout the entire GTOINT-calculation: 29.6 MB


           ************************************************************
           *        Program running with 16 parallel MPI-processes    *
           *              working on a common directory               *
           ************************************************************
-------------------------------------------------------------------------------
                                 ORCA SCF
-------------------------------------------------------------------------------

------------
SCF SETTINGS
------------
Hamiltonian:
 Density Functional     Method          .... DFT(GTOs)
 Exchange Functional    Exchange        .... B88
   X-Alpha parameter    XAlpha          ....  0.666667
   Becke's b parameter  XBeta           ....  0.004200
 Correlation Functional Correlation     .... LYP
 LDA part of GGA corr.  LDAOpt          .... VWN-5
 Gradients option       PostSCFGGA      .... off
 Hybrid DFT is turned on
   Fraction HF Exchange ScalHFX         ....  0.200000
   Scaling of DF-GGA-X  ScalDFX         ....  0.720000
   Scaling of DF-GGA-C  ScalDFC         ....  0.810000
   Scaling of DF-LDA-C  ScalLDAC        ....  1.000000
   Perturbative correction              ....  0.000000
   Density functional embedding theory  .... OFF
   NL short-range parameter             ....  4.800000
 RI-approximation to the Coulomb term is turned on
   Number of AuxJ basis functions       .... 1113
   RIJ-COSX (HFX calculated with COS-X)).... on


General Settings:
 Integral files         IntName         .... opt_EPRII
 Hartree-Fock type      HFTyp           .... UHF
 Total Charge           Charge          ....    0
 Multiplicity           Mult            ....    2
 Number of Electrons    NEL             ....  129
 Basis Dimension        Dim             ....  453
 Nuclear Repulsion      ENuc            ....   1144.8861038241 Eh

Convergence Acceleration:
 DIIS                   CNVDIIS         .... on
   Start iteration      DIISMaxIt       ....    12
   Startup error        DIISStart       ....  0.200000
   # of expansion vecs  DIISMaxEq       ....     5
   Bias factor          DIISBfac        ....   1.050
   Max. coefficient     DIISMaxC        ....  10.000
 Trust-Rad. Augm. Hess. CNVTRAH         .... auto
   Auto Start mean grad. ratio tolernc. ....  1.125000
   Auto Start start iteration           ....    20
   Auto Start num. interpolation iter.  ....    10
   Max. Number of Micro iterations      ....    16
   Max. Number of Macro iterations      .... Maxiter - #DIIS iter
   Number of Davidson start vectors     ....     2
   Converg. threshold I  (grad. norm)   ....   1.000e-05
   Converg. threshold II (energy diff.) ....   1.000e-08
   Grad. Scal. Fac. for Micro threshold ....   0.100
   Minimum threshold for Micro iter.    ....   0.010
   NR start threshold (gradient norm)   ....   0.001
   Initial trust radius                 ....   0.400
   Minimum AH scaling param. (alpha)    ....   1.000
   Maximum AH scaling param. (alpha)    .... 1000.000
   Orbital update algorithm             .... Taylor
   White noise on init. David. guess    .... on
   Maximum white noise                  ....   0.010
   Quad. conv. algorithm                .... NR
 SOSCF                  CNVSOSCF        .... off
 Level Shifting         CNVShift        .... on
   Level shift para.    LevelShift      ....    0.2500
   Turn off err/grad.   ShiftErr        ....    0.0010
 Zerner damping         CNVZerner       .... off
 Static damping         CNVDamp         .... on
   Fraction old density DampFac         ....    0.7000
   Max. Damping (<1)    DampMax         ....    0.9800
   Min. Damping (>=0)   DampMin         ....    0.0000
   Turn off err/grad.   DampErr         ....    0.1000
 Fernandez-Rico         CNVRico         .... off

SCF Procedure:
 Maximum # iterations   MaxIter         ....   125
 SCF integral mode      SCFMode         .... Direct
   Integral package                     .... SHARK and LIBINT hybrid scheme
 Reset frequency        DirectResetFreq ....    20
 Integral Threshold     Thresh          ....  2.500e-11 Eh
 Primitive CutOff       TCut            ....  2.500e-12 Eh

Convergence Tolerance:
 Convergence Check Mode ConvCheckMode   .... Total+1el-Energy
 Convergence forced     ConvForced      .... 0
 Energy Change          TolE            ....  1.000e-08 Eh
 1-El. energy change                    ....  1.000e-05 Eh
 DIIS Error             TolErr          ....  5.000e-07


Diagonalization of the overlap matrix:
Smallest eigenvalue                        ... 1.322e-04
Time for diagonalization                   ...    0.068 sec
Threshold for overlap eigenvalues          ... 1.000e-08
Number of eigenvalues below threshold      ... 0
Time for construction of square roots      ...    0.041 sec
Total time needed                          ...    0.111 sec

Time for model grid setup =    0.243 sec

------------------------------
INITIAL GUESS: MODEL POTENTIAL
------------------------------
Loading Hartree-Fock densities                     ... done
Calculating cut-offs                               ... done
Initializing the effective Hamiltonian             ... done
Setting up the integral package (SHARK)            ... done
Starting the Coulomb interaction                   ... done (   0.3 sec)
Reading the grid                                   ... done
Mapping shells                                     ... done
Starting the XC term evaluation                    ... done (   0.1 sec)
  promolecular density results
     # of electrons  =    128.989778569
     EX              =    -98.637901352
     EC              =     -4.220030092
     EX+EC           =   -102.857931444
Transforming the Hamiltonian                       ... done (   0.0 sec)
Diagonalizing the Hamiltonian                      ... done (   0.0 sec)
Back transforming the eigenvectors                 ... done (   0.0 sec)
Now organizing SCF variables                       ... done
                      ------------------
                      INITIAL GUESS DONE (   0.9 sec)
                      ------------------
-------------------
DFT GRID GENERATION
-------------------

General Integration Accuracy     IntAcc      ... 4.388
Radial Grid Type                 RadialGrid  ... OptM3 with GC (2021)
Angular Grid (max. ang.)         AngularGrid ... 4 (Lebedev-302)
Angular grid pruning method      GridPruning ... 4 (adaptive)
Weight generation scheme         WeightScheme... Becke
Basis function cutoff            BFCut       ... 1.0000e-11
Integration weight cutoff        WCut        ... 1.0000e-14
Angular grids for H and He will be reduced by one unit
Partially contracted basis set               ... off
Rotationally invariant grid construction     ... off

Total number of grid points                  ...   174685
Total number of batches                      ...     2747
Average number of points per batch           ...       63
Average number of grid points per atom       ...     4479
Time for grid setup =    0.903 sec

--------------------
COSX GRID GENERATION
--------------------

GRIDX 1
-------
General Integration Accuracy     IntAcc      ... 3.816
Radial Grid Type                 RadialGrid  ... OptM3 with GC (2021)
Angular Grid (max. ang.)         AngularGrid ... 1 (Lebedev-50)
Angular grid pruning method      GridPruning ... 4 (adaptive)
Weight generation scheme         WeightScheme... Becke
Basis function cutoff            BFCut       ... 1.0000e-11
Integration weight cutoff        WCut        ... 1.0000e-14
Angular grids for H and He will be reduced by one unit
Partially contracted basis set               ... on
Rotationally invariant grid construction     ... off

Total number of grid points                  ...    22264
Total number of batches                      ...      371
Average number of points per batch           ...       60
Average number of grid points per atom       ...      571
UseSFitting                                  ... on

GRIDX 2
-------
General Integration Accuracy     IntAcc      ... 4.020
Radial Grid Type                 RadialGrid  ... OptM3 with GC (2021)
Angular Grid (max. ang.)         AngularGrid ... 2 (Lebedev-110)
Angular grid pruning method      GridPruning ... 4 (adaptive)
Weight generation scheme         WeightScheme... Becke
Basis function cutoff            BFCut       ... 1.0000e-11
Integration weight cutoff        WCut        ... 1.0000e-14
Angular grids for H and He will be reduced by one unit
Partially contracted basis set               ... on
Rotationally invariant grid construction     ... off

Total number of grid points                  ...    47311
Total number of batches                      ...      761
Average number of points per batch           ...       62
Average number of grid points per atom       ...     1213
UseSFitting                                  ... on

GRIDX 3
-------
General Integration Accuracy     IntAcc      ... 4.338
Radial Grid Type                 RadialGrid  ... OptM3 with GC (2021)
Angular Grid (max. ang.)         AngularGrid ... 3 (Lebedev-194)
Angular grid pruning method      GridPruning ... 4 (adaptive)
Weight generation scheme         WeightScheme... Becke
Basis function cutoff            BFCut       ... 1.0000e-11
Integration weight cutoff        WCut        ... 1.0000e-14
Angular grids for H and He will be reduced by one unit
Partially contracted basis set               ... on
Rotationally invariant grid construction     ... off

Total number of grid points                  ...   103513
Total number of batches                      ...     1637
Average number of points per batch           ...       63
Average number of grid points per atom       ...     2654
UseSFitting                                  ... on

Time for X-Grid setup             =    1.917 sec

--------------
SCF ITERATIONS
--------------
ITER       Energy         Delta-E        Max-DP      RMS-DP      [F,P]     Damp
               ***  Starting incremental Fock matrix formation  ***
  0   -697.5951248318   0.000000000000 0.07304107  0.00098329  0.0796294 0.7000
  1   -697.7863040572  -0.191179225365 0.04835376  0.00073893  0.0426309 0.7000
                               ***Turning on DIIS***
  2   -697.8725454490  -0.086241391838 0.12722792  0.00160768  0.0165410 0.0000
  3   -697.9928420441  -0.120296595101 0.02522977  0.00040311  0.0233803 0.0000
  4   -698.0261479968  -0.033305952714 0.02845334  0.00023998  0.0052310 0.0000
  5   -698.0278501103  -0.001702113491 0.01647141  0.00012566  0.0029651 0.0000
  6   -698.0281348918  -0.000284781508 0.00615299  0.00005167  0.0021546 0.0000
  7   -698.0282485059  -0.000113614064 0.00282746  0.00002669  0.0014764 0.0000
  8   -698.0283106958  -0.000062189913 0.00462188  0.00003194  0.0009376 0.0000
               *** Restarting incremental Fock matrix formation ***
                                   *** Resetting DIIS ***
  9   -698.0286558793  -0.000345183453 0.00273353  0.00002316  0.0005688 0.0000
 10   -698.0286543439   0.000001535387 0.00054711  0.00000411  0.0012040 0.0000
 11   -698.0286643311  -0.000009987236 0.00061219  0.00000415  0.0003844 0.0000
 12   -698.0286671357  -0.000002804553 0.00087769  0.00000510  0.0001506 0.0000
 13   -698.0286688633  -0.000001727681 0.00025309  0.00000173  0.0000762 0.0000
 14   -698.0286691103  -0.000000246914 0.00017566  0.00000115  0.0000581 0.0000
 15   -698.0286691939  -0.000000083596 0.00006662  0.00000037  0.0000493 0.0000
 16   -698.0286691997  -0.000000005878 0.00004384  0.00000034  0.0000353 0.0000
 17   -698.0286692241  -0.000000024400 0.00002179  0.00000018  0.0000111 0.0000
 18   -698.0286692299  -0.000000005764 0.00001631  0.00000017  0.0000089 0.0000
 19   -698.0286692214   0.000000008495 0.00001692  0.00000012  0.0000048 0.0000
 20   -698.0286692374  -0.000000015974 0.00001632  0.00000013  0.0000016 0.0000
                            ***DIIS convergence achieved***

               *****************************************************
               *                     SUCCESS                       *
               *           SCF CONVERGED AFTER  21 CYCLES          *
               *****************************************************

Old exchange energy                            =    -20.106521765 Eh
New exchange energy                            =    -20.106496935 Eh
Exchange energy change after final integration =      0.000024830 Eh
Total energy after final integration           =   -698.028644384 Eh
Final COS-X integration done in                =     5.914 sec

----------------
TOTAL SCF ENERGY
----------------

Total Energy       :         -698.02864438 Eh          -18994.32507 eV

Components:
Nuclear Repulsion  :         1144.88610382 Eh           31153.93472 eV
Electronic Energy  :        -1842.91474821 Eh          -50148.25979 eV
One Electron Energy:        -3212.80582130 Eh          -87424.89099 eV
Two Electron Energy:         1369.89107309 Eh           37276.63121 eV
Max COSX asymmetry :            0.00000329 Eh               0.00009 eV

Virial components:
Potential Energy   :        -1390.48118095 Eh          -37836.91653 eV
Kinetic Energy     :          692.45253657 Eh           18842.59146 eV
Virial Ratio       :            2.00805269


DFT components:
N(Alpha)           :       65.000101552412 electrons
N(Beta)            :       64.000088916609 electrons
N(Total)           :      129.000190469021 electrons
E(X)               :      -79.749339019997 Eh       
E(C)               :       -4.991114486386 Eh       
E(XC)              :      -84.740453506382 Eh       
DFET-embed. en.    :        0.000000000000 Eh       

---------------
SCF CONVERGENCE
---------------

  Last Energy change         ...    2.2855e-08  Tolerance :   1.0000e-08
  Last MAX-Density change    ...    0.0000e+00  Tolerance :   1.0000e-07
  Last RMS-Density change    ...    0.0000e+00  Tolerance :   5.0000e-09
  Last DIIS Error            ...    9.1957e-07  Tolerance :   5.0000e-07

             **** THE GBW FILE WAS UPDATED (opt_EPRII.gbw) ****
             **** DENSITY opt_EPRII.scfp WAS UPDATED ****
             **** ENERGY FILE WAS UPDATED (opt_EPRII.en.tmp) ****
----------------------
UHF SPIN CONTAMINATION
----------------------

Warning: in a DFT calculation there is little theoretical justification to 
         calculate <S**2> as in Hartree-Fock theory. We will do it anyways
         but you should keep in mind that the values have only limited relevance

Expectation value of <S**2>     :     0.785983
Ideal value S*(S+1) for S=0.5   :     0.750000
Deviation                       :     0.035983

             **** THE GBW FILE WAS UPDATED (opt_EPRII.gbw) ****
             **** DENSITY opt_EPRII.scfp WAS UPDATED ****
----------------
ORBITAL ENERGIES
----------------
                 SPIN UP ORBITALS
  NO   OCC          E(Eh)            E(eV) 
   0   1.0000     -10.225893      -278.2607 
   1   1.0000     -10.224094      -278.2117 
   2   1.0000     -10.213699      -277.9289 
   3   1.0000     -10.210622      -277.8452 
   4   1.0000     -10.207110      -277.7496 
   5   1.0000     -10.205080      -277.6944 
   6   1.0000     -10.204185      -277.6700 
   7   1.0000     -10.199597      -277.5452 
   8   1.0000     -10.199154      -277.5331 
   9   1.0000     -10.198305      -277.5100 
  10   1.0000     -10.197730      -277.4943 
  11   1.0000     -10.190773      -277.3050 
  12   1.0000     -10.188720      -277.2492 
  13   1.0000     -10.185506      -277.1617 
  14   1.0000     -10.182957      -277.0923 
  15   1.0000     -10.182522      -277.0805 
  16   1.0000     -10.175431      -276.8876 
  17   1.0000     -10.173201      -276.8269 
  18   1.0000      -0.875754       -23.8305 
  19   1.0000      -0.820698       -22.3323 
  20   1.0000      -0.798468       -21.7274 
  21   1.0000      -0.795168       -21.6376 
  22   1.0000      -0.768080       -20.9005 
  23   1.0000      -0.754656       -20.5352 
  24   1.0000      -0.730852       -19.8875 
  25   1.0000      -0.723209       -19.6795 
  26   1.0000      -0.697813       -18.9885 
  27   1.0000      -0.656896       -17.8750 
  28   1.0000      -0.641121       -17.4458 
  29   1.0000      -0.617389       -16.8000 
  30   1.0000      -0.594557       -16.1787 
  31   1.0000      -0.580392       -15.7933 
  32   1.0000      -0.563382       -15.3304 
  33   1.0000      -0.544055       -14.8045 
  34   1.0000      -0.526239       -14.3197 
  35   1.0000      -0.500570       -13.6212 
  36   1.0000      -0.487997       -13.2791 
  37   1.0000      -0.478651       -13.0247 
  38   1.0000      -0.470830       -12.8119 
  39   1.0000      -0.463043       -12.6001 
  40   1.0000      -0.434489       -11.8230 
  41   1.0000      -0.430695       -11.7198 
  42   1.0000      -0.426351       -11.6016 
  43   1.0000      -0.422459       -11.4957 
  44   1.0000      -0.412250       -11.2179 
  45   1.0000      -0.399351       -10.8669 
  46   1.0000      -0.398327       -10.8390 
  47   1.0000      -0.381455       -10.3799 
  48   1.0000      -0.379957       -10.3391 
  49   1.0000      -0.365631        -9.9493 
  50   1.0000      -0.358193        -9.7469 
  51   1.0000      -0.355170        -9.6647 
  52   1.0000      -0.340552        -9.2669 
  53   1.0000      -0.333065        -9.0631 
  54   1.0000      -0.332412        -9.0454 
  55   1.0000      -0.331263        -9.0141 
  56   1.0000      -0.327701        -8.9172 
  57   1.0000      -0.324122        -8.8198 
  58   1.0000      -0.321140        -8.7387 
  59   1.0000      -0.287057        -7.8112 
  60   1.0000      -0.278671        -7.5830 
  61   1.0000      -0.277051        -7.5389 
  62   1.0000      -0.272106        -7.4044 
  63   1.0000      -0.232844        -6.3360 
  64   1.0000      -0.175567        -4.7774 
  65   0.0000      -0.051432        -1.3995 
  66   0.0000       0.008161         0.2221 
  67   0.0000       0.018855         0.5131 
  68   0.0000       0.021368         0.5815 
  69   0.0000       0.024593         0.6692 
  70   0.0000       0.030307         0.8247 
  71   0.0000       0.036797         1.0013 
  72   0.0000       0.038641         1.0515 
  73   0.0000       0.041014         1.1161 
  74   0.0000       0.045304         1.2328 
  75   0.0000       0.046858         1.2751 
  76   0.0000       0.049257         1.3404 
  77   0.0000       0.050858         1.3839 
  78   0.0000       0.073498         2.0000 
  79   0.0000       0.078933         2.1479 
  80   0.0000       0.087498         2.3809 
  81   0.0000       0.097575         2.6551 
  82   0.0000       0.107179         2.9165 
  83   0.0000       0.108385         2.9493 
  84   0.0000       0.123485         3.3602 
  85   0.0000       0.136705         3.7199 
  86   0.0000       0.149817         4.0767 
  87   0.0000       0.157081         4.2744 
  88   0.0000       0.157553         4.2872 
  89   0.0000       0.160471         4.3666 
  90   0.0000       0.174313         4.7433 
  91   0.0000       0.180610         4.9147 
  92   0.0000       0.184383         5.0173 
  93   0.0000       0.188036         5.1167 
  94   0.0000       0.194863         5.3025 
  95   0.0000       0.198204         5.3934 
  96   0.0000       0.199298         5.4232 
  97   0.0000       0.199936         5.4405 
  98   0.0000       0.202338         5.5059 
  99   0.0000       0.206712         5.6249 
 100   0.0000       0.214340         5.8325 
 101   0.0000       0.218106         5.9350 
 102   0.0000       0.221659         6.0317 
 103   0.0000       0.232673         6.3313 
 104   0.0000       0.237903         6.4737 
 105   0.0000       0.243832         6.6350 
 106   0.0000       0.250768         6.8237 
 107   0.0000       0.250997         6.8300 
 108   0.0000       0.258741         7.0407 
 109   0.0000       0.259708         7.0670 
 110   0.0000       0.266817         7.2605 
 111   0.0000       0.272665         7.4196 
 112   0.0000       0.276495         7.5238 
 113   0.0000       0.279768         7.6129 
 114   0.0000       0.284856         7.7513 
 115   0.0000       0.287930         7.8350 
 116   0.0000       0.296870         8.0782 
 117   0.0000       0.298583         8.1249 
 118   0.0000       0.300175         8.1682 
 119   0.0000       0.300784         8.1848 
 120   0.0000       0.310519         8.4497 
 121   0.0000       0.315258         8.5786 
 122   0.0000       0.318088         8.6556 
 123   0.0000       0.322242         8.7687 
 124   0.0000       0.325368         8.8537 
 125   0.0000       0.330571         8.9953 
 126   0.0000       0.334603         9.1050 
 127   0.0000       0.338146         9.2014 
 128   0.0000       0.349970         9.5232 
 129   0.0000       0.352161         9.5828 
 130   0.0000       0.358926         9.7669 
 131   0.0000       0.361805         9.8452 
 132   0.0000       0.363910         9.9025 
 133   0.0000       0.368370        10.0239 
 134   0.0000       0.377380        10.2690 
 135   0.0000       0.380413        10.3516 
 136   0.0000       0.384003        10.4493 
 137   0.0000       0.394375        10.7315 
 138   0.0000       0.397870        10.8266 
 139   0.0000       0.398934        10.8555 
 140   0.0000       0.407964        11.1013 
 141   0.0000       0.409795        11.1511 
 142   0.0000       0.416516        11.3340 
 143   0.0000       0.424005        11.5378 
 144   0.0000       0.435599        11.8532 
 145   0.0000       0.442315        12.0360 
 146   0.0000       0.443082        12.0569 
 147   0.0000       0.448010        12.1910 
 148   0.0000       0.457220        12.4416 
 149   0.0000       0.463930        12.6242 
 150   0.0000       0.473318        12.8796 
 151   0.0000       0.479922        13.0593 
 152   0.0000       0.484351        13.1799 
 153   0.0000       0.497207        13.5297 
 154   0.0000       0.507224        13.8023 
 155   0.0000       0.508356        13.8331 
 156   0.0000       0.517169        14.0729 
 157   0.0000       0.521011        14.1774 
 158   0.0000       0.533854        14.5269 
 159   0.0000       0.540490        14.7075 
 160   0.0000       0.545270        14.8376 
 161   0.0000       0.551149        14.9975 
 162   0.0000       0.551699        15.0125 
 163   0.0000       0.562402        15.3037 
 164   0.0000       0.571015        15.5381 
 165   0.0000       0.585653        15.9364 
 166   0.0000       0.591562        16.0972 
 167   0.0000       0.592377        16.1194 
 168   0.0000       0.594233        16.1699 
 169   0.0000       0.603438        16.4204 
 170   0.0000       0.624265        16.9871 
 171   0.0000       0.634075        17.2541 
 172   0.0000       0.653487        17.7823 
 173   0.0000       0.668970        18.2036 
 174   0.0000       0.675261        18.3748 
 175   0.0000       0.706463        19.2238 
 176   0.0000       0.729812        19.8592 
 177   0.0000       0.768806        20.9203 
 178   0.0000       0.785098        21.3636 
 179   0.0000       0.788060        21.4442 
 180   0.0000       0.790208        21.5027 
 181   0.0000       0.810283        22.0489 
 182   0.0000       0.821476        22.3535 
 183   0.0000       0.835190        22.7267 
 184   0.0000       0.839562        22.8456 
 185   0.0000       0.846867        23.0444 
 186   0.0000       0.856837        23.3157 
 187   0.0000       0.857457        23.3326 
 188   0.0000       0.860937        23.4273 
 189   0.0000       0.878925        23.9168 
 190   0.0000       0.879443        23.9309 
 191   0.0000       0.883793        24.0492 
 192   0.0000       0.892454        24.2849 
 193   0.0000       0.904976        24.6257 
 194   0.0000       0.911755        24.8101 
 195   0.0000       0.913080        24.8462 
 196   0.0000       0.919433        25.0190 
 197   0.0000       0.922900        25.1134 
 198   0.0000       0.926560        25.2130 
 199   0.0000       0.934247        25.4222 
 200   0.0000       0.942419        25.6445 
 201   0.0000       0.955131        25.9904 
 202   0.0000       0.957882        26.0653 
 203   0.0000       0.968365        26.3506 
 204   0.0000       0.968890        26.3648 
 205   0.0000       0.976517        26.5724 
 206   0.0000       0.982571        26.7371 
 207   0.0000       0.984751        26.7964 
 208   0.0000       0.996956        27.1285 
 209   0.0000       1.002219        27.2718 
 210   0.0000       1.008807        27.4510 
 211   0.0000       1.026115        27.9220 
 212   0.0000       1.031463        28.0675 
 213   0.0000       1.037908        28.2429 
 214   0.0000       1.040249        28.3066 
 215   0.0000       1.045881        28.4599 
 216   0.0000       1.050501        28.5856 
 217   0.0000       1.059054        28.8183 
 218   0.0000       1.062782        28.9198 
 219   0.0000       1.085843        29.5473 
 220   0.0000       1.101625        29.9767 
 221   0.0000       1.106076        30.0979 
 222   0.0000       1.110328        30.2136 
 223   0.0000       1.119132        30.4531 
 224   0.0000       1.127642        30.6847 
 225   0.0000       1.137056        30.9409 
 226   0.0000       1.149959        31.2920 
 227   0.0000       1.160733        31.5851 
 228   0.0000       1.170127        31.8408 
 229   0.0000       1.176205        32.0062 
 230   0.0000       1.183217        32.1970 
 231   0.0000       1.185916        32.2704 
 232   0.0000       1.201610        32.6975 
 233   0.0000       1.205666        32.8078 
 234   0.0000       1.219756        33.1912 
 235   0.0000       1.227381        33.3987 
 236   0.0000       1.236402        33.6442 
 237   0.0000       1.239316        33.7235 
 238   0.0000       1.252056        34.0702 
 239   0.0000       1.253656        34.1137 
 240   0.0000       1.258577        34.2476 
 241   0.0000       1.261257        34.3206 
 242   0.0000       1.279208        34.8090 
 243   0.0000       1.285999        34.9938 
 244   0.0000       1.303996        35.4835 
 245   0.0000       1.316494        35.8236 
 246   0.0000       1.320786        35.9404 
 247   0.0000       1.332453        36.2579 
 248   0.0000       1.342637        36.5350 
 249   0.0000       1.352139        36.7936 
 250   0.0000       1.370038        37.2806 
 251   0.0000       1.376544        37.4577 
 252   0.0000       1.386847        37.7380 
 253   0.0000       1.398001        38.0416 
 254   0.0000       1.399457        38.0812 
 255   0.0000       1.423656        38.7397 
 256   0.0000       1.427152        38.8348 
 257   0.0000       1.427934        38.8561 
 258   0.0000       1.433060        38.9955 
 259   0.0000       1.441561        39.2269 
 260   0.0000       1.445311        39.3289 
 261   0.0000       1.463972        39.8367 
 262   0.0000       1.466148        39.8959 
 263   0.0000       1.480131        40.2764 
 264   0.0000       1.499804        40.8117 
 265   0.0000       1.507744        41.0278 
 266   0.0000       1.512499        41.1572 
 267   0.0000       1.514909        41.2228 
 268   0.0000       1.520641        41.3787 
 269   0.0000       1.548369        42.1333 
 270   0.0000       1.559867        42.4461 
 271   0.0000       1.560994        42.4768 
 272   0.0000       1.562783        42.5255 
 273   0.0000       1.572070        42.7782 
 274   0.0000       1.586461        43.1698 
 275   0.0000       1.589658        43.2568 
 276   0.0000       1.590304        43.2744 
 277   0.0000       1.599414        43.5223 
 278   0.0000       1.603810        43.6419 
 279   0.0000       1.613336        43.9011 
 280   0.0000       1.624913        44.2161 
 281   0.0000       1.627634        44.2902 
 282   0.0000       1.635634        44.5079 
 283   0.0000       1.656213        45.0678 
 284   0.0000       1.658601        45.1328 
 285   0.0000       1.676089        45.6087 
 286   0.0000       1.687271        45.9130 
 287   0.0000       1.689405        45.9710 
 288   0.0000       1.693140        46.0727 
 289   0.0000       1.703502        46.3546 
 290   0.0000       1.704238        46.3747 
 291   0.0000       1.723873        46.9090 
 292   0.0000       1.728648        47.0389 
 293   0.0000       1.740689        47.3666 
 294   0.0000       1.741578        47.3908 
 295   0.0000       1.749184        47.5977 
 296   0.0000       1.769587        48.1529 
 297   0.0000       1.771708        48.2106 
 298   0.0000       1.778274        48.3893 
 299   0.0000       1.786573        48.6151 
 300   0.0000       1.798522        48.9403 
 301   0.0000       1.803168        49.0667 
 302   0.0000       1.805140        49.1204 
 303   0.0000       1.819349        49.5070 
 304   0.0000       1.826709        49.7073 
 305   0.0000       1.844167        50.1823 
 306   0.0000       1.864555        50.7371 
 307   0.0000       1.899981        51.7011 
 308   0.0000       1.917803        52.1861 
 309   0.0000       1.928081        52.4658 
 310   0.0000       1.928296        52.4716 
 311   0.0000       1.933699        52.6186 
 312   0.0000       1.938297        52.7438 
 313   0.0000       1.952544        53.1314 
 314   0.0000       1.980167        53.8831 
 315   0.0000       2.008385        54.6509 
 316   0.0000       2.035598        55.3914 
 317   0.0000       2.044304        55.6283 
 318   0.0000       2.055033        55.9203 
 319   0.0000       2.074746        56.4567 
 320   0.0000       2.088497        56.8309 
 321   0.0000       2.103070        57.2275 
 322   0.0000       2.105839        57.3028 
 323   0.0000       2.125892        57.8485 
 324   0.0000       2.127302        57.8868 
 325   0.0000       2.156088        58.6701 
 326   0.0000       2.158198        58.7276 
 327   0.0000       2.180926        59.3460 
 328   0.0000       2.190067        59.5947 
 329   0.0000       2.208764        60.1035 
 330   0.0000       2.213423        60.2303 
 331   0.0000       2.238519        60.9132 
 332   0.0000       2.244118        61.0656 
 333   0.0000       2.250827        61.2481 
 334   0.0000       2.257079        61.4183 
 335   0.0000       2.268366        61.7254 
 336   0.0000       2.280099        62.0447 
 337   0.0000       2.303169        62.6724 
 338   0.0000       2.310772        62.8793 
 339   0.0000       2.315041        62.9955 
 340   0.0000       2.325879        63.2904 
 341   0.0000       2.330658        63.4204 
 342   0.0000       2.354115        64.0587 
 343   0.0000       2.375030        64.6279 
 344   0.0000       2.384484        64.8851 
 345   0.0000       2.411428        65.6183 
 346   0.0000       2.427742        66.0622 
 347   0.0000       2.432051        66.1795 
 348   0.0000       2.442873        66.4740 
 349   0.0000       2.457860        66.8818 
 350   0.0000       2.471729        67.2592 
 351   0.0000       2.474786        67.3423 
 352   0.0000       2.482861        67.5621 
 353   0.0000       2.505944        68.1902 
 354   0.0000       2.510616        68.3173 
 355   0.0000       2.524733        68.7015 
 356   0.0000       2.534699        68.9727 
 357   0.0000       2.551417        69.4276 
 358   0.0000       2.559008        69.6342 
 359   0.0000       2.560776        69.6822 
 360   0.0000       2.571211        69.9662 
 361   0.0000       2.581309        70.2410 
 362   0.0000       2.603945        70.8569 
 363   0.0000       2.615165        71.1623 
 364   0.0000       2.626385        71.4676 
 365   0.0000       2.628610        71.5281 
 366   0.0000       2.716448        73.9183 
 367   0.0000       2.773800        75.4789 
 368   0.0000       2.795471        76.0686 
 369   0.0000       2.830611        77.0248 
 370   0.0000       2.905622        79.0660 
 371   0.0000       2.959693        80.5373 
 372   0.0000       2.967530        80.7506 
 373   0.0000       2.984927        81.2240 
 374   0.0000       3.291127        89.5561 
 375   0.0000       4.977417       135.4424 
 376   0.0000       4.984267       135.6288 
 377   0.0000       4.996823       135.9705 
 378   0.0000       5.009004       136.3019 
 379   0.0000       5.009968       136.3281 
 380   0.0000       5.018977       136.5733 
 381   0.0000       5.023082       136.6850 
 382   0.0000       5.023932       136.7081 
 383   0.0000       5.033844       136.9779 
 384   0.0000       5.046170       137.3133 
 385   0.0000       5.200880       141.5231 
 386   0.0000       5.215735       141.9274 
 387   0.0000       5.233799       142.4189 
 388   0.0000       5.244595       142.7127 
 389   0.0000       5.276645       143.5848 
 390   0.0000       5.287009       143.8668 
 391   0.0000       5.295680       144.1028 
 392   0.0000       5.304620       144.3460 
 393   0.0000       5.307846       144.4338 
 394   0.0000       5.337184       145.2322 
 395   0.0000       5.361938       145.9058 
 396   0.0000       5.374524       146.2482 
 397   0.0000       5.394044       146.7794 
 398   0.0000       5.407389       147.1425 
 399   0.0000       5.446439       148.2051 
 400   0.0000       5.550640       151.0406 
 401   0.0000       5.563326       151.3858 
 402   0.0000       5.601076       152.4130 
 403   0.0000       5.628343       153.1550 
 404   0.0000       5.633929       153.3070 
 405   0.0000       5.726374       155.8225 
 406   0.0000       5.735867       156.0809 
 407   0.0000       5.758246       156.6898 
 408   0.0000       5.821376       158.4077 
 409   0.0000       5.848820       159.1545 
 410   0.0000       5.882354       160.0670 
 411   0.0000       6.021769       163.8607 
 412   0.0000       6.246558       169.9775 
 413   0.0000       6.371300       173.3719 
 414   0.0000      29.632391       806.3384 
 415   0.0000      29.808763       811.1377 
 416   0.0000      29.846801       812.1727 
 417   0.0000      29.858044       812.4787 
 418   0.0000      29.976138       815.6922 
 419   0.0000      29.984650       815.9238 
 420   0.0000      30.057259       817.8996 
 421   0.0000      30.080844       818.5414 
 422   0.0000      30.107016       819.2535 
 423   0.0000      30.120336       819.6160 
 424   0.0000      30.159294       820.6761 
 425   0.0000      30.199022       821.7572 
 426   0.0000      30.219377       822.3111 
 427   0.0000      30.256432       823.3194 
 428   0.0000      30.283954       824.0683 
 429   0.0000      30.332968       825.4020 
 430   0.0000      30.453381       828.6786 
 431   0.0000      30.588604       832.3582 
 432   0.0000      36.601410       995.9750 
 433   0.0000      36.610517       996.2228 
 434   0.0000      36.626340       996.6534 
 435   0.0000      36.632198       996.8128 
 436   0.0000      36.636191       996.9214 
 437   0.0000      36.643205       997.1123 
 438   0.0000      36.647928       997.2408 
 439   0.0000      36.658532       997.5294 
 440   0.0000      36.669453       997.8266 
 441   0.0000      36.807595      1001.5856 
 442   0.0000      36.822362      1001.9874 
 443   0.0000      36.847335      1002.6669 
 444   0.0000      36.862659      1003.0840 
 445   0.0000      36.866471      1003.1877 
 446   0.0000      36.873855      1003.3886 
 447   0.0000      36.879742      1003.5488 
 448   0.0000      36.914514      1004.4950 
 449   0.0000      36.931493      1004.9570 
 450   0.0000      36.933692      1005.0169 
 451   0.0000      36.963098      1005.8170 
 452   0.0000      37.007504      1007.0254 

                 SPIN DOWN ORBITALS
  NO   OCC          E(Eh)            E(eV) 
   0   1.0000     -10.225723      -278.2561 
   1   1.0000     -10.222463      -278.1674 
   2   1.0000     -10.213053      -277.9113 
   3   1.0000     -10.210233      -277.8346 
   4   1.0000     -10.206687      -277.7381 
   5   1.0000     -10.205893      -277.7165 
   6   1.0000     -10.201104      -277.5861 
   7   1.0000     -10.200749      -277.5765 
   8   1.0000     -10.198952      -277.5276 
   9   1.0000     -10.196426      -277.4588 
  10   1.0000     -10.191439      -277.3232 
  11   1.0000     -10.189698      -277.2758 
  12   1.0000     -10.188921      -277.2546 
  13   1.0000     -10.185469      -277.1607 
  14   1.0000     -10.182954      -277.0923 
  15   1.0000     -10.182523      -277.0805 
  16   1.0000     -10.175440      -276.8878 
  17   1.0000     -10.173202      -276.8269 
  18   1.0000      -0.872332       -23.7373 
  19   1.0000      -0.815691       -22.1961 
  20   1.0000      -0.795924       -21.6582 
  21   1.0000      -0.793517       -21.5927 
  22   1.0000      -0.766122       -20.8472 
  23   1.0000      -0.753890       -20.5144 
  24   1.0000      -0.726659       -19.7734 
  25   1.0000      -0.721790       -19.6409 
  26   1.0000      -0.695450       -18.9242 
  27   1.0000      -0.653782       -17.7903 
  28   1.0000      -0.639241       -17.3946 
  29   1.0000      -0.611890       -16.6504 
[...]
      pz      :     1.021123  p :     3.038063
      px      :     1.020361
      py      :     0.996579
      dz2     :     0.023766  d :     0.169281
      dxz     :     0.044212
      dyz     :     0.017905
      dx2y2   :     0.036267
      dxy     :     0.047131
 26 H s       :     0.875440  s :     0.875440
      pz      :     0.035562  p :     0.079966
      px      :     0.028055
      py      :     0.016348
 27 H s       :     0.875378  s :     0.875378
      pz      :     0.036233  p :     0.079959
      px      :     0.027391
      py      :     0.016335
 28 C s       :     2.876990  s :     2.876990
      pz      :     1.023750  p :     3.043814
      px      :     1.017203
      py      :     1.002861
      dz2     :     0.023850  d :     0.169043
      dxz     :     0.043125
      dyz     :     0.017960
      dx2y2   :     0.036708
      dxy     :     0.047399
 29 H s       :     0.879400  s :     0.879400
      pz      :     0.035144  p :     0.079533
      px      :     0.027982
      py      :     0.016407
 30 H s       :     0.879400  s :     0.879400
      pz      :     0.035817  p :     0.079532
      px      :     0.027314
      py      :     0.016401
 31 C s       :     2.881245  s :     2.881245
      pz      :     1.036671  p :     3.080420
      px      :     1.031031
      py      :     1.012718
      dz2     :     0.019607  d :     0.116878
      dxz     :     0.032589
      dyz     :     0.009140
      dx2y2   :     0.021684
      dxy     :     0.033857
 32 H s       :     0.886080  s :     0.886080
      pz      :     0.036292  p :     0.079839
      px      :     0.027024
      py      :     0.016523
 33 H s       :     0.886080  s :     0.886080
      pz      :     0.035603  p :     0.079840
      px      :     0.027696
      py      :     0.016540
 34 C s       :     2.958563  s :     2.958563
      pz      :     0.978129  p :     3.020144
      px      :     1.062570
      py      :     0.979445
      dz2     :     0.007207  d :     0.080172
      dxz     :     0.026043
      dyz     :     0.000009
      dx2y2   :     0.021427
      dxy     :     0.025486
 35 H s       :     0.856413  s :     0.856413
      pz      :     0.021431  p :     0.098375
      px      :     0.056372
      py      :     0.020571
 36 H s       :     0.856357  s :     0.856357
      pz      :     0.021115  p :     0.098142
      px      :     0.056435
      py      :     0.020592
 37 H s       :     0.887339  s :     0.887339
      pz      :     0.017052  p :     0.080250
      px      :     0.029764
      py      :     0.033434
 38 H s       :     0.888126  s :     0.888126
      pz      :     0.017080  p :     0.080251
      px      :     0.026890
      py      :     0.036281

SPIN
  0 C s       :     0.002199  s :     0.002199
      pz      :     0.072070  p :     0.081275
      px      :     0.000941
      py      :     0.008263
      dz2     :    -0.000266  d :    -0.002317
      dxz     :    -0.001356
      dyz     :     0.000000
      dx2y2   :    -0.000263
      dxy     :    -0.000433
  1 C s       :    -0.002982  s :    -0.002982
      pz      :    -0.026725  p :    -0.036996
      px      :    -0.002474
      py      :    -0.007798
      dz2     :     0.000171  d :     0.016208
      dxz     :     0.014888
      dyz     :     0.000004
      dx2y2   :     0.000522
      dxy     :     0.000623
  2 C s       :     0.001337  s :     0.001337
      pz      :     0.014637  p :     0.020112
      px      :     0.001097
      py      :     0.004379
      dz2     :    -0.000092  d :    -0.007418
      dxz     :    -0.006552
      dyz     :     0.000053
      dx2y2   :    -0.000270
      dxy     :    -0.000556
  3 C s       :     0.005886  s :     0.005886
      pz      :     0.158346  p :     0.167368
      px      :     0.004234
      py      :     0.004788
      dz2     :    -0.000876  d :    -0.009317
      dxz     :    -0.001943
      dyz     :    -0.004444
      dx2y2   :    -0.000980
      dxy     :    -0.001073
  4 C s       :    -0.006417  s :    -0.006417
      pz      :    -0.089146  p :    -0.104877
      px      :    -0.006674
      py      :    -0.009056
      dz2     :     0.000583  d :     0.039718
      dxz     :     0.010618
      dyz     :     0.025492
      dx2y2   :     0.001408
      dxy     :     0.001615
  5 C s       :     0.005450  s :     0.005450
      pz      :     0.161952  p :     0.170605
      px      :     0.004654
      py      :     0.003998
      dz2     :    -0.000668  d :    -0.008025
      dxz     :    -0.004001
      dyz     :    -0.001734
      dx2y2   :    -0.000645
      dxy     :    -0.000978
  6 C s       :    -0.003661  s :    -0.003661
      pz      :    -0.066735  p :    -0.074384
      px      :    -0.002886
      py      :    -0.004764
      dz2     :     0.000407  d :     0.017061
      dxz     :     0.001687
      dyz     :     0.013309
      dx2y2   :     0.000651
      dxy     :     0.001007
  7 C s       :     0.006163  s :     0.006163
      pz      :     0.168562  p :     0.177834
      px      :     0.004627
      py      :     0.004645
      dz2     :    -0.000815  d :    -0.006547
      dxz     :    -0.003001
      dyz     :    -0.001507
      dx2y2   :    -0.000589
      dxy     :    -0.000635
  8 C s       :    -0.003730  s :    -0.003730
      pz      :    -0.071877  p :    -0.080018
      px      :    -0.004516
      py      :    -0.003625
      dz2     :     0.000343  d :     0.017535
      dxz     :     0.011001
      dyz     :     0.004815
      dx2y2   :     0.000728
      dxy     :     0.000648
  9 H s       :    -0.004789  s :    -0.004789
      pz      :     0.005121  p :     0.005992
      px      :     0.000307
      py      :     0.000563
 10 H s       :     0.002095  s :     0.002095
      pz      :    -0.002162  p :    -0.002682
      px      :    -0.000209
      py      :    -0.000311
 11 C s       :     0.017386  s :     0.017386
      pz      :     0.546223  p :     0.569450
      px      :     0.011575
      py      :     0.011651
      dz2     :    -0.002051  d :    -0.006154
      dxz     :    -0.000296
      dyz     :    -0.001691
      dx2y2   :    -0.001078
      dxy     :    -0.001038
 12 H s       :    -0.014928  s :    -0.014928
      pz      :     0.016809  p :     0.019471
      px      :     0.002499
      py      :     0.000163
 13 C s       :    -0.003115  s :    -0.003115
      pz      :    -0.003312  p :    -0.017345
      px      :    -0.005073
      py      :    -0.008961
      dz2     :     0.000382  d :     0.024007
      dxz     :     0.010511
      dyz     :     0.011672
      dx2y2   :     0.000598
      dxy     :     0.000844
 14 H s       :     0.025300  s :     0.025300
      pz      :    -0.000297  p :    -0.000772
      px      :    -0.000390
      py      :    -0.000084
 15 H s       :     0.024773  s :     0.024773
      pz      :    -0.000273  p :    -0.000768
      px      :    -0.000406
      py      :    -0.000089
 16 C s       :     0.000057  s :     0.000057
      pz      :     0.000866  p :     0.001277
      px      :     0.000292
      py      :     0.000119
      dz2     :    -0.000056  d :    -0.000394
      dxz     :     0.000240
      dyz     :    -0.000122
      dx2y2   :    -0.000379
      dxy     :    -0.000077
 17 H s       :    -0.000203  s :    -0.000203
      pz      :     0.000035  p :     0.000155
      px      :     0.000075
      py      :     0.000046
 18 H s       :    -0.000200  s :    -0.000200
      pz      :     0.000031  p :     0.000151
      px      :     0.000069
      py      :     0.000051
 19 C s       :    -0.000239  s :    -0.000239
      pz      :     0.000398  p :    -0.000011
      px      :    -0.000078
      py      :    -0.000331
      dz2     :    -0.000003  d :     0.000085
      dxz     :     0.000003
      dyz     :     0.000092
      dx2y2   :     0.000009
      dxy     :    -0.000017
 20 H s       :     0.000170  s :     0.000170
      pz      :     0.000001  p :     0.000030
      px      :     0.000013
      py      :     0.000016
 21 H s       :     0.000169  s :     0.000169
      pz      :     0.000002  p :     0.000033
      px      :     0.000013
      py      :     0.000018
 22 C s       :    -0.001088  s :    -0.001088
      pz      :    -0.000112  p :    -0.005160
      px      :    -0.002201
      py      :    -0.002847
      dz2     :     0.000141  d :     0.007900
      dxz     :     0.004034
      dyz     :     0.003208
      dx2y2   :     0.000204
      dxy     :     0.000313
 23 H s       :     0.008501  s :     0.008501
      pz      :    -0.000108  p :    -0.000242
      px      :    -0.000163
      py      :     0.000029
 24 H s       :     0.008542  s :     0.008542
      pz      :    -0.000111  p :    -0.000242
      px      :    -0.000161
      py      :     0.000030
 25 C s       :     0.000043  s :     0.000043
      pz      :    -0.000006  p :     0.000191
      px      :     0.000115
      py      :     0.000082
      dz2     :    -0.000014  d :    -0.000040
      dxz     :     0.000150
      dyz     :    -0.000028
      dx2y2   :    -0.000102
      dxy     :    -0.000047
 26 H s       :    -0.000009  s :    -0.000009
      pz      :     0.000006  p :     0.000018
      px      :     0.000009
      py      :     0.000003
 27 H s       :    -0.000010  s :    -0.000010
      pz      :     0.000006  p :     0.000018
      px      :     0.000009
      py      :     0.000003
 28 C s       :    -0.000053  s :    -0.000053
      pz      :     0.000178  p :     0.000049
      px      :    -0.000032
      py      :    -0.000097
      dz2     :    -0.000002  d :    -0.000002
      dxz     :    -0.000006
      dyz     :     0.000013
      dx2y2   :     0.000001
      dxy     :    -0.000008
 29 H s       :     0.000040  s :     0.000040
      pz      :     0.000001  p :     0.000019
      px      :     0.000004
      py      :     0.000014
 30 H s       :     0.000040  s :     0.000040
      pz      :     0.000001  p :     0.000019
      px      :     0.000004
      py      :     0.000014
 31 C s       :    -0.000009  s :    -0.000009
      pz      :     0.000006  p :    -0.000039
      px      :    -0.000013
      py      :    -0.000032
      dz2     :    -0.000000  d :     0.000013
      dxz     :     0.000010
      dyz     :     0.000005
      dx2y2   :    -0.000003
      dxy     :     0.000001
 32 H s       :     0.000017  s :     0.000017
      pz      :    -0.000000  p :    -0.000002
      px      :    -0.000001
      py      :    -0.000001
 33 H s       :     0.000017  s :     0.000017
      pz      :    -0.000000  p :    -0.000002
      px      :    -0.000001
      py      :    -0.000001
 34 C s       :    -0.001149  s :    -0.001149
      pz      :    -0.034132  p :    -0.039885
      px      :    -0.000491
      py      :    -0.005262
      dz2     :     0.000127  d :     0.001313
      dxz     :     0.000801
      dyz     :     0.000000
      dx2y2   :     0.000135
      dxy     :     0.000249
 35 H s       :    -0.002424  s :    -0.002424
      pz      :     0.002213  p :     0.002877
      px      :     0.000442
      py      :     0.000221
 36 H s       :     0.001184  s :     0.001184
      pz      :    -0.001047  p :    -0.001413
      px      :    -0.000218
      py      :    -0.000148
 37 H s       :    -0.000099  s :    -0.000099
      pz      :     0.000025  p :     0.000015
      px      :     0.000003
      py      :    -0.000014
 38 H s       :    -0.000003  s :    -0.000003
      pz      :    -0.000000  p :    -0.000003
      px      :    -0.000001
      py      :    -0.000002


                      *****************************
                      * MAYER POPULATION ANALYSIS *
                      *****************************

  NA   - Mulliken gross atomic population
  ZA   - Total nuclear charge
  QA   - Mulliken gross atomic charge
  VA   - Mayer's total valence
  BVA  - Mayer's bonded valence
  FA   - Mayer's free valence

  ATOM       NA         ZA         QA         VA         BVA        FA
  0 C      6.5368     6.0000    -0.5368     3.8892     3.8822     0.0070
  1 C      6.0122     6.0000    -0.0122     3.8107     3.8092     0.0015
  2 C      6.0027     6.0000    -0.0027     3.8136     3.8132     0.0004
  3 C      5.6449     6.0000     0.3551     3.9025     3.8675     0.0350
  4 C      5.5536     6.0000     0.4464     3.8404     3.8258     0.0146
  5 C      6.4500     6.0000    -0.4500     4.2381     4.2028     0.0353
  6 C      5.5755     6.0000     0.4245     3.9489     3.9416     0.0073
  7 C      5.7052     6.0000     0.2948     3.8287     3.7895     0.0391
  8 C      6.3911     6.0000    -0.3911     4.3224     4.3140     0.0084
  9 H      0.8679     1.0000     0.1321     0.9651     0.9650     0.0002
 10 H      0.8657     1.0000     0.1343     0.9658     0.9657     0.0000
 11 C      6.2954     6.0000    -0.2954     4.0400     3.6529     0.3871
 12 H      0.8655     1.0000     0.1345     0.9798     0.9782     0.0016
 13 C      6.2705     6.0000    -0.2705     3.9595     3.9581     0.0014
 14 H      0.8468     1.0000     0.1532     0.9637     0.9628     0.0009
 15 H      0.8476     1.0000     0.1524     0.9640     0.9631     0.0009
 16 C      6.2897     6.0000    -0.2897     3.9019     3.9019     0.0000
 17 H      0.8439     1.0000     0.1561     0.9633     0.9633     0.0000
 18 H      0.8443     1.0000     0.1557     0.9634     0.9634     0.0000
 19 C      6.5089     6.0000    -0.5089     3.9051     3.9051     0.0000
 20 H      0.8408     1.0000     0.1592     0.9654     0.9654     0.0000
 21 H      0.8409     1.0000     0.1591     0.9654     0.9654     0.0000
 22 C      6.3867     6.0000    -0.3867     4.0560     4.0558     0.0002
 23 H      0.8443     1.0000     0.1557     0.9621     0.9620     0.0001
 24 H      0.8442     1.0000     0.1558     0.9620     0.9619     0.0001
 25 C      6.2690     6.0000    -0.2690     4.0144     4.0144     0.0000
 26 H      0.8580     1.0000     0.1420     0.9662     0.9662     0.0000
 27 H      0.8578     1.0000     0.1422     0.9661     0.9661     0.0000
 28 C      6.2626     6.0000    -0.2626     3.8901     3.8901     0.0000
 29 H      0.8552     1.0000     0.1448     0.9669     0.9669     0.0000
 30 H      0.8552     1.0000     0.1448     0.9669     0.9669     0.0000
 31 C      6.5102     6.0000    -0.5102     3.9006     3.9006     0.0000
 32 H      0.8403     1.0000     0.1597     0.9653     0.9653     0.0000
 33 H      0.8403     1.0000     0.1597     0.9653     0.9653     0.0000
 34 C      6.5364     6.0000    -0.5364     3.8887     3.8872     0.0016
 35 H      0.8151     1.0000     0.1849     0.9773     0.9772     0.0000
 36 H      0.8158     1.0000     0.1842     0.9771     0.9771     0.0000
 37 H      0.8536     1.0000     0.1464     0.9670     0.9670     0.0000
 38 H      0.8554     1.0000     0.1446     0.9667     0.9667     0.0000

  Mayer bond orders larger than 0.100000
B(  0-C ,  1-C ) :   2.6946 B(  0-C , 35-H ) :   0.9860 B(  1-C ,  3-C ) :   0.9277 
B(  2-C ,  6-C ) :   0.9063 B(  2-C , 34-C ) :   2.7127 B(  3-C ,  4-C ) :   1.2373 
B(  3-C ,  8-C ) :   1.4328 B(  4-C ,  5-C ) :   1.2534 B(  4-C ,  6-C ) :   0.1010 
B(  4-C , 11-C ) :   1.2698 B(  5-C ,  6-C ) :   1.4775 B(  5-C ,  9-H ) :   0.9726 
B(  6-C ,  7-C ) :   1.3138 B(  6-C ,  8-C ) :   0.1017 B(  7-C ,  8-C ) :   1.4298 
B(  7-C , 22-C ) :   0.9450 B(  8-C , 10-H ) :   0.9690 B( 11-C , 12-H ) :   0.9874 
B( 11-C , 13-C ) :   1.0038 B( 13-C , 14-H ) :   0.9554 B( 13-C , 15-H ) :   0.9550 
B( 13-C , 16-C ) :   0.9808 B( 16-C , 17-H ) :   0.9725 B( 16-C , 18-H ) :   0.9721 
B( 16-C , 19-C ) :   0.9617 B( 19-C , 20-H ) :   0.9727 B( 19-C , 21-H ) :   0.9728 
B( 19-C , 37-H ) :   0.9674 B( 22-C , 23-H ) :   0.9592 B( 22-C , 24-H ) :   0.9592 
B( 22-C , 25-C ) :   1.0194 B( 25-C , 26-H ) :   0.9613 B( 25-C , 27-H ) :   0.9614 
B( 25-C , 28-C ) :   0.9861 B( 28-C , 29-H ) :   0.9717 B( 28-C , 30-H ) :   0.9717 
B( 28-C , 31-C ) :   0.9547 B( 31-C , 32-H ) :   0.9730 B( 31-C , 33-H ) :   0.9730 
B( 31-C , 38-H ) :   0.9677 B( 34-C , 36-H ) :   0.9831 

-------
TIMINGS
-------

Total SCF time: 0 days 0 hours 0 min 52 sec 

Total time                  ....      52.994 sec
Sum of individual times     ....      49.379 sec  ( 93.2%)

Fock matrix formation       ....      44.261 sec  ( 83.5%)
  Split-RI-J                ....       3.558 sec  (  8.0% of F)
  Chain of spheres X        ....      27.198 sec  ( 61.4% of F)
  XC integration            ....       9.807 sec  ( 22.2% of F)
    Basis function eval.    ....       0.723 sec  (  7.4% of XC)
    Density eval.           ....       1.104 sec  ( 11.3% of XC)
    XC-Functional eval.     ....       0.205 sec  (  2.1% of XC)
    XC-Potential eval.      ....       0.638 sec  (  6.5% of XC)
Diagonalization             ....       1.023 sec  (  1.9%)
Density matrix formation    ....       0.100 sec  (  0.2%)
Population analysis         ....       0.363 sec  (  0.7%)
Initial guess               ....       0.180 sec  (  0.3%)
Orbital Transformation      ....       0.000 sec  (  0.0%)
Orbital Orthonormalization  ....       0.135 sec  (  0.3%)
DIIS solution               ....       0.703 sec  (  1.3%)
Grid generation             ....       2.749 sec  (  5.2%)

Maximum memory used throughout the entire SCF-calculation: 101.2 MB

-------------------------   --------------------
FINAL SINGLE POINT ENERGY      -698.029620490513
-------------------------   --------------------

                                *** OPTIMIZATION RUN DONE ***

                            ***************************************
                            *     ORCA property calculations      *
                            ***************************************

                                    ---------------------
                                    Active property flags
                                    ---------------------
   (+) Dipole Moment


------------------------------------------------------------------------------
                       ORCA ELECTRIC PROPERTIES CALCULATION
------------------------------------------------------------------------------

Dipole Moment Calculation                       ... on
Quadrupole Moment Calculation                   ... off
Polarizability Calculation                      ... off
GBWName                                         ... opt_EPRII.gbw
Electron density                                ... opt_EPRII.scfp
The origin for moment calculation is the CENTER OF MASS  = (-0.075990, -0.015469  0.014030)

-------------
DIPOLE MOMENT
-------------
                                X             Y             Z
Electronic contribution:      0.54058       2.30646      -0.06999
Nuclear contribution   :     -0.63697      -2.24804       0.07068
                        -----------------------------------------
Total Dipole Moment    :     -0.09640       0.05842       0.00068
                        -----------------------------------------
Magnitude (a.u.)       :      0.11272
Magnitude (Debye)      :      0.28651



--------------------
Rotational spectrum 
--------------------
 
Rotational constants in cm-1:     0.022511     0.005937     0.004727 
Rotational constants in MHz :   674.872210   177.979418   141.699834 

 Dipole components along the rotational axes: 
x,y,z [a.u.] :    -0.029359    -0.108815     0.001757 
x,y,z [Debye]:    -0.074625    -0.276586     0.004465 

 

Timings for individual modules:

Sum of individual times         ...      589.778 sec (=   9.830 min)
GTO integral calculation        ...       20.394 sec (=   0.340 min)   3.5 %
SCF iterations                  ...      459.986 sec (=   7.666 min)  78.0 %
SCF Gradient evaluation         ...      107.483 sec (=   1.791 min)  18.2 %
Geometry relaxation             ...        1.916 sec (=   0.032 min)   0.3 %
                             ****ORCA TERMINATED NORMALLY****
TOTAL RUN TIME: 0 days 0 hours 10 minutes 12 seconds 682 msec
