
                                 *****************
                                 * O   R   C   A *
                                 *****************

                                            #,                                       
                                            ###                                      
                                            ####                                     
                                            #####                                    
                                            ######                                   
                                           ########,                                 
                                     ,,################,,,,,                         
                               ,,#################################,,                 
                          ,,##########################################,,             
                       ,#########################################, ''#####,          
                    ,#############################################,,   '####,        
                  ,##################################################,,,,####,       
                ,###########''''           ''''###############################       
              ,#####''   ,,,,##########,,,,          '''####'''          '####       
            ,##' ,,,,###########################,,,                        '##       
           ' ,,###''''                  '''############,,,                           
         ,,##''                                '''############,,,,        ,,,,,,###''
      ,#''                                            '''#######################'''  
     '                                                          ''''####''''         
             ,#######,   #######,   ,#######,      ##                                
            ,#'     '#,  ##    ##  ,#'     '#,    #''#        ######   ,####,        
            ##       ##  ##   ,#'  ##            #'  '#       #        #'  '#        
            ##       ##  #######   ##           ,######,      #####,   #    #        
            '#,     ,#'  ##    ##  '#,     ,#' ,#      #,         ##   #,  ,#        
             '#######'   ##     ##  '#######'  #'      '#     #####' # '####'        



                  #######################################################
                  #                        -***-                        #
                  #          Department of theory and spectroscopy      #
                  #    Directorship and core code : Frank Neese         #
                  #        Max Planck Institute fuer Kohlenforschung    #
                  #                Kaiser Wilhelm Platz 1               #
                  #                 D-45470 Muelheim/Ruhr               #
                  #                      Germany                        #
                  #                                                     #
                  #                  All rights reserved                #
                  #                        -***-                        #
                  #######################################################


                         Program Version 5.0.4 -  RELEASE  -


 With contributions from (in alphabetic order):
   Daniel Aravena         : Magnetic Suceptibility
   Michael Atanasov       : Ab Initio Ligand Field Theory (pilot matlab implementation)
   Alexander A. Auer      : GIAO ZORA, VPT2 properties, NMR spectrum
   Ute Becker             : Parallelization
   Giovanni Bistoni       : ED, misc. LED, open-shell LED, HFLD
   Martin Brehm           : Molecular dynamics
   Dmytro Bykov           : SCF Hessian
   Vijay G. Chilkuri      : MRCI spin determinant printing, contributions to CSF-ICE
   Dipayan Datta          : RHF DLPNO-CCSD density
   Achintya Kumar Dutta   : EOM-CC, STEOM-CC
   Dmitry Ganyushin       : Spin-Orbit,Spin-Spin,Magnetic field MRCI
   Miquel Garcia          : C-PCM and meta-GGA Hessian, CC/C-PCM, Gaussian charge scheme
   Yang Guo               : DLPNO-NEVPT2, F12-NEVPT2, CIM, IAO-localization
   Andreas Hansen         : Spin unrestricted coupled pair/coupled cluster methods
   Benjamin Helmich-Paris : MC-RPA, TRAH-SCF, COSX integrals
   Lee Huntington         : MR-EOM, pCC
   Robert Izsak           : Overlap fitted RIJCOSX, COSX-SCS-MP3, EOM
   Marcus Kettner         : VPT2
   Christian Kollmar      : KDIIS, OOCD, Brueckner-CCSD(T), CCSD density, CASPT2, CASPT2-K
   Simone Kossmann        : Meta GGA functionals, TD-DFT gradient, OOMP2, MP2 Hessian
   Martin Krupicka        : Initial AUTO-CI
   Lucas Lang             : DCDCAS
   Marvin Lechner         : AUTO-CI (C++ implementation), FIC-MRCC
   Dagmar Lenk            : GEPOL surface, SMD
   Dimitrios Liakos       : Extrapolation schemes; Compound Job, initial MDCI parallelization
   Dimitrios Manganas     : Further ROCIS development; embedding schemes
   Dimitrios Pantazis     : SARC Basis sets
   Anastasios Papadopoulos: AUTO-CI, single reference methods and gradients
   Taras Petrenko         : DFT Hessian,TD-DFT gradient, ASA, ECA, R-Raman, ABS, FL, XAS/XES, NRVS
   Peter Pinski           : DLPNO-MP2, DLPNO-MP2 Gradient
   Christoph Reimann      : Effective Core Potentials
   Marius Retegan         : Local ZFS, SOC
   Christoph Riplinger    : Optimizer, TS searches, QM/MM, DLPNO-CCSD(T), (RO)-DLPNO pert. Triples
   Tobias Risthaus        : Range-separated hybrids, TD-DFT gradient, RPA, STAB
   Michael Roemelt        : Original ROCIS implementation
   Masaaki Saitow         : Open-shell DLPNO-CCSD energy and density
   Barbara Sandhoefer     : DKH picture change effects
   Avijit Sen             : IP-ROCIS
   Kantharuban Sivalingam : CASSCF convergence, NEVPT2, FIC-MRCI
   Bernardo de Souza      : ESD, SOC TD-DFT
   Georgi Stoychev        : AutoAux, RI-MP2 NMR, DLPNO-MP2 response
   Willem Van den Heuvel  : Paramagnetic NMR
   Boris Wezisla          : Elementary symmetry handling
   Frank Wennmohs         : Technical directorship


 We gratefully acknowledge several colleagues who have allowed us to
 interface, adapt or use parts of their codes:
   Stefan Grimme, W. Hujo, H. Kruse, P. Pracht,  : VdW corrections, initial TS optimization,
                  C. Bannwarth, S. Ehlert          DFT functionals, gCP, sTDA/sTD-DF
   Ed Valeev, F. Pavosevic, A. Kumar             : LibInt (2-el integral package), F12 methods
   Garnet Chan, S. Sharma, J. Yang, R. Olivares  : DMRG
   Ulf Ekstrom                                   : XCFun DFT Library
   Mihaly Kallay                                 : mrcc  (arbitrary order and MRCC methods)
   Jiri Pittner, Ondrej Demel                    : Mk-CCSD
   Frank Weinhold                                : gennbo (NPA and NBO analysis)
   Christopher J. Cramer and Donald G. Truhlar   : smd solvation model
   Lars Goerigk                                  : TD-DFT with DH, B97 family of functionals
   V. Asgeirsson, H. Jonsson                     : NEB implementation
   FAccTs GmbH                                   : IRC, NEB, NEB-TS, DLPNO-Multilevel, CI-OPT
                                                   MM, QMMM, 2- and 3-layer-ONIOM, Crystal-QMMM,
                                                   LR-CPCM, SF, NACMEs, symmetry and pop. for TD-DFT,
                                                   nearIR, NL-DFT gradient (VV10), updates on ESD,
                                                   ML-optimized integration grids
   S Lehtola, MJT Oliveira, MAL Marques          : LibXC Library
   Liviu Ungur et al                             : ANISO software


 Your calculation uses the libint2 library for the computation of 2-el integrals
 For citations please refer to: http://libint.valeyev.net

 Your ORCA version has been built with support for libXC version: 5.1.0
 For citations please refer to: https://tddft.org/programs/libxc/

 This ORCA versions uses:
   CBLAS   interface :  Fast vector & matrix operations
   LAPACKE interface :  Fast linear algebra routines
   SCALAPACK package :  Parallel linear algebra routines
   Shared memory     :  Shared parallel matrices
   BLAS/LAPACK       :  OpenBLAS 0.3.15  USE64BITINT DYNAMIC_ARCH NO_AFFINITY SkylakeX SINGLE_THREADED
        Core in use  :  SkylakeX
   Copyright (c) 2011-2014, The OpenBLAS Project




***************************************
The coordinates will be read from file: model.xyz
***************************************


================================================================================

----- Orbital basis set information -----
Your calculation utilizes the basis: cc-pVDZ 
       H, B-Ne : Obtained from the ccRepo (grant-hill.group.shef.ac.uk/ccrepo) Feb. 2017
                 T. H. Dunning, Jr., J. Chem. Phys. 90, 1007 (1989)
            He : Obtained from the ccRepo (grant-hill.group.shef.ac.uk/ccrepo) Feb. 2017
                 D. E. Woon, T. H. Dunning, Jr., J. Chem. Phys. 100, 2975 (1994)
  Li-Be, Na-Mg : Obtained from the ccRepo (grant-hill.group.shef.ac.uk/ccrepo) Feb. 2017
                 B. P. Prascher, D. E. Woon, K. A. Peterson, T. H. Dunning, Jr., A. K. Wilson, Theor. Chem. Acc. 128, 69 (2011)
         Al-Ar : Obtained from the ccRepo (grant-hill.group.shef.ac.uk/ccrepo) Feb. 2017
                 D. E. Woon, T. H. Dunning, Jr., J. Chem. Phys. 98, 1358 (1993)
            Ca : Obtained from the Peterson Research Group Website (tyr0.chem.wsu.edu/~kipeters) Feb. 2017
                 J. Koput, K. A. Peterson, J. Phys. Chem. 106, 9595 (2002)
         Sc-Zn : Obtained from the ccRepo (grant-hill.group.shef.ac.uk/ccrepo) Feb. 2017
                 N. B. Balabanov, K. A. Peterson, J. Chem. Phys. 123, 064107 (2005)
                 N. B. Balabanov, K. A. Peterson, J. Chem. Phys. 125, 074110 (2006)
         Ga-Kr : Obtained from the ccRepo (grant-hill.group.shef.ac.uk/ccrepo) Feb. 2017
                 A. K. Wilson, D. E. Woon, K. A. Peterson, T. H. Dunning, Jr., J. Chem. Phys. 110, 7667 (1999)

----- AuxJ basis set information -----
Your calculation utilizes the auxiliary basis: def2/J
   F. Weigend, Phys. Chem. Chem. Phys. 8, 1057 (2006).

================================================================================
                                        WARNINGS
                       Please study these warnings very carefully!
================================================================================

WARNING: Old DensityContainer found on disk!
         Will remove this file - 
         If you want to keep old densities, please start your calculation with a different basename. 


WARNING: your system is open-shell and RHF/RKS was chosen
  ===> : WILL SWITCH to UHF/UKS


WARNING: Geometry Optimization
  ===> : Switching off AutoStart
         For restart on a previous wavefunction, please use MOREAD

INFO   : the flag for use of the SHARK integral package has been found!

================================================================================
                                       INPUT FILE
================================================================================
NAME = opt_cc-pVDZ.inp
|  1> ! B3LYP cc-pVDZ OPT
|  2> %pal nprocs 16 end
|  3> *XYZFile 0 2 model.xyz
|  4> 
|  5>                          ****END OF INPUT****
================================================================================

                       *****************************
                       * Geometry Optimization Run *
                       *****************************

Geometry optimization settings:
Update method            Update   .... BFGS
Choice of coordinates    CoordSys .... Z-matrix Internals
Initial Hessian          InHess   .... Almoef's Model

Convergence Tolerances:
Energy Change            TolE     ....  5.0000e-06 Eh
Max. Gradient            TolMAXG  ....  3.0000e-04 Eh/bohr
RMS Gradient             TolRMSG  ....  1.0000e-04 Eh/bohr
Max. Displacement        TolMAXD  ....  4.0000e-03 bohr
RMS Displacement         TolRMSD  ....  2.0000e-03 bohr
Strict Convergence                ....  False
------------------------------------------------------------------------------
                        ORCA OPTIMIZATION COORDINATE SETUP
------------------------------------------------------------------------------

The optimization will be done in new redundant internal coordinates
Making redundant internal coordinates   ...  (new redundants) done
Evaluating the initial hessian          ...  (Almloef) done
Evaluating the coordinates              ...  done
Calculating the B-matrix                .... done
Calculating the G-matrix                .... done
Diagonalizing the G-matrix              .... done
Small eigenvalue found = 2.332e-03
Small eigenvalue found = 4.686e-03
Small eigenvalue found = 9.087e-03
Small eigenvalue found = 1.383e-02
Small eigenvalue found = 1.840e-02
Small eigenvalue found = 2.972e-02
The first mode is                       ....   84
The number of degrees of freedom        ....  111

    -----------------------------------------------------------------
                    Redundant Internal Coordinates


    -----------------------------------------------------------------
         Definition                    Initial Value    Approx d2E/dq
    -----------------------------------------------------------------
      1. B(C   1,C   0)                  1.2172         1.178777   
      2. B(C   3,C   1)                  1.4278         0.543860   
      3. B(C   4,C   3)                  1.4428         0.514608   
      4. B(C   5,C   4)                  1.4236         0.552252   
      5. B(C   6,C   5)                  1.3957         0.611807   
      6. B(C   6,C   2)                  1.4339         0.531646   
      7. B(C   7,C   6)                  1.4292         0.541046   
      8. B(C   8,C   7)                  1.3974         0.608128   
      9. B(C   8,C   3)                  1.4052         0.590758   
     10. B(H   9,C   5)                  1.0902         0.359886   
     11. B(H  10,C   8)                  1.0898         0.360339   
     12. B(C  11,C   4)                  1.4128         0.574695   
     13. B(H  12,C  11)                  1.0932         0.355863   
     14. B(C  13,C  11)                  1.4994         0.418088   
     15. B(H  14,C  13)                  1.1098         0.334868   
     16. B(H  15,C  13)                  1.1098         0.334888   
     17. B(C  16,C  13)                  1.5342         0.367869   
     18. B(H  17,C  16)                  1.1053         0.340419   
     19. B(H  18,C  16)                  1.1053         0.340403   
     20. B(C  19,C  16)                  1.5297         0.373929   
     21. B(H  20,C  19)                  1.1038         0.342290   
     22. B(H  21,C  19)                  1.1038         0.342279   
     23. B(C  22,C   7)                  1.5146         0.395328   
     24. B(H  23,C  22)                  1.1061         0.339373   
     25. B(H  24,C  22)                  1.1061         0.339420   
     26. B(C  25,C  22)                  1.5309         0.372372   
     27. B(H  26,C  25)                  1.1057         0.339974   
     28. B(H  27,C  25)                  1.1057         0.339978   
     29. B(C  28,C  25)                  1.5334         0.368891   
     30. B(H  29,C  28)                  1.1059         0.339722   
     31. B(H  30,C  28)                  1.1059         0.339719   
     32. B(C  31,C  28)                  1.5306         0.372729   
     33. B(H  32,C  31)                  1.1038         0.342342   
     34. B(H  33,C  31)                  1.1038         0.342357   
     35. B(C  34,C   2)                  1.2158         1.184766   
     36. B(H  35,C   0)                  1.0724         0.384188   
     37. B(H  36,C  34)                  1.0725         0.384057   
     38. B(H  37,C  19)                  1.1019         0.344748   
     39. B(H  38,C  31)                  1.1021         0.344424   
     40. L(C   1,C   0,H  35, 2)       180.2974         0.398725   
     41. L(C   1,C   0,H  35, 1)       180.3380         0.398725   
     42. L(C   0,C   1,C   3,C   8, 2) 179.7030         0.476418   
     43. L(C   0,C   1,C   3,C   8, 1) 179.0531         0.476418   
     44. L(C   6,C   2,C  34,C   5, 2) 179.8592         0.474874   
     45. L(C   6,C   2,C  34,C   5, 1) 179.8540         0.474874   
     46. A(C   1,C   3,C   4)          121.0412         0.410150   
     47. A(C   1,C   3,C   8)          118.8324         0.420340   
     48. A(C   4,C   3,C   8)          120.1264         0.416219   
     49. A(C   3,C   4,C   5)          116.4094         0.411265   
     50. A(C   5,C   4,C  11)          121.7889         0.419422   
     51. A(C   3,C   4,C  11)          121.8017         0.414184   
     52. A(C   4,C   5,H   9)          119.2529         0.346052   
     53. A(C   4,C   5,C   6)          122.6164         0.424135   
     54. A(C   6,C   5,H   9)          118.1307         0.352080   
     55. A(C   2,C   6,C   7)          120.3842         0.412147   
     56. A(C   5,C   6,C   7)          120.5345         0.422584   
     57. A(C   2,C   6,C   5)          119.0813         0.421263   
     58. A(C   6,C   7,C   8)          117.4157         0.422129   
     59. A(C   8,C   7,C  22)          122.8769         0.399290   
     60. A(C   6,C   7,C  22)          119.7073         0.391189   
     61. A(C   3,C   8,H  10)          117.4370         0.350078   
     62. A(C   7,C   8,H  10)          119.6655         0.351796   
     63. A(C   3,C   8,C   7)          122.8975         0.428823   
     64. A(H  12,C  11,C  13)          117.8889         0.329746   
     65. A(C   4,C  11,C  13)          124.8982         0.399250   
     66. A(C   4,C  11,H  12)          117.2128         0.347721   
     67. A(H  15,C  13,C  16)          109.1762         0.319679   
     68. A(H  14,C  13,C  16)          109.1687         0.319676   
     69. A(C  11,C  13,C  16)          113.5070         0.369453   
     70. A(H  14,C  13,H  15)          104.6292         0.284313   
     71. A(C  11,C  13,H  15)          109.9956         0.326458   
     72. A(C  11,C  13,H  14)          109.9822         0.326455   
     73. A(C  13,C  16,C  19)          113.1058         0.362456   
     74. A(H  17,C  16,H  18)          106.0232         0.285767   
     75. A(C  13,C  16,H  18)          108.9951         0.320534   
     76. A(C  13,C  16,H  17)          109.0016         0.320536   
     77. A(H  18,C  16,C  19)          109.7332         0.321392   
     78. A(H  17,C  16,C  19)          109.7324         0.321394   
     79. A(H  20,C  19,H  21)          107.3568         0.286256   
     80. A(C  16,C  19,H  21)          111.3059         0.321681   
     81. A(C  16,C  19,H  20)          111.3084         0.321683   
     82. A(H  21,C  19,H  37)          107.6099         0.286576   
     83. A(H  20,C  19,H  37)          107.6113         0.286578   
     84. A(C  16,C  19,H  37)          111.4432         0.322060   
     85. A(H  24,C  22,C  25)          109.2298         0.321020   
     86. A(H  23,C  22,C  25)          109.2339         0.321013   
     87. A(C   7,C  22,C  25)          116.9090         0.366686   
     88. A(H  23,C  22,H  24)          104.3156         0.285501   
     89. A(C   7,C  22,H  24)          108.2050         0.324183   
     90. A(C   7,C  22,H  23)          108.2087         0.324176   
     91. A(H  27,C  25,C  28)          109.0282         0.320614   
     92. A(H  26,C  25,C  28)          109.0467         0.320613   
     93. A(C  22,C  25,C  28)          112.6146         0.362370   
     94. A(H  26,C  25,H  27)          106.2094         0.285653   
     95. A(C  22,C  25,H  27)          109.8734         0.321107   
     96. A(C  22,C  25,H  26)          109.8597         0.321106   
     97. A(H  30,C  28,C  31)          109.5733         0.321117   
     98. A(H  29,C  28,C  31)          109.5746         0.321117   
     99. A(C  25,C  28,C  31)          113.1578         0.362429   
    100. A(H  29,C  28,H  30)          105.8561         0.285586   
    101. A(C  25,C  28,H  30)          109.2097         0.320574   
    102. A(C  25,C  28,H  29)          109.2082         0.320574   
    103. A(H  32,C  31,H  33)          107.3559         0.286273   
    104. A(C  28,C  31,H  33)          111.2939         0.321524   
    105. A(C  28,C  31,H  32)          111.2960         0.321521   
    106. A(H  33,C  31,H  38)          107.5900         0.286544   
    107. A(H  32,C  31,H  38)          107.5876         0.286542   
    108. A(C  28,C  31,H  38)          111.5091         0.321841   
    109. L(C   2,C  34,H  36, 2)       180.3208         0.399056   
    110. L(C   2,C  34,H  36, 1)       180.1285         0.399056   
    111. D(C   5,C   4,C   3,C   1)   -179.9575         0.018053   
    112. D(C   5,C   4,C   3,C   8)      0.0255         0.018053   
    113. D(C  11,C   4,C   3,C   8)   -179.9905         0.018053   
    114. D(C  11,C   4,C   3,C   1)      0.0265         0.018053   
    115. D(C   6,C   5,C   4,C  11)    179.9973         0.020870   
    116. D(H   9,C   5,C   4,C   3)    179.9737         0.020870   
    117. D(H   9,C   5,C   4,C  11)     -0.0103         0.020870   
    118. D(C   6,C   5,C   4,C   3)     -0.0186         0.020870   
    119. D(C   7,C   6,C   5,C   4)      0.0093         0.025860   
    120. D(C   2,C   6,C   5,C   4)    179.9950         0.025860   
    121. D(C   2,C   6,C   5,H   9)      0.0025         0.025860   
    122. D(C   7,C   6,C   5,H   9)   -179.9831         0.025860   
    123. D(C  22,C   7,C   6,C   2)     -0.0069         0.020004   
    124. D(C   8,C   7,C   6,C   2)   -179.9915         0.020004   
    125. D(C  22,C   7,C   6,C   5)    179.9786         0.020004   
    126. D(C   8,C   7,C   6,C   5)     -0.0060         0.020004   
    127. D(H  10,C   8,C   7,C  22)      0.0199         0.025532   
    128. D(C   3,C   8,C   7,C  22)   -179.9703         0.025532   
    129. D(H  10,C   8,C   3,C   4)    179.9853         0.024020   
    130. D(C   7,C   8,C   3,C   4)     -0.0243         0.024020   
    131. D(C   3,C   8,C   7,C   6)      0.0138         0.025532   
    132. D(H  10,C   8,C   7,C   6)   -179.9960         0.025532   
    133. D(C   7,C   8,C   3,C   1)    179.9591         0.024020   
    134. D(H  10,C   8,C   3,C   1)     -0.0313         0.024020   
    135. D(C  13,C  11,C   4,C   5)     -0.0135         0.022672   
    136. D(C  13,C  11,C   4,C   3)   -179.9967         0.022672   
    137. D(H  12,C  11,C   4,C   5)    179.9854         0.022672   
    138. D(H  12,C  11,C   4,C   3)      0.0023         0.022672   
    139. D(H  15,C  13,C  11,C   4)     57.2519         0.012929   
    140. D(H  14,C  13,C  11,H  12)    122.5259         0.012929   
    141. D(H  14,C  13,C  11,C   4)    -57.4751         0.012929   
    142. D(C  16,C  13,C  11,H  12)     -0.1007         0.012929   
    143. D(C  16,C  13,C  11,C   4)    179.8983         0.012929   
    144. D(H  15,C  13,C  11,H  12)   -122.7471         0.012929   
    145. D(C  19,C  16,C  13,C  11)   -179.9711         0.010826   
    146. D(C  19,C  16,C  13,H  14)     56.9542         0.010826   
    147. D(H  18,C  16,C  13,H  15)   -179.2240         0.010826   
    148. D(H  18,C  16,C  13,H  14)    -65.3963         0.010826   
    149. D(H  18,C  16,C  13,C  11)     57.6784         0.010826   
    150. D(H  17,C  16,C  13,H  15)     65.4805         0.010826   
    151. D(H  17,C  16,C  13,H  14)    179.3083         0.010826   
    152. D(C  19,C  16,C  13,H  15)    -56.8736         0.010826   
    153. D(H  17,C  16,C  13,C  11)    -57.6171         0.010826   
    154. D(H  37,C  19,C  16,H  18)    -58.0592         0.011164   
    155. D(H  37,C  19,C  16,H  17)     58.0578         0.011164   
    156. D(H  37,C  19,C  16,C  13)   -179.9969         0.011164   
    157. D(H  21,C  19,C  16,H  18)     62.0769         0.011164   
    158. D(H  21,C  19,C  16,H  17)    178.1939         0.011164   
    159. D(H  21,C  19,C  16,C  13)    -59.8607         0.011164   
    160. D(H  20,C  19,C  16,H  18)   -178.1990         0.011164   
    161. D(H  20,C  19,C  16,H  17)    -62.0820         0.011164   
    162. D(H  20,C  19,C  16,C  13)     59.8634         0.011164   
    163. D(C  25,C  22,C   7,C   8)     -0.1530         0.011611   
    164. D(C  25,C  22,C   7,C   6)    179.8632         0.011611   
    165. D(H  24,C  22,C   7,C   8)   -123.9137         0.011611   
    166. D(H  24,C  22,C   7,C   6)     56.1025         0.011611   
    167. D(H  23,C  22,C   7,C   8)    123.6164         0.011611   
    168. D(H  23,C  22,C   7,C   6)    -56.3674         0.011611   
    169. D(H  27,C  25,C  22,H  23)    -64.9482         0.011076   
    170. D(H  27,C  25,C  22,C   7)     58.2963         0.011076   
    171. D(H  26,C  25,C  22,H  24)     65.0349         0.011076   
    172. D(H  26,C  25,C  22,H  23)    178.5543         0.011076   
    173. D(H  26,C  25,C  22,C   7)    -58.2011         0.011076   
    174. D(C  28,C  25,C  22,H  24)    -56.7233         0.011076   
    175. D(C  28,C  25,C  22,H  23)     56.7961         0.011076   
    176. D(C  28,C  25,C  22,C   7)   -179.9594         0.011076   
    177. D(H  27,C  25,C  22,H  24)   -178.4676         0.011076   
    178. D(C  31,C  28,C  25,H  27)    -57.8220         0.010882   
    179. D(C  31,C  28,C  25,C  22)    179.9557         0.010882   
    180. D(H  30,C  28,C  25,H  27)    179.8417         0.010882   
    181. D(H  30,C  28,C  25,H  26)    -64.5986         0.010882   
    182. D(H  30,C  28,C  25,C  22)     57.6194         0.010882   
    183. D(H  29,C  28,C  25,H  27)     64.5150         0.010882   
    184. D(C  31,C  28,C  25,H  26)     57.7377         0.010882   
    185. D(H  29,C  28,C  25,H  26)   -179.9253         0.010882   
    186. D(H  29,C  28,C  25,C  22)    -57.7073         0.010882   
    187. D(H  38,C  31,C  28,H  30)    -57.8836         0.011096   
    188. D(H  38,C  31,C  28,H  29)     57.8506         0.011096   
    189. D(H  38,C  31,C  28,C  25)    179.9830         0.011096   
    190. D(H  33,C  31,C  28,H  30)     62.2638         0.011096   
    191. D(H  33,C  31,C  28,H  29)    177.9980         0.011096   
    192. D(H  33,C  31,C  28,C  25)    -59.8696         0.011096   
    193. D(H  32,C  31,C  28,H  30)   -178.0296         0.011096   
    194. D(H  32,C  31,C  28,H  29)    -62.2953         0.011096   
    195. D(H  32,C  31,C  28,C  25)     59.8371         0.011096   
    -----------------------------------------------------------------

Number of atoms                         .... 39
Number of degrees of freedom            .... 195

         *************************************************************
         *                GEOMETRY OPTIMIZATION CYCLE   1            *
         *************************************************************
---------------------------------
CARTESIAN COORDINATES (ANGSTROEM)
---------------------------------
  C      3.991788   -0.049240    0.058108
  C      2.775740    0.000818    0.040924
  C     -2.904926    0.001969   -0.021065
  C      1.348501    0.035970    0.024651
  C      0.635243    1.290110    0.014122
  C     -0.786025    1.210124   -0.000914
  C     -1.471080   -0.005896   -0.005830
  C     -0.755051   -1.242724    0.004473
  C      0.640732   -1.178015    0.019328
  H     -1.371296    2.129824   -0.008865
  H      1.223342   -2.098995    0.027465
  C      1.310813    2.530858    0.018832
  H      2.403663    2.505003    0.030818
  C      0.641084    3.872285    0.008661
  H     -0.020408    3.959192   -0.878174
  H     -0.042671    3.961660    0.878176
  C      1.626345    5.048246    0.019383
  H      2.275422    4.965813    0.910219
  H      2.296697    4.963937   -0.855394
  C      0.933467    6.412041    0.009601
  H      0.280768    6.536675    0.890987
  H      0.302265    6.534793   -0.887575
  C     -1.517430   -2.551443   -0.000599
  H     -2.203439   -2.555198    0.867109
  H     -2.188523   -2.557024   -0.879837
  C     -0.686654   -3.837261    0.007762
  H     -0.015119   -3.856287   -0.870392
  H     -0.031197   -3.855470    0.897992
  C     -1.555555   -5.100742    0.000739
  H     -2.229365   -5.083796    0.877444
  H     -2.214538   -5.084219   -0.887176
  C     -0.737137   -6.394159    0.007906
  H     -0.093627   -6.456407    0.902512
  H     -0.079125   -6.457034   -0.876030
  C     -4.120621    0.011732   -0.035488
  H      5.062776   -0.099657    0.078803
  H     -5.192882    0.026348   -0.050615
  H      1.665288    7.235733    0.017560
  H     -1.387506   -7.283908    0.002941

----------------------------
CARTESIAN COORDINATES (A.U.)
----------------------------
  NO LB      ZA    FRAG     MASS         X           Y           Z
   0 C     6.0000    0    12.011    7.543387   -0.093050    0.109809
   1 C     6.0000    0    12.011    5.245389    0.001546    0.077335
   2 C     6.0000    0    12.011   -5.489514    0.003722   -0.039807
   3 C     6.0000    0    12.011    2.548298    0.067973    0.046584
   4 C     6.0000    0    12.011    1.200436    2.437954    0.026687
   5 C     6.0000    0    12.011   -1.485371    2.286804   -0.001728
   6 C     6.0000    0    12.011   -2.779939   -0.011142   -0.011018
   7 C     6.0000    0    12.011   -1.426839   -2.348407    0.008453
   8 C     6.0000    0    12.011    1.210808   -2.226125    0.036525
   9 H     1.0000    0     1.008   -2.591374    4.024784   -0.016753
  10 H     1.0000    0     1.008    2.311781   -3.966526    0.051902
  11 C     6.0000    0    12.011    2.477077    4.782628    0.035587
  12 H     1.0000    0     1.008    4.542265    4.733770    0.058237
  13 C     6.0000    0    12.011    1.211473    7.317559    0.016367
  14 H     1.0000    0     1.008   -0.038565    7.481789   -1.659508
  15 H     1.0000    0     1.008   -0.080636    7.486452    1.659512
  16 C     6.0000    0    12.011    3.073346    9.539803    0.036628
  17 H     1.0000    0     1.008    4.299925    9.384027    1.720066
  18 H     1.0000    0     1.008    4.340129    9.380481   -1.616460
  19 C     6.0000    0    12.011    1.763996   12.117001    0.018144
  20 H     1.0000    0     1.008    0.530575   12.352525    1.683722
  21 H     1.0000    0     1.008    0.571197   12.348970   -1.677274
  22 C     6.0000    0    12.011   -2.867527   -4.821529   -0.001132
  23 H     1.0000    0     1.008   -4.163895   -4.828624    1.638599
  24 H     1.0000    0     1.008   -4.135709   -4.832075   -1.662650
  25 C     6.0000    0    12.011   -1.297588   -7.251373    0.014668
  26 H     1.0000    0     1.008   -0.028571   -7.287325   -1.644802
  27 H     1.0000    0     1.008   -0.058953   -7.285783    1.696960
  28 C     6.0000    0    12.011   -2.939572   -9.639005    0.001397
  29 H     1.0000    0     1.008   -4.212890   -9.606983    1.658129
  30 H     1.0000    0     1.008   -4.184870   -9.607782   -1.676520
  31 C     6.0000    0    12.011   -1.392986  -12.083209    0.014940
  32 H     1.0000    0     1.008   -0.176929  -12.200840    1.705500
  33 H     1.0000    0     1.008   -0.149525  -12.202026   -1.655456
  34 C     6.0000    0    12.011   -7.786844    0.022171   -0.067063
  35 H     1.0000    0     1.008    9.567261   -0.188325    0.148916
  36 H     1.0000    0     1.008   -9.813124    0.049791   -0.095648
  37 H     1.0000    0     1.008    3.146937   13.673554    0.033183
  38 H     1.0000    0     1.008   -2.622006  -13.764592    0.005558

--------------------------------
INTERNAL COORDINATES (ANGSTROEM)
--------------------------------
 C      0   0   0     0.000000000000     0.00000000     0.00000000
 C      1   0   0     1.217198970430     0.00000000     0.00000000
 C      2   1   0     5.681004601816   177.64740133     0.00000000
 C      2   1   3     1.427764709600   179.04098789     4.88395755
 C      4   2   1     1.442814618264   121.04115943   170.73551055
 C      5   4   2     1.423596374880   116.40940875   180.04250256
 C      6   5   4     1.395719002335   122.61642772     0.00000000
 C      7   6   5     1.429176852768   120.53451430     0.00000000
 C      8   7   6     1.397360852263   117.41574141     0.00000000
 H      6   5   4     1.090161686004   119.25290446   179.97372195
 H      9   8   7     1.089819105179   119.66547878   180.00401020
 C      5   4   2     1.412753188159   121.80168353     0.02653600
 H     12   5   4     1.093222111356   117.21282872     0.00000000
 C     12   5   4     1.499356079612   124.89824281   180.00328768
 H     14  12   5     1.109774899194   109.98224078   302.52491495
 H     14  12   5     1.109758438535   109.99562980    57.25191299
 C     14  12   5     1.534189837895   113.50703085   179.89831305
 H     17  14  12     1.105299665650   109.00159080   302.38291560
 H     17  14  12     1.105312042978   108.99511489    57.67838119
 C     17  14  12     1.529742060448   113.10575114   180.02885686
 H     20  17  14     1.103807064559   111.30839233    59.86338153
 H     20  17  14     1.103815962708   111.30588770   300.13928564
 C      8   7   6     1.514593813755   119.70734801   179.97863328
 H     23   8   7     1.106137308186   108.20869318   303.63256908
 H     23   8   7     1.106099383299   108.20498756    56.10248812
 C     23   8   7     1.530877907707   116.90901800   179.86322827
 H     26  23   8     1.105655588828   109.85973483   301.79885745
 H     26  23   8     1.105651982388   109.87342160    58.29631173
 C     26  23   8     1.533434330866   112.61459569   180.04061859
 H     29  26  23     1.105857029927   109.20818453   302.29266698
 H     29  26  23     1.105859668289   109.20968051    57.61940548
 C     29  26  23     1.530616666740   113.15782013   179.95573414
 H     32  29  26     1.103765994710   111.29604661    59.83705599
 H     32  29  26     1.103754258905   111.29386646   300.13043542
 C      3   2   1     1.215819505462   179.54822432   182.44144594
 H      1   2   4     1.072374000531   179.55017476   328.05163120
 H     35   3   7     1.072467397770   179.65444167   355.85773913
 H     20  17  14     1.101859419311   111.44324752   180.00312326
 H     32  29  26     1.102115761963   111.50913426   179.98299719

---------------------------
INTERNAL COORDINATES (A.U.)
---------------------------
 C      0   0   0     0.000000000000     0.00000000     0.00000000
 C      1   0   0     2.300172704604     0.00000000     0.00000000
 C      2   1   0    10.735542862978   177.64740133     0.00000000
 C      2   1   3     2.698084284822   179.04098789     4.88395755
 C      4   2   1     2.726524490537   121.04115943   170.73551055
 C      5   4   2     2.690207273767   116.40940875   180.04250256
 C      6   5   4     2.637526674323   122.61642772     0.00000000
 C      7   6   5     2.700752848671   120.53451430     0.00000000
 C      8   7   6     2.640629321039   117.41574141     0.00000000
 H      6   5   4     2.060107028241   119.25290446   179.97372195
 H      9   8   7     2.059459644304   119.66547878   180.00401020
 C      5   4   2     2.669716620445   121.80168353     0.02653600
 H     12   5   4     2.065890394010   117.21282872     0.00000000
 C     12   5   4     2.833372367697   124.89824281   180.00328768
 H     14  12   5     2.097170629776   109.98224078   302.52491495
 H     14  12   5     2.097139523638   109.99562980    57.25191299
 C     14  12   5     2.899198631066   113.50703085   179.89831305
 H     17  14  12     2.088713663994   109.00159080   302.38291560
 H     17  14  12     2.088737053754   108.99511489    57.67838119
 C     17  14  12     2.890793549788   113.10575114   180.02885686
 H     20  17  14     2.085893056704   111.30839233    59.86338153
 H     20  17  14     2.085909871769   111.30588770   300.13928564
 C      8   7   6     2.862167512128   119.70734801   179.97863328
 H     23   8   7     2.090296578984   108.20869318   303.63256908
 H     23   8   7     2.090224911335   108.20498756    56.10248812
 C     23   8   7     2.892939990037   116.90901800   179.86322827
 H     26  23   8     2.089386261324   109.85973483   301.79885745
 H     26  23   8     2.089379446140   109.87342160    58.29631173
 C     26  23   8     2.897770929690   112.61459569   180.04061859
 H     29  26  23     2.089766929834   109.20818453   302.29266698
 H     29  26  23     2.089771915615   109.20968051    57.61940548
 C     29  26  23     2.892446316155   113.15782013   179.95573414
 H     32  29  26     2.085815445937   111.29604661    59.83705599
 H     32  29  26     2.085793268480   111.29386646   300.13043542
 C      3   2   1     2.297565893602   179.54822432   182.44144594
 H      1   2   4     2.026493174142   179.55017476   328.05163120
 H     35   3   7     2.026669669345   179.65444167   355.85773913
 H     20  17  14     2.082212540579   111.44324752   180.00312326
 H     32  29  26     2.082696957988   111.50913426   179.98299719

---------------------
BASIS SET INFORMATION
---------------------
There are 2 groups of distinct atoms

 Group   1 Type C   : 17s4p1d contracted to 3s2p1d pattern {881/31/1}
 Group   2 Type H   : 4s1p contracted to 2s1p pattern {31/1}

Atom   0C    basis set group =>   1
Atom   1C    basis set group =>   1
Atom   2C    basis set group =>   1
Atom   3C    basis set group =>   1
Atom   4C    basis set group =>   1
Atom   5C    basis set group =>   1
Atom   6C    basis set group =>   1
Atom   7C    basis set group =>   1
Atom   8C    basis set group =>   1
Atom   9H    basis set group =>   2
Atom  10H    basis set group =>   2
Atom  11C    basis set group =>   1
Atom  12H    basis set group =>   2
Atom  13C    basis set group =>   1
Atom  14H    basis set group =>   2
Atom  15H    basis set group =>   2
Atom  16C    basis set group =>   1
Atom  17H    basis set group =>   2
Atom  18H    basis set group =>   2
Atom  19C    basis set group =>   1
Atom  20H    basis set group =>   2
Atom  21H    basis set group =>   2
Atom  22C    basis set group =>   1
Atom  23H    basis set group =>   2
Atom  24H    basis set group =>   2
Atom  25C    basis set group =>   1
Atom  26H    basis set group =>   2
Atom  27H    basis set group =>   2
Atom  28C    basis set group =>   1
Atom  29H    basis set group =>   2
Atom  30H    basis set group =>   2
Atom  31C    basis set group =>   1
Atom  32H    basis set group =>   2
Atom  33H    basis set group =>   2
Atom  34C    basis set group =>   1
Atom  35H    basis set group =>   2
Atom  36H    basis set group =>   2
Atom  37H    basis set group =>   2
Atom  38H    basis set group =>   2
---------------------------------
AUXILIARY/J BASIS SET INFORMATION
---------------------------------
There are 2 groups of distinct atoms

 Group   1 Type C   : 12s5p4d2f1g contracted to 6s4p3d1f1g pattern {711111/2111/211/2/1}
 Group   2 Type H   : 5s2p1d contracted to 3s1p1d pattern {311/2/1}

Atom   0C    basis set group =>   1
Atom   1C    basis set group =>   1
Atom   2C    basis set group =>   1
Atom   3C    basis set group =>   1
Atom   4C    basis set group =>   1
Atom   5C    basis set group =>   1
Atom   6C    basis set group =>   1
Atom   7C    basis set group =>   1
Atom   8C    basis set group =>   1
Atom   9H    basis set group =>   2
Atom  10H    basis set group =>   2
Atom  11C    basis set group =>   1
Atom  12H    basis set group =>   2
Atom  13C    basis set group =>   1
Atom  14H    basis set group =>   2
Atom  15H    basis set group =>   2
Atom  16C    basis set group =>   1
Atom  17H    basis set group =>   2
Atom  18H    basis set group =>   2
Atom  19C    basis set group =>   1
Atom  20H    basis set group =>   2
Atom  21H    basis set group =>   2
Atom  22C    basis set group =>   1
Atom  23H    basis set group =>   2
Atom  24H    basis set group =>   2
Atom  25C    basis set group =>   1
Atom  26H    basis set group =>   2
Atom  27H    basis set group =>   2
Atom  28C    basis set group =>   1
Atom  29H    basis set group =>   2
Atom  30H    basis set group =>   2
Atom  31C    basis set group =>   1
Atom  32H    basis set group =>   2
Atom  33H    basis set group =>   2
Atom  34C    basis set group =>   1
Atom  35H    basis set group =>   2
Atom  36H    basis set group =>   2
Atom  37H    basis set group =>   2
Atom  38H    basis set group =>   2


           ************************************************************
           *        Program running with 16 parallel MPI-processes    *
           *              working on a common directory               *
           ************************************************************
------------------------------------------------------------------------------
                           ORCA GTO INTEGRAL CALCULATION
                           -- RI-GTO INTEGRALS CHOSEN --
------------------------------------------------------------------------------
------------------------------------------------------------------------------
                   ___                                                        
                  /   \      - P O W E R E D   B Y -                         
                 /     \                                                     
                 |  |  |   _    _      __       _____    __    __             
                 |  |  |  | |  | |    /  \     |  _  \  |  |  /  |          
                  \  \/   | |  | |   /    \    | | | |  |  | /  /          
                 / \  \   | |__| |  /  /\  \   | |_| |  |  |/  /          
                |  |  |   |  __  | /  /__\  \  |    /   |      \           
                |  |  |   | |  | | |   __   |  |    \   |  |\   \          
                \     /   | |  | | |  |  |  |  | |\  \  |  | \   \       
                 \___/    |_|  |_| |__|  |__|  |_| \__\ |__|  \__/        
                                                                              
                      - O R C A' S   B I G   F R I E N D -                    
                                      &                                       
                       - I N T E G R A L  F E E D E R -                       
                                                                              
 v1 FN, 2020, v2 2021                                                         
------------------------------------------------------------------------------


Reading SHARK input file opt_cc-pVDZ.SHARKINP.tmp ... ok
----------------------
SHARK INTEGRAL PACKAGE
----------------------

Number of atoms                             ...     39
Number of basis functions                   ...    465
Number of shells                            ...    279
Maximum angular momentum                    ...      2
Integral batch strategy                     ... SHARK/LIBINT Hybrid
RI-J (if used) integral strategy            ... SPLIT-RIJ (Revised 2003 algorithm where possible)
Printlevel                                  ...      1
Contraction scheme used                     ... PARTIAL GENERAL contraction
Coulomb Range Separation                    ... NOT USED
Exchange Range Separation                   ... NOT USED
Finite Nucleus Model                        ... NOT USED
Auxiliary Coulomb fitting basis             ... AVAILABLE
   # of basis functions in Aux-J            ...   1113
   # of shells in Aux-J                     ...    375
   Maximum angular momentum in Aux-J        ...      4
Auxiliary J/K fitting basis                 ... NOT available
Auxiliary Correlation fitting basis         ... NOT available
Auxiliary 'external' fitting basis          ... NOT available
Integral threshold                          ...     2.500000e-11
Primitive cut-off                           ...     2.500000e-12
Primitive pair pre-selection threshold      ...     2.500000e-12

Calculating pre-screening integrals         ... done (  0.0 sec) Dimension = 279
Calculating pre-screening integrals (ORCA)  ... done (  0.1 sec) Dimension = 171
Organizing shell pair data                  ... done (  0.1 sec)
Shell pair information
Total number of shell pairs                 ...     39060
Shell pairs after pre-screening             ...     19174
Total number of primitive shell pairs       ...     64020
Primitive shell pairs kept                  ...     26443
          la=0 lb=0:   8420 shell pairs
          la=1 lb=0:   6715 shell pairs
          la=1 lb=1:   1176 shell pairs
          la=2 lb=0:   2028 shell pairs
          la=2 lb=1:    712 shell pairs
          la=2 lb=2:    123 shell pairs

Calculating one electron integrals          ... done (  0.0 sec)
Calculating RI/J V-Matrix + Cholesky decomp.... done (  0.2 sec)
Calculating Nuclear repulsion               ... done (  0.0 sec) ENN=   1144.886103824135 Eh

SHARK setup successfully completed in   1.0 seconds

Maximum memory used throughout the entire GTOINT-calculation: 28.1 MB


           ************************************************************
           *        Program running with 16 parallel MPI-processes    *
           *              working on a common directory               *
           ************************************************************
-------------------------------------------------------------------------------
                                 ORCA SCF
-------------------------------------------------------------------------------

------------
SCF SETTINGS
------------
Hamiltonian:
 Density Functional     Method          .... DFT(GTOs)
 Exchange Functional    Exchange        .... B88
   X-Alpha parameter    XAlpha          ....  0.666667
   Becke's b parameter  XBeta           ....  0.004200
 Correlation Functional Correlation     .... LYP
 LDA part of GGA corr.  LDAOpt          .... VWN-5
 Gradients option       PostSCFGGA      .... off
 Hybrid DFT is turned on
   Fraction HF Exchange ScalHFX         ....  0.200000
   Scaling of DF-GGA-X  ScalDFX         ....  0.720000
   Scaling of DF-GGA-C  ScalDFC         ....  0.810000
   Scaling of DF-LDA-C  ScalLDAC        ....  1.000000
   Perturbative correction              ....  0.000000
   Density functional embedding theory  .... OFF
   NL short-range parameter             ....  4.800000
 RI-approximation to the Coulomb term is turned on
   Number of AuxJ basis functions       .... 1113
   RIJ-COSX (HFX calculated with COS-X)).... on


General Settings:
 Integral files         IntName         .... opt_cc-pVDZ
 Hartree-Fock type      HFTyp           .... UHF
 Total Charge           Charge          ....    0
 Multiplicity           Mult            ....    2
 Number of Electrons    NEL             ....  129
 Basis Dimension        Dim             ....  357
 Nuclear Repulsion      ENuc            ....   1144.8861038241 Eh

Convergence Acceleration:
 DIIS                   CNVDIIS         .... on
   Start iteration      DIISMaxIt       ....    12
   Startup error        DIISStart       ....  0.200000
   # of expansion vecs  DIISMaxEq       ....     5
   Bias factor          DIISBfac        ....   1.050
   Max. coefficient     DIISMaxC        ....  10.000
 Trust-Rad. Augm. Hess. CNVTRAH         .... auto
   Auto Start mean grad. ratio tolernc. ....  1.125000
   Auto Start start iteration           ....    20
   Auto Start num. interpolation iter.  ....    10
   Max. Number of Micro iterations      ....    16
   Max. Number of Macro iterations      .... Maxiter - #DIIS iter
   Number of Davidson start vectors     ....     2
   Converg. threshold I  (grad. norm)   ....   1.000e-05
   Converg. threshold II (energy diff.) ....   1.000e-08
   Grad. Scal. Fac. for Micro threshold ....   0.100
   Minimum threshold for Micro iter.    ....   0.010
   NR start threshold (gradient norm)   ....   0.001
   Initial trust radius                 ....   0.400
   Minimum AH scaling param. (alpha)    ....   1.000
   Maximum AH scaling param. (alpha)    .... 1000.000
   Orbital update algorithm             .... Taylor
   White noise on init. David. guess    .... on
   Maximum white noise                  ....   0.010
   Quad. conv. algorithm                .... NR
 SOSCF                  CNVSOSCF        .... off
 Level Shifting         CNVShift        .... on
   Level shift para.    LevelShift      ....    0.2500
   Turn off err/grad.   ShiftErr        ....    0.0010
 Zerner damping         CNVZerner       .... off
 Static damping         CNVDamp         .... on
   Fraction old density DampFac         ....    0.7000
   Max. Damping (<1)    DampMax         ....    0.9800
   Min. Damping (>=0)   DampMin         ....    0.0000
   Turn off err/grad.   DampErr         ....    0.1000
 Fernandez-Rico         CNVRico         .... off

SCF Procedure:
 Maximum # iterations   MaxIter         ....   125
 SCF integral mode      SCFMode         .... Direct
   Integral package                     .... SHARK and LIBINT hybrid scheme
 Reset frequency        DirectResetFreq ....    20
 Integral Threshold     Thresh          ....  2.500e-11 Eh
 Primitive CutOff       TCut            ....  2.500e-12 Eh

Convergence Tolerance:
 Convergence Check Mode ConvCheckMode   .... Total+1el-Energy
 Convergence forced     ConvForced      .... 0
 Energy Change          TolE            ....  1.000e-08 Eh
 1-El. energy change                    ....  1.000e-05 Eh
 DIIS Error             TolErr          ....  5.000e-07


Diagonalization of the overlap matrix:
Smallest eigenvalue                        ... 1.275e-04
Time for diagonalization                   ...    0.031 sec
Threshold for overlap eigenvalues          ... 1.000e-08
Number of eigenvalues below threshold      ... 0
Time for construction of square roots      ...    0.031 sec
Total time needed                          ...    0.063 sec

Time for model grid setup =    0.232 sec

------------------------------
INITIAL GUESS: MODEL POTENTIAL
------------------------------
Loading Hartree-Fock densities                     ... done
Calculating cut-offs                               ... done
Initializing the effective Hamiltonian             ... done
Setting up the integral package (SHARK)            ... done
Starting the Coulomb interaction                   ... done (   0.2 sec)
Reading the grid                                   ... done
Mapping shells                                     ... done
Starting the XC term evaluation                    ... done (   0.1 sec)
  promolecular density results
     # of electrons  =    128.989778569
     EX              =    -98.637901352
     EC              =     -4.220030092
     EX+EC           =   -102.857931444
Transforming the Hamiltonian                       ... done (   0.0 sec)
Diagonalizing the Hamiltonian                      ... done (   0.0 sec)
Back transforming the eigenvectors                 ... done (   0.0 sec)
Now organizing SCF variables                       ... done
                      ------------------
                      INITIAL GUESS DONE (   0.7 sec)
                      ------------------
-------------------
DFT GRID GENERATION
-------------------

General Integration Accuracy     IntAcc      ... 4.388
Radial Grid Type                 RadialGrid  ... OptM3 with GC (2021)
Angular Grid (max. ang.)         AngularGrid ... 4 (Lebedev-302)
Angular grid pruning method      GridPruning ... 4 (adaptive)
Weight generation scheme         WeightScheme... Becke
Basis function cutoff            BFCut       ... 1.0000e-11
Integration weight cutoff        WCut        ... 1.0000e-14
Angular grids for H and He will be reduced by one unit
Partially contracted basis set               ... off
Rotationally invariant grid construction     ... off

Total number of grid points                  ...   174685
Total number of batches                      ...     2747
Average number of points per batch           ...       63
Average number of grid points per atom       ...     4479
Time for grid setup =    0.943 sec

--------------------
COSX GRID GENERATION
--------------------

GRIDX 1
-------
General Integration Accuracy     IntAcc      ... 3.816
Radial Grid Type                 RadialGrid  ... OptM3 with GC (2021)
Angular Grid (max. ang.)         AngularGrid ... 1 (Lebedev-50)
Angular grid pruning method      GridPruning ... 4 (adaptive)
Weight generation scheme         WeightScheme... Becke
Basis function cutoff            BFCut       ... 1.0000e-11
Integration weight cutoff        WCut        ... 1.0000e-14
Angular grids for H and He will be reduced by one unit
Partially contracted basis set               ... on
Rotationally invariant grid construction     ... off

Total number of grid points                  ...    22264
Total number of batches                      ...      371
Average number of points per batch           ...       60
Average number of grid points per atom       ...      571
UseSFitting                                  ... on

GRIDX 2
-------
General Integration Accuracy     IntAcc      ... 4.020
Radial Grid Type                 RadialGrid  ... OptM3 with GC (2021)
Angular Grid (max. ang.)         AngularGrid ... 2 (Lebedev-110)
Angular grid pruning method      GridPruning ... 4 (adaptive)
Weight generation scheme         WeightScheme... Becke
Basis function cutoff            BFCut       ... 1.0000e-11
Integration weight cutoff        WCut        ... 1.0000e-14
Angular grids for H and He will be reduced by one unit
Partially contracted basis set               ... on
Rotationally invariant grid construction     ... off

Total number of grid points                  ...    47311
Total number of batches                      ...      761
Average number of points per batch           ...       62
Average number of grid points per atom       ...     1213
UseSFitting                                  ... on

GRIDX 3
-------
General Integration Accuracy     IntAcc      ... 4.338
Radial Grid Type                 RadialGrid  ... OptM3 with GC (2021)
Angular Grid (max. ang.)         AngularGrid ... 3 (Lebedev-194)
Angular grid pruning method      GridPruning ... 4 (adaptive)
Weight generation scheme         WeightScheme... Becke
Basis function cutoff            BFCut       ... 1.0000e-11
Integration weight cutoff        WCut        ... 1.0000e-14
Angular grids for H and He will be reduced by one unit
Partially contracted basis set               ... on
Rotationally invariant grid construction     ... off

Total number of grid points                  ...   103513
Total number of batches                      ...     1637
Average number of points per batch           ...       63
Average number of grid points per atom       ...     2654
UseSFitting                                  ... on

Time for X-Grid setup             =    1.740 sec

 re-compute Schwartz prescreening matrix in partically contracted basis (1) ...done (   0.105 sec)
--------------
SCF ITERATIONS
--------------
ITER       Energy         Delta-E        Max-DP      RMS-DP      [F,P]     Damp
               ***  Starting incremental Fock matrix formation  ***
  0   -697.5237750668   0.000000000000 0.06839481  0.00102769  0.0869378 0.7000
  1   -697.7194561565  -0.195681089709 0.05038378  0.00075459  0.0457931 0.7000
                               ***Turning on DIIS***
  2   -697.8077061785  -0.088250022032 0.09895852  0.00145245  0.0175398 0.0000
  3   -697.9319023956  -0.124196217147 0.02003474  0.00037817  0.0249197 0.0000
  4   -697.9646968605  -0.032794464876 0.00884193  0.00013513  0.0060609 0.0000
  5   -697.9667614779  -0.002064617370 0.00417258  0.00004360  0.0029224 0.0000
  6   -697.9670779782  -0.000316500286 0.00321934  0.00002626  0.0020745 0.0000
  7   -697.9672011175  -0.000123139347 0.00187822  0.00001742  0.0013440 0.0000
  8   -697.9672633483  -0.000062230740 0.00301753  0.00003094  0.0008745 0.0000
               *** Restarting incremental Fock matrix formation ***
                                   *** Resetting DIIS ***
  9   -697.9675973533  -0.000334005081 0.00099737  0.00001431  0.0005673 0.0000
 10   -697.9675958737   0.000001479663 0.00040556  0.00000437  0.0012057 0.0000
 11   -697.9676057317  -0.000009857974 0.00043473  0.00000442  0.0003935 0.0000
 12   -697.9676085969  -0.000002865283 0.00062951  0.00000567  0.0001439 0.0000
 13   -697.9676103483  -0.000001751327 0.00017042  0.00000177  0.0000838 0.0000
 14   -697.9676105721  -0.000000223843 0.00013226  0.00000126  0.0000577 0.0000
 15   -697.9676106662  -0.000000094121 0.00005136  0.00000043  0.0000596 0.0000
 16   -697.9676106937  -0.000000027455 0.00003086  0.00000037  0.0000300 0.0000
 17   -697.9676106934   0.000000000254 0.00001505  0.00000016  0.0000103 0.0000
 18   -697.9676107129  -0.000000019515 0.00001120  0.00000013  0.0000086 0.0000
 19   -697.9676107094   0.000000003586 0.00000441  0.00000005  0.0000046 0.0000
 20   -697.9676106961   0.000000013240 0.00000540  0.00000005  0.0000016 0.0000
 21   -697.9676107035  -0.000000007353 0.00000381  0.00000003  0.0000012 0.0000
 22   -697.9676107080  -0.000000004535 0.00000260  0.00000003  0.0000015 0.0000
                            ***DIIS convergence achieved***

               *****************************************************
               *                     SUCCESS                       *
               *           SCF CONVERGED AFTER  23 CYCLES          *
               *****************************************************

Old exchange energy                            =    -20.130619989 Eh
New exchange energy                            =    -20.130721284 Eh
Exchange energy change after final integration =     -0.000101296 Eh
Total energy after final integration           =   -697.967712012 Eh
Final COS-X integration done in                =     4.948 sec

----------------
TOTAL SCF ENERGY
----------------

Total Energy       :         -697.96771201 Eh          -18992.66701 eV

Components:
Nuclear Repulsion  :         1144.88610382 Eh           31153.93472 eV
Electronic Energy  :        -1842.85381584 Eh          -50146.60173 eV
One Electron Energy:        -3212.88605166 Eh          -87427.07417 eV
Two Electron Energy:         1370.03223582 Eh           37280.47244 eV
Max COSX asymmetry :            0.00000051 Eh               0.00001 eV

Virial components:
Potential Energy   :        -1390.99993943 Eh          -37851.03266 eV
Kinetic Energy     :          693.03222741 Eh           18858.36565 eV
Virial Ratio       :            2.00712158


DFT components:
N(Alpha)           :       65.000135993873 electrons
N(Beta)            :       64.000126394330 electrons
N(Total)           :      129.000262388204 electrons
E(X)               :      -79.826300422640 Eh       
E(C)               :       -4.989832690945 Eh       
E(XC)              :      -84.816133113585 Eh       
DFET-embed. en.    :        0.000000000000 Eh       

---------------
SCF CONVERGENCE
---------------

  Last Energy change         ...   -8.1773e-09  Tolerance :   1.0000e-08
  Last MAX-Density change    ...    0.0000e+00  Tolerance :   1.0000e-07
  Last RMS-Density change    ...    0.0000e+00  Tolerance :   5.0000e-09
  Last DIIS Error            ...    8.8312e-07  Tolerance :   5.0000e-07

             **** THE GBW FILE WAS UPDATED (opt_cc-pVDZ.gbw) ****
             **** DENSITY opt_cc-pVDZ.scfp WAS UPDATED ****
             **** ENERGY FILE WAS UPDATED (opt_cc-pVDZ.en.tmp) ****
----------------------
UHF SPIN CONTAMINATION
----------------------

Warning: in a DFT calculation there is little theoretical justification to 
         calculate <S**2> as in Hartree-Fock theory. We will do it anyways
         but you should keep in mind that the values have only limited relevance

Expectation value of <S**2>     :     0.786019
Ideal value S*(S+1) for S=0.5   :     0.750000
Deviation                       :     0.036019

             **** THE GBW FILE WAS UPDATED (opt_cc-pVDZ.gbw) ****
             **** DENSITY opt_cc-pVDZ.scfp WAS UPDATED ****
----------------
ORBITAL ENERGIES
----------------
                 SPIN UP ORBITALS
  NO   OCC          E(Eh)            E(eV) 
   0   1.0000     -10.215424      -277.9758 
   1   1.0000     -10.213421      -277.9213 
   2   1.0000     -10.204195      -277.6703 
   3   1.0000     -10.200077      -277.5582 
   4   1.0000     -10.196628      -277.4644 
   5   1.0000     -10.193584      -277.3815 
   6   1.0000     -10.192786      -277.3598 
   7   1.0000     -10.191758      -277.3318 
   8   1.0000     -10.190846      -277.3070 
   9   1.0000     -10.188913      -277.2544 
  10   1.0000     -10.187446      -277.2145 
  11   1.0000     -10.187360      -277.2122 
  12   1.0000     -10.186655      -277.1930 
  13   1.0000     -10.184311      -277.1292 
  14   1.0000     -10.182161      -277.0707 
  15   1.0000     -10.181845      -277.0621 
  16   1.0000     -10.177400      -276.9411 
  17   1.0000     -10.175643      -276.8933 
  18   1.0000      -0.875637       -23.8273 
  19   1.0000      -0.821132       -22.3441 
  20   1.0000      -0.798427       -21.7263 
  21   1.0000      -0.796396       -21.6710 
  22   1.0000      -0.769050       -20.9269 
  23   1.0000      -0.752770       -20.4839 
  24   1.0000      -0.731756       -19.9121 
  25   1.0000      -0.721398       -19.6302 
  26   1.0000      -0.698772       -19.0146 
  27   1.0000      -0.657582       -17.8937 
  28   1.0000      -0.640119       -17.4185 
  29   1.0000      -0.618005       -16.8168 
  30   1.0000      -0.594661       -16.1815 
  31   1.0000      -0.580851       -15.8058 
  32   1.0000      -0.563305       -15.3283 
  33   1.0000      -0.542227       -14.7547 
  34   1.0000      -0.524589       -14.2748 
  35   1.0000      -0.499446       -13.5906 
  36   1.0000      -0.486885       -13.2488 
  37   1.0000      -0.478514       -13.0210 
  38   1.0000      -0.471036       -12.8175 
  39   1.0000      -0.462828       -12.5942 
  40   1.0000      -0.434239       -11.8162 
  41   1.0000      -0.430630       -11.7180 
  42   1.0000      -0.426757       -11.6126 
  43   1.0000      -0.422409       -11.4943 
  44   1.0000      -0.412563       -11.2264 
  45   1.0000      -0.399074       -10.8594 
  46   1.0000      -0.398521       -10.8443 
  47   1.0000      -0.381061       -10.3692 
  48   1.0000      -0.379751       -10.3335 
  49   1.0000      -0.365975        -9.9587 
  50   1.0000      -0.358151        -9.7458 
  51   1.0000      -0.354921        -9.6579 
  52   1.0000      -0.341094        -9.2817 
  53   1.0000      -0.333281        -9.0690 
  54   1.0000      -0.331662        -9.0250 
  55   1.0000      -0.331054        -9.0084 
  56   1.0000      -0.328150        -8.9294 
  57   1.0000      -0.325097        -8.8464 
  58   1.0000      -0.321411        -8.7460 
  59   1.0000      -0.285600        -7.7716 
  60   1.0000      -0.276502        -7.5240 
  61   1.0000      -0.274880        -7.4799 
  62   1.0000      -0.271294        -7.3823 
  63   1.0000      -0.231125        -6.2892 
  64   1.0000      -0.174675        -4.7531 
  65   0.0000      -0.048345        -1.3155 
  66   0.0000       0.010915         0.2970 
  67   0.0000       0.040501         1.1021 
  68   0.0000       0.049405         1.3444 
  69   0.0000       0.052825         1.4374 
  70   0.0000       0.062571         1.7026 
  71   0.0000       0.063614         1.7310 
  72   0.0000       0.082193         2.2366 
  73   0.0000       0.085634         2.3302 
  74   0.0000       0.088647         2.4122 
  75   0.0000       0.091123         2.4796 
  76   0.0000       0.094619         2.5747 
  77   0.0000       0.095660         2.6030 
  78   0.0000       0.100872         2.7449 
  79   0.0000       0.102715         2.7950 
  80   0.0000       0.118015         3.2113 
  81   0.0000       0.125555         3.4165 
  82   0.0000       0.129871         3.5340 
  83   0.0000       0.144583         3.9343 
  84   0.0000       0.146817         3.9951 
  85   0.0000       0.151352         4.1185 
  86   0.0000       0.159941         4.3522 
  87   0.0000       0.160062         4.3555 
  88   0.0000       0.161956         4.4070 
  89   0.0000       0.168460         4.5840 
  90   0.0000       0.170282         4.6336 
  91   0.0000       0.178621         4.8605 
  92   0.0000       0.195877         5.3301 
  93   0.0000       0.204105         5.5540 
  94   0.0000       0.212185         5.7739 
  95   0.0000       0.217198         5.9103 
  96   0.0000       0.222602         6.0573 
  97   0.0000       0.242826         6.6076 
  98   0.0000       0.248302         6.7566 
  99   0.0000       0.260778         7.0961 
 100   0.0000       0.268487         7.3059 
 101   0.0000       0.290751         7.9117 
 102   0.0000       0.308309         8.3895 
 103   0.0000       0.323270         8.7966 
 104   0.0000       0.327179         8.9030 
 105   0.0000       0.348769         9.4905 
 106   0.0000       0.361066         9.8251 
 107   0.0000       0.366073         9.9614 
 108   0.0000       0.390520        10.6266 
 109   0.0000       0.409484        11.1426 
 110   0.0000       0.411446        11.1960 
 111   0.0000       0.412963        11.2373 
 112   0.0000       0.419187        11.4067 
 113   0.0000       0.423943        11.5361 
 114   0.0000       0.435767        11.8578 
 115   0.0000       0.439907        11.9705 
 116   0.0000       0.442319        12.0361 
 117   0.0000       0.461371        12.5545 
 118   0.0000       0.463126        12.6023 
 119   0.0000       0.470759        12.8100 
 120   0.0000       0.476341        12.9619 
 121   0.0000       0.478769        13.0280 
 122   0.0000       0.487737        13.2720 
 123   0.0000       0.502657        13.6780 
 124   0.0000       0.503799        13.7091 
 125   0.0000       0.505337        13.7509 
 126   0.0000       0.515944        14.0395 
 127   0.0000       0.522608        14.2209 
 128   0.0000       0.528368        14.3776 
 129   0.0000       0.540929        14.7194 
 130   0.0000       0.543279        14.7834 
 131   0.0000       0.551465        15.0061 
 132   0.0000       0.558120        15.1872 
 133   0.0000       0.560117        15.2416 
 134   0.0000       0.587167        15.9776 
 135   0.0000       0.588441        16.0123 
 136   0.0000       0.596343        16.2273 
 137   0.0000       0.604190        16.4409 
 138   0.0000       0.605541        16.4776 
 139   0.0000       0.607657        16.5352 
 140   0.0000       0.618555        16.8317 
 141   0.0000       0.624068        16.9818 
 142   0.0000       0.639018        17.3886 
 143   0.0000       0.641624        17.4595 
 144   0.0000       0.643804        17.5188 
 145   0.0000       0.644673        17.5424 
 146   0.0000       0.651771        17.7356 
 147   0.0000       0.654707        17.8155 
 148   0.0000       0.656470        17.8635 
 149   0.0000       0.659490        17.9456 
 150   0.0000       0.661815        18.0089 
 151   0.0000       0.662599        18.0302 
 152   0.0000       0.667982        18.1767 
 153   0.0000       0.668204        18.1827 
 154   0.0000       0.680227        18.5099 
 155   0.0000       0.681564        18.5463 
 156   0.0000       0.687187        18.6993 
 157   0.0000       0.689985        18.7755 
 158   0.0000       0.691755        18.8236 
 159   0.0000       0.697811        18.9884 
 160   0.0000       0.707443        19.2505 
 161   0.0000       0.718861        19.5612 
 162   0.0000       0.719572        19.5805 
 163   0.0000       0.728817        19.8321 
 164   0.0000       0.733315        19.9545 
 165   0.0000       0.735500        20.0140 
 166   0.0000       0.738090        20.0844 
 167   0.0000       0.747250        20.3337 
 168   0.0000       0.756776        20.5929 
 169   0.0000       0.768716        20.9178 
 170   0.0000       0.773558        21.0496 
 171   0.0000       0.781097        21.2547 
 172   0.0000       0.801937        21.8218 
 173   0.0000       0.818704        22.2781 
 174   0.0000       0.831987        22.6395 
 175   0.0000       0.832837        22.6626 
 176   0.0000       0.841015        22.8852 
 177   0.0000       0.852695        23.2030 
 178   0.0000       0.872385        23.7388 
 179   0.0000       0.879269        23.9261 
 180   0.0000       0.884381        24.0652 
 181   0.0000       0.912874        24.8406 
 182   0.0000       0.929330        25.2883 
 183   0.0000       0.938576        25.5400 
 184   0.0000       0.951637        25.8954 
 185   0.0000       0.978828        26.6353 
 186   0.0000       0.984208        26.7817 
 187   0.0000       0.990502        26.9529 
 188   0.0000       0.996548        27.1175 
 189   0.0000       1.014171        27.5970 
 190   0.0000       1.037434        28.2300 
 191   0.0000       1.042201        28.3597 
 192   0.0000       1.048065        28.5193 
 193   0.0000       1.049363        28.5546 
 194   0.0000       1.053795        28.6752 
 195   0.0000       1.065236        28.9866 
 196   0.0000       1.080734        29.4083 
 197   0.0000       1.083945        29.4956 
 198   0.0000       1.099611        29.9219 
 199   0.0000       1.144105        31.1327 
 200   0.0000       1.156779        31.4776 
 201   0.0000       1.165611        31.7179 
 202   0.0000       1.192837        32.4587 
 203   0.0000       1.204194        32.7678 
 204   0.0000       1.207190        32.8493 
 205   0.0000       1.208694        32.8902 
 206   0.0000       1.215358        33.0716 
 207   0.0000       1.218132        33.1471 
 208   0.0000       1.222564        33.2677 
 209   0.0000       1.227648        33.4060 
 210   0.0000       1.236028        33.6340 
 211   0.0000       1.257512        34.2186 
 212   0.0000       1.282792        34.9065 
 213   0.0000       1.288307        35.0566 
 214   0.0000       1.303855        35.4797 
 215   0.0000       1.308165        35.5970 
 216   0.0000       1.318235        35.8710 
 217   0.0000       1.327637        36.1268 
 218   0.0000       1.335409        36.3383 
 219   0.0000       1.345880        36.6232 
 220   0.0000       1.347429        36.6654 
 221   0.0000       1.372191        37.3392 
 222   0.0000       1.383867        37.6569 
 223   0.0000       1.388420        37.7808 
 224   0.0000       1.399295        38.0768 
 225   0.0000       1.409096        38.3435 
 226   0.0000       1.417338        38.5677 
 227   0.0000       1.425058        38.7778 
 228   0.0000       1.426573        38.8190 
 229   0.0000       1.428594        38.8740 
 230   0.0000       1.445941        39.3461 
 231   0.0000       1.452319        39.5196 
 232   0.0000       1.462260        39.7901 
 233   0.0000       1.468891        39.9705 
 234   0.0000       1.471403        40.0389 
 235   0.0000       1.483830        40.3771 
 236   0.0000       1.494236        40.6602 
 237   0.0000       1.520367        41.3713 
 238   0.0000       1.532262        41.6950 
 239   0.0000       1.537154        41.8281 
 240   0.0000       1.557039        42.3692 
 241   0.0000       1.558688        42.4141 
 242   0.0000       1.582978        43.0750 
 243   0.0000       1.585578        43.1458 
 244   0.0000       1.586346        43.1667 
 245   0.0000       1.601196        43.5708 
 246   0.0000       1.616753        43.9941 
 247   0.0000       1.622258        44.1439 
 248   0.0000       1.627912        44.2977 
 249   0.0000       1.630160        44.3589 
 250   0.0000       1.633105        44.4390 
 251   0.0000       1.639703        44.6186 
 252   0.0000       1.645796        44.7844 
 253   0.0000       1.651272        44.9334 
 254   0.0000       1.651689        44.9447 
 255   0.0000       1.660705        45.1901 
 256   0.0000       1.668780        45.4098 
 257   0.0000       1.671852        45.4934 
 258   0.0000       1.675724        45.5988 
 259   0.0000       1.685906        45.8758 
 260   0.0000       1.686393        45.8891 
 261   0.0000       1.694914        46.1210 
 262   0.0000       1.698881        46.2289 
 263   0.0000       1.702421        46.3252 
 264   0.0000       1.704128        46.3717 
 265   0.0000       1.710691        46.5503 
 266   0.0000       1.716929        46.7200 
 267   0.0000       1.725408        46.9507 
 268   0.0000       1.741900        47.3995 
 269   0.0000       1.752047        47.6756 
 270   0.0000       1.756077        47.7853 
 271   0.0000       1.762338        47.9556 
 272   0.0000       1.780633        48.4535 
 273   0.0000       1.783168        48.5225 
 274   0.0000       1.790154        48.7126 
 275   0.0000       1.796294        48.8796 
 276   0.0000       1.802488        49.0482 
 277   0.0000       1.814060        49.3631 
 278   0.0000       1.819581        49.5133 
 279   0.0000       1.822404        49.5901 
 280   0.0000       1.830386        49.8073 
 281   0.0000       1.857474        50.5444 
 282   0.0000       1.870134        50.8889 
 283   0.0000       1.879715        51.1497 
 284   0.0000       1.889207        51.4079 
 285   0.0000       1.897052        51.6214 
 286   0.0000       1.911933        52.0264 
 287   0.0000       1.915259        52.1168 
 288   0.0000       1.922112        52.3033 
 289   0.0000       1.929493        52.5042 
 290   0.0000       1.953025        53.1445 
 291   0.0000       1.975869        53.7661 
 292   0.0000       1.992220        54.2111 
 293   0.0000       1.996462        54.3265 
 294   0.0000       2.011958        54.7482 
 295   0.0000       2.024579        55.0916 
 296   0.0000       2.044708        55.6393 
 297   0.0000       2.050933        55.8087 
 298   0.0000       2.068161        56.2775 
 299   0.0000       2.075157        56.4679 
 300   0.0000       2.076912        56.5156 
 301   0.0000       2.086148        56.7670 
 302   0.0000       2.111721        57.4629 
 303   0.0000       2.126301        57.8596 
 304   0.0000       2.128103        57.9086 
 305   0.0000       2.129035        57.9340 
 306   0.0000       2.151751        58.5521 
 307   0.0000       2.155833        58.6632 
 308   0.0000       2.189077        59.5678 
 309   0.0000       2.199156        59.8421 
 310   0.0000       2.210004        60.1373 
 311   0.0000       2.212665        60.2097 
 312   0.0000       2.218761        60.3756 
 313   0.0000       2.227250        60.6066 
 314   0.0000       2.253252        61.3141 
 315   0.0000       2.260903        61.5223 
 316   0.0000       2.280935        62.0674 
 317   0.0000       2.291821        62.3636 
 318   0.0000       2.296870        62.5010 
 319   0.0000       2.301820        62.6357 
 320   0.0000       2.319838        63.1260 
 321   0.0000       2.326629        63.3108 
 322   0.0000       2.329539        63.3900 
 323   0.0000       2.334780        63.5326 
 324   0.0000       2.375223        64.6331 
 325   0.0000       2.382929        64.8428 
 326   0.0000       2.407415        65.5091 
 327   0.0000       2.410811        65.6015 
 328   0.0000       2.412184        65.6389 
 329   0.0000       2.413065        65.6628 
 330   0.0000       2.422138        65.9097 
 331   0.0000       2.424514        65.9744 
 332   0.0000       2.440716        66.4153 
 333   0.0000       2.484195        67.5984 
 334   0.0000       2.498779        67.9952 
 335   0.0000       2.502309        68.0913 
 336   0.0000       2.535470        68.9936 
 337   0.0000       2.545644        69.2705 
 338   0.0000       2.558631        69.6239 
 339   0.0000       2.592834        70.5546 
 340   0.0000       2.601453        70.7891 
 341   0.0000       2.625556        71.4450 
 342   0.0000       2.641905        71.8899 
 343   0.0000       2.661278        72.4171 
 344   0.0000       2.680535        72.9411 
 345   0.0000       2.713768        73.8454 
 346   0.0000       2.722388        74.0799 
 347   0.0000       2.754076        74.9422 
 348   0.0000       2.776829        75.5614 
 349   0.0000       2.823058        76.8193 
 350   0.0000       2.845179        77.4213 
 351   0.0000       2.871215        78.1297 
 352   0.0000       2.927874        79.6715 
 353   0.0000       3.007039        81.8257 
 354   0.0000       3.191088        86.8339 
 355   0.0000       3.202528        87.1452 
 356   0.0000       3.396093        92.4124 

                 SPIN DOWN ORBITALS
  NO   OCC          E(Eh)            E(eV) 
   0   1.0000     -10.215056      -277.9658 
   1   1.0000     -10.211990      -277.8824 
   2   1.0000     -10.202532      -277.6250 
   3   1.0000     -10.200725      -277.5758 
   4   1.0000     -10.193531      -277.3801 
   5   1.0000     -10.193366      -277.3756 
   6   1.0000     -10.192392      -277.3491 
   7   1.0000     -10.191623      -277.3282 
   8   1.0000     -10.189593      -277.2729 
   9   1.0000     -10.187987      -277.2292 
  10   1.0000     -10.187652      -277.2201 
  11   1.0000     -10.185360      -277.1577 
  12   1.0000     -10.184272      -277.1281 
  13   1.0000     -10.183571      -277.1091 
  14   1.0000     -10.182158      -277.0706 
  15   1.0000     -10.181845      -277.0621 
  16   1.0000     -10.177407      -276.9413 
  17   1.0000     -10.175645      -276.8934 
  18   1.0000      -0.872207       -23.7340 
  19   1.0000      -0.816059       -22.2061 
  20   1.0000      -0.795802       -21.6549 
  21   1.0000      -0.794988       -21.6327 
  22   1.0000      -0.767003       -20.8712 
  23   1.0000      -0.751902       -20.4603 
  24   1.0000      -0.727647       -19.8003 
  25   1.0000      -0.719935       -19.5904 
  26   1.0000      -0.696401       -18.9500 
  27   1.0000      -0.654517       -17.8103 
  28   1.0000      -0.638242       -17.3675 
  29   1.0000      -0.612414       -16.6646 
  30   1.0000      -0.593701       -16.1554 
  31   1.0000      -0.579278       -15.7630 
  32   1.0000      -0.560774       -15.2594 
  33   1.0000      -0.540934       -14.7196 
  34   1.0000      -0.522045       -14.2056 
  35   1.0000      -0.497255       -13.5310 
  36   1.0000      -0.485442       -13.2095 
  37   1.0000      -0.477134       -12.9835 
  38   1.0000      -0.470156       -12.7936 
  39   1.0000      -0.459317       -12.4987 
  40   1.0000      -0.432163       -11.7598 
  41   1.0000      -0.429165       -11.6782 
  42   1.0000      -0.425520       -11.5790 
  43   1.0000      -0.419694       -11.4205 
  44   1.0000      -0.412084       -11.2134 
  45   1.0000      -0.397417       -10.8143 
  46   1.0000      -0.391220       -10.6456 
  47   1.0000      -0.377457       -10.2711 
  48   1.0000      -0.377173       -10.2634 
  49   1.0000      -0.364803        -9.9268 
  50   1.0000      -0.357148        -9.7185 
  51   1.0000      -0.351749        -9.5716 
  52   1.0000      -0.338789        -9.2189 
  53   1.0000      -0.332766        -9.0550 
  54   1.0000      -0.330030        -8.9806 
  55   1.0000      -0.328650        -8.9430 
  56   1.0000      -0.327806        -8.9200 
  57   1.0000      -0.324338        -8.8257 
  58   1.0000      -0.320677        -8.7261 
  59   1.0000      -0.280071        -7.6211 
  60   1.0000      -0.276466        -7.5230 
  61   1.0000      -0.274223        -7.4620 
  62   1.0000      -0.258905        -7.0452 
  63   1.0000      -0.223133        -6.0718 
  64   0.0000      -0.084273        -2.2932 
  65   0.0000      -0.039297        -1.0693 
  66   0.0000       0.026997         0.7346 
  67   0.0000       0.040902         1.1130 
  68   0.0000       0.049710         1.3527 
  69   0.0000       0.059197         1.6108 
  70   0.0000       0.062704         1.7063 
  71   0.0000       0.064057         1.7431 
  72   0.0000       0.082614         2.2481 
  73   0.0000       0.086102         2.3429 
  74   0.0000       0.089238         2.4283 
  75   0.0000       0.091315         2.4848 
  76   0.0000       0.094935         2.5833 
  77   0.0000       0.095680         2.6036 
  78   0.0000       0.101722         2.7680 
  79   0.0000       0.104107         2.8329 
  80   0.0000       0.120245         3.2720 
  81   0.0000       0.126061         3.4303 
  82   0.0000       0.130056         3.5390 
  83   0.0000       0.145419         3.9571 
  84   0.0000       0.148766         4.0481 
  85   0.0000       0.152406         4.1472 
  86   0.0000       0.160535         4.3684 
[...]
      py      :     0.015309
 25 C s       :     2.799039  s :     2.799039
      pz      :     1.041326  p :     3.053872
      px      :     1.022777
      py      :     0.989769
      dz2     :     0.027591  d :     0.190632
      dxz     :     0.058051
      dyz     :     0.018461
      dx2y2   :     0.038394
      dxy     :     0.048135
 26 H s       :     0.898472  s :     0.898472
      pz      :     0.034291  p :     0.076986
      px      :     0.026858
      py      :     0.015837
 27 H s       :     0.898474  s :     0.898474
      pz      :     0.034835  p :     0.076987
      px      :     0.026311
      py      :     0.015841
 28 C s       :     2.799224  s :     2.799224
      pz      :     1.041986  p :     3.055776
      px      :     1.021267
      py      :     0.992523
      dz2     :     0.027804  d :     0.191924
      dxz     :     0.057254
      dyz     :     0.018627
      dx2y2   :     0.039506
      dxy     :     0.048733
 29 H s       :     0.900001  s :     0.900001
      pz      :     0.033676  p :     0.075833
      px      :     0.026581
      py      :     0.015576
 30 H s       :     0.900008  s :     0.900008
      pz      :     0.034185  p :     0.075832
      px      :     0.026074
      py      :     0.015573
 31 C s       :     2.806508  s :     2.806508
      pz      :     1.054150  p :     3.114946
      px      :     1.041869
      py      :     1.018927
      dz2     :     0.026077  d :     0.146019
      dxz     :     0.045501
      dyz     :     0.009575
      dx2y2   :     0.024148
      dxy     :     0.040718
 32 H s       :     0.898658  s :     0.898658
      pz      :     0.034822  p :     0.076110
      px      :     0.025656
      py      :     0.015633
 33 H s       :     0.898653  s :     0.898653
      pz      :     0.034320  p :     0.076113
      px      :     0.026156
      py      :     0.015637
 34 C s       :     2.908744  s :     2.908744
      pz      :     0.975047  p :     3.040914
      px      :     1.086096
      py      :     0.979771
      dz2     :     0.012569  d :     0.099926
      dxz     :     0.024965
      dyz     :     0.000014
      dx2y2   :     0.037706
      dxy     :     0.024672
 35 H s       :     0.883043  s :     0.883043
      pz      :     0.020250  p :     0.094548
      px      :     0.054801
      py      :     0.019497
 36 H s       :     0.882757  s :     0.882757
      pz      :     0.019918  p :     0.094352
      px      :     0.054914
      py      :     0.019520
 37 H s       :     0.895167  s :     0.895167
      pz      :     0.015521  p :     0.076449
      px      :     0.028578
      py      :     0.032351
 38 H s       :     0.896115  s :     0.896115
      pz      :     0.015516  p :     0.076397
      px      :     0.025839
      py      :     0.035043

SPIN
  0 C s       :     0.002530  s :     0.002530
      pz      :     0.072448  p :     0.081759
      px      :     0.001062
      py      :     0.008250
      dz2     :    -0.000305  d :    -0.002384
      dxz     :    -0.001355
      dyz     :    -0.000002
      dx2y2   :    -0.000299
      dxy     :    -0.000423
  1 C s       :    -0.003001  s :    -0.003001
      pz      :    -0.026998  p :    -0.037181
      px      :    -0.002411
      py      :    -0.007772
      dz2     :     0.000156  d :     0.015892
      dxz     :     0.014634
      dyz     :    -0.000002
      dx2y2   :     0.000492
      dxy     :     0.000612
  2 C s       :     0.001388  s :     0.001388
      pz      :     0.014372  p :     0.019741
      px      :     0.001024
      py      :     0.004345
      dz2     :    -0.000082  d :    -0.007211
      dxz     :    -0.006377
      dyz     :     0.000048
      dx2y2   :    -0.000252
      dxy     :    -0.000548
  3 C s       :     0.005902  s :     0.005902
      pz      :     0.157759  p :     0.166651
      px      :     0.004199
      py      :     0.004693
      dz2     :    -0.000763  d :    -0.009069
      dxz     :    -0.001953
      dyz     :    -0.004381
      dx2y2   :    -0.000946
      dxy     :    -0.001026
  4 C s       :    -0.006641  s :    -0.006641
      pz      :    -0.088458  p :    -0.103921
      px      :    -0.006594
      py      :    -0.008869
      dz2     :     0.000515  d :     0.039331
      dxz     :     0.010394
      dyz     :     0.025520
      dx2y2   :     0.001363
      dxy     :     0.001539
  5 C s       :     0.005652  s :     0.005652
      pz      :     0.159840  p :     0.168355
      px      :     0.004548
      py      :     0.003967
      dz2     :    -0.000666  d :    -0.008026
      dxz     :    -0.003981
      dyz     :    -0.001719
      dx2y2   :    -0.000627
      dxy     :    -0.001033
  6 C s       :    -0.003699  s :    -0.003699
      pz      :    -0.065943  p :    -0.073443
      px      :    -0.002833
      py      :    -0.004667
      dz2     :     0.000353  d :     0.016625
      dxz     :     0.001657
      dyz     :     0.013037
      dx2y2   :     0.000619
      dxy     :     0.000959
  7 C s       :     0.006136  s :     0.006136
      pz      :     0.167185  p :     0.176252
      px      :     0.004525
      py      :     0.004542
      dz2     :    -0.000710  d :    -0.006334
      dxz     :    -0.002975
      dyz     :    -0.001487
      dx2y2   :    -0.000559
      dxy     :    -0.000603
  8 C s       :    -0.003888  s :    -0.003888
      pz      :    -0.070910  p :    -0.078905
      px      :    -0.004398
      py      :    -0.003598
      dz2     :     0.000333  d :     0.017375
      dxz     :     0.010881
      dyz     :     0.004794
      dx2y2   :     0.000704
      dxy     :     0.000663
  9 H s       :    -0.004865  s :    -0.004865
      pz      :     0.004943  p :     0.005734
      px      :     0.000291
      py      :     0.000500
 10 H s       :     0.002102  s :     0.002102
      pz      :    -0.002077  p :    -0.002564
      px      :    -0.000202
      py      :    -0.000285
 11 C s       :     0.017944  s :     0.017944
      pz      :     0.545171  p :     0.568369
      px      :     0.011754
      py      :     0.011443
      dz2     :    -0.002109  d :    -0.006382
      dxz     :    -0.000338
      dyz     :    -0.001715
      dx2y2   :    -0.001244
      dxy     :    -0.000976
 12 H s       :    -0.015206  s :    -0.015206
      pz      :     0.016095  p :     0.018531
      px      :     0.002256
      py      :     0.000181
 13 C s       :    -0.003445  s :    -0.003445
      pz      :    -0.003824  p :    -0.017803
      px      :    -0.005124
      py      :    -0.008855
      dz2     :     0.000421  d :     0.026771
      dxz     :     0.012721
      dyz     :     0.012154
      dx2y2   :     0.000641
      dxy     :     0.000835
 14 H s       :     0.025405  s :     0.025405
      pz      :    -0.000187  p :    -0.000599
      px      :    -0.000343
      py      :    -0.000070
 15 H s       :     0.025289  s :     0.025289
      pz      :    -0.000181  p :    -0.000599
      px      :    -0.000348
      py      :    -0.000071
 16 C s       :     0.000136  s :     0.000136
      pz      :     0.001039  p :     0.001531
      px      :     0.000318
      py      :     0.000174
      dz2     :    -0.000060  d :    -0.000508
      dxz     :     0.000159
      dyz     :    -0.000130
      dx2y2   :    -0.000400
      dxy     :    -0.000077
 17 H s       :     0.000132  s :     0.000132
      pz      :     0.000034  p :     0.000168
      px      :     0.000079
      py      :     0.000054
 18 H s       :     0.000125  s :     0.000125
      pz      :     0.000032  p :     0.000167
      px      :     0.000079
      py      :     0.000056
 19 C s       :    -0.000176  s :    -0.000176
      pz      :     0.000398  p :     0.000020
      px      :    -0.000064
      py      :    -0.000314
      dz2     :    -0.000004  d :     0.000112
      dxz     :     0.000015
      dyz     :     0.000113
      dx2y2   :     0.000008
      dxy     :    -0.000019
 20 H s       :     0.000211  s :     0.000211
      pz      :     0.000001  p :     0.000037
      px      :     0.000017
      py      :     0.000019
 21 H s       :     0.000211  s :     0.000211
      pz      :     0.000001  p :     0.000038
      px      :     0.000016
      py      :     0.000020
 22 C s       :    -0.001188  s :    -0.001188
      pz      :    -0.000285  p :    -0.005258
      px      :    -0.002194
      py      :    -0.002779
      dz2     :     0.000154  d :     0.008661
      dxz     :     0.004764
      dyz     :     0.003219
      dx2y2   :     0.000222
      dxy     :     0.000302
 23 H s       :     0.008230  s :     0.008230
      pz      :    -0.000077  p :    -0.000201
      px      :    -0.000148
      py      :     0.000025
 24 H s       :     0.008194  s :     0.008194
      pz      :    -0.000079  p :    -0.000201
      px      :    -0.000147
      py      :     0.000025
 25 C s       :     0.000037  s :     0.000037
      pz      :     0.000018  p :     0.000194
      px      :     0.000101
      py      :     0.000075
      dz2     :    -0.000015  d :    -0.000071
      dxz     :     0.000123
      dyz     :    -0.000026
      dx2y2   :    -0.000106
      dxy     :    -0.000047
 26 H s       :     0.000039  s :     0.000039
      pz      :     0.000007  p :     0.000020
      px      :     0.000011
      py      :     0.000003
 27 H s       :     0.000038  s :     0.000038
      pz      :     0.000007  p :     0.000020
      px      :     0.000010
      py      :     0.000003
 28 C s       :    -0.000048  s :    -0.000048
      pz      :     0.000177  p :     0.000064
      px      :    -0.000024
      py      :    -0.000088
      dz2     :    -0.000002  d :     0.000000
      dxz     :    -0.000002
      dyz     :     0.000012
      dx2y2   :    -0.000000
      dxy     :    -0.000007
 29 H s       :     0.000070  s :     0.000070
      pz      :     0.000001  p :     0.000020
      px      :     0.000006
      py      :     0.000013
 30 H s       :     0.000070  s :     0.000070
      pz      :     0.000001  p :     0.000019
      px      :     0.000006
      py      :     0.000013
 31 C s       :    -0.000009  s :    -0.000009
      pz      :    -0.000001  p :    -0.000046
      px      :    -0.000014
      py      :    -0.000032
      dz2     :    -0.000000  d :     0.000017
      dxz     :     0.000012
      dyz     :     0.000007
      dx2y2   :    -0.000003
      dxy     :     0.000001
 32 H s       :     0.000018  s :     0.000018
      pz      :    -0.000000  p :    -0.000002
      px      :    -0.000000
      py      :    -0.000001
 33 H s       :     0.000018  s :     0.000018
      pz      :    -0.000000  p :    -0.000002
      px      :    -0.000000
      py      :    -0.000001
 34 C s       :    -0.001243  s :    -0.001243
      pz      :    -0.033768  p :    -0.039470
      px      :    -0.000526
      py      :    -0.005177
      dz2     :     0.000142  d :     0.001299
      dxz     :     0.000769
      dyz     :     0.000000
      dx2y2   :     0.000149
      dxy     :     0.000239
 35 H s       :    -0.002636  s :    -0.002636
      pz      :     0.002129  p :     0.002755
      px      :     0.000412
      py      :     0.000214
 36 H s       :     0.001262  s :     0.001262
      pz      :    -0.000988  p :    -0.001327
      px      :    -0.000198
      py      :    -0.000140
 37 H s       :    -0.000132  s :    -0.000132
      pz      :     0.000032  p :     0.000020
      px      :     0.000003
      py      :    -0.000015
 38 H s       :    -0.000004  s :    -0.000004
      pz      :    -0.000000  p :    -0.000003
      px      :    -0.000001
      py      :    -0.000002


                      *****************************
                      * MAYER POPULATION ANALYSIS *
                      *****************************

  NA   - Mulliken gross atomic population
  ZA   - Total nuclear charge
  QA   - Mulliken gross atomic charge
  VA   - Mayer's total valence
  BVA  - Mayer's bonded valence
  FA   - Mayer's free valence

  ATOM       NA         ZA         QA         VA         BVA        FA
  0 C      6.6006     6.0000    -0.6006     3.3878     3.3809     0.0069
  1 C      5.3677     6.0000     0.6323     2.8670     2.8653     0.0016
  2 C      5.3747     6.0000     0.6253     2.8963     2.8959     0.0004
  3 C      6.0495     6.0000    -0.0495     3.7451     3.7097     0.0354
  4 C      5.9193     6.0000     0.0807     4.1148     4.1000     0.0148
  5 C      6.0118     6.0000    -0.0118     3.8601     3.8259     0.0341
  6 C      6.0228     6.0000    -0.0228     3.8143     3.8070     0.0073
  7 C      6.0767     6.0000    -0.0767     4.1247     4.0859     0.0388
  8 C      5.9737     6.0000     0.0263     3.8906     3.8824     0.0082
  9 H      1.0494     1.0000    -0.0494     1.0024     1.0023     0.0001
 10 H      1.0502     1.0000    -0.0502     1.0029     1.0029     0.0000
 11 C      6.0982     6.0000    -0.0982     3.9296     3.5554     0.3742
 12 H      1.0215     1.0000    -0.0215     1.0092     1.0080     0.0012
 13 C      5.9670     6.0000     0.0330     4.0104     4.0090     0.0015
 14 H      0.9706     1.0000     0.0294     0.9628     0.9616     0.0011
 15 H      0.9706     1.0000     0.0294     0.9627     0.9616     0.0011
 16 C      6.0382     6.0000    -0.0382     4.1312     4.1312     0.0000
 17 H      0.9870     1.0000     0.0130     0.9642     0.9642     0.0000
 18 H      0.9870     1.0000     0.0130     0.9641     0.9641     0.0000
 19 C      5.9939     6.0000     0.0061     4.0163     4.0163     0.0000
 20 H      0.9825     1.0000     0.0175     0.9775     0.9775     0.0000
 21 H      0.9825     1.0000     0.0175     0.9775     0.9775     0.0000
 22 C      5.9568     6.0000     0.0432     4.0289     4.0286     0.0002
 23 H      0.9680     1.0000     0.0320     0.9696     0.9695     0.0001
 24 H      0.9680     1.0000     0.0320     0.9697     0.9696     0.0001
 25 C      6.0362     6.0000    -0.0362     4.1149     4.1149     0.0000
 26 H      0.9833     1.0000     0.0167     0.9629     0.9629     0.0000
 27 H      0.9832     1.0000     0.0168     0.9629     0.9629     0.0000
 28 C      6.0240     6.0000    -0.0240     4.1176     4.1176     0.0000
 29 H      0.9940     1.0000     0.0060     0.9674     0.9674     0.0000
 30 H      0.9940     1.0000     0.0060     0.9674     0.9674     0.0000
 31 C      5.9962     6.0000     0.0038     4.0168     4.0168     0.0000
 32 H      0.9829     1.0000     0.0171     0.9773     0.9773     0.0000
 33 H      0.9829     1.0000     0.0171     0.9773     0.9773     0.0000
 34 C      6.6016     6.0000    -0.6016     3.3909     3.3894     0.0015
 35 H      1.0302     1.0000    -0.0302     1.0305     1.0304     0.0000
 36 H      1.0291     1.0000    -0.0291     1.0304     1.0304     0.0000
 37 H      0.9865     1.0000     0.0135     0.9733     0.9733     0.0000
 38 H      0.9874     1.0000     0.0126     0.9734     0.9734     0.0000

  Mayer bond orders larger than 0.100000
B(  0-C ,  1-C ) :   2.0989 B(  0-C , 35-H ) :   1.1197 B(  1-C ,  3-C ) :   0.9065 
B(  2-C ,  6-C ) :   0.9026 B(  2-C , 34-C ) :   2.1252 B(  3-C ,  4-C ) :   1.2770 
B(  3-C ,  8-C ) :   1.3953 B(  4-C ,  5-C ) :   1.2846 B(  4-C , 11-C ) :   1.3686 
B(  5-C ,  6-C ) :   1.4406 B(  5-C ,  9-H ) :   0.9200 B(  6-C ,  7-C ) :   1.3424 
B(  7-C ,  8-C ) :   1.4091 B(  7-C , 22-C ) :   1.0924 B(  8-C , 10-H ) :   0.9215 
B( 11-C , 12-H ) :   0.9028 B( 11-C , 13-C ) :   1.0837 B( 13-C , 14-H ) :   0.9117 
B( 13-C , 15-H ) :   0.9117 B( 13-C , 16-C ) :   1.0715 B( 16-C , 17-H ) :   0.9438 
B( 16-C , 18-H ) :   0.9437 B( 16-C , 19-C ) :   1.1065 B( 19-C , 20-H ) :   0.9653 
B( 19-C , 21-H ) :   0.9653 B( 19-C , 37-H ) :   0.9608 B( 22-C , 23-H ) :   0.8969 
B( 22-C , 24-H ) :   0.8969 B( 22-C , 25-C ) :   1.1035 B( 25-C , 26-H ) :   0.9294 
B( 25-C , 27-H ) :   0.9293 B( 25-C , 28-C ) :   1.0751 B( 28-C , 29-H ) :   0.9410 
B( 28-C , 30-H ) :   0.9410 B( 28-C , 31-C ) :   1.1060 B( 31-C , 32-H ) :   0.9662 
B( 31-C , 33-H ) :   0.9662 B( 31-C , 38-H ) :   0.9617 B( 34-C , 36-H ) :   1.1185 


-------
TIMINGS
-------

Total SCF time: 0 days 0 hours 0 min 36 sec 

Total time                  ....      36.940 sec
Sum of individual times     ....      34.334 sec  ( 92.9%)

Fock matrix formation       ....      30.410 sec  ( 82.3%)
  Split-RI-J                ....       2.405 sec  (  7.9% of F)
  Chain of spheres X        ....      18.830 sec  ( 61.9% of F)
  XC integration            ....       7.018 sec  ( 23.1% of F)
    Basis function eval.    ....       0.592 sec  (  8.4% of XC)
    Density eval.           ....       0.659 sec  (  9.4% of XC)
    XC-Functional eval.     ....       0.156 sec  (  2.2% of XC)
    XC-Potential eval.      ....       0.380 sec  (  5.4% of XC)
Diagonalization             ....       0.521 sec  (  1.4%)
Density matrix formation    ....       0.054 sec  (  0.1%)
Population analysis         ....       0.266 sec  (  0.7%)
Initial guess               ....       0.104 sec  (  0.3%)
Orbital Transformation      ....       0.000 sec  (  0.0%)
Orbital Orthonormalization  ....       0.079 sec  (  0.2%)
DIIS solution               ....       0.303 sec  (  0.8%)
Grid generation             ....       2.676 sec  (  7.2%)

Maximum memory used throughout the entire SCF-calculation: 95.0 MB

-------------------------   --------------------
FINAL SINGLE POINT ENERGY      -697.967712589011
-------------------------   --------------------

                                *** OPTIMIZATION RUN DONE ***

                            ***************************************
                            *     ORCA property calculations      *
                            ***************************************

                                    ---------------------
                                    Active property flags
                                    ---------------------
   (+) Dipole Moment


------------------------------------------------------------------------------
                       ORCA ELECTRIC PROPERTIES CALCULATION
------------------------------------------------------------------------------

Dipole Moment Calculation                       ... on
Quadrupole Moment Calculation                   ... off
Polarizability Calculation                      ... off
GBWName                                         ... opt_cc-pVDZ.gbw
Electron density                                ... opt_cc-pVDZ.scfp
The origin for moment calculation is the CENTER OF MASS  = (-0.072841, -0.015413  0.017371)

-------------
DIPOLE MOMENT
-------------
                                X             Y             Z
Electronic contribution:      0.61384       2.29010       0.00065
Nuclear contribution   :     -0.70353      -2.24924       0.00006
                        -----------------------------------------
Total Dipole Moment    :     -0.08968       0.04086       0.00072
                        -----------------------------------------
Magnitude (a.u.)       :      0.09856
Magnitude (Debye)      :      0.25051



--------------------
Rotational spectrum 
--------------------
 
Rotational constants in cm-1:     0.022570     0.005963     0.004746 
Rotational constants in MHz :   676.637009   178.773730   142.287384 

 Dipole components along the rotational axes: 
x,y,z [a.u.] :    -0.014468    -0.097472     0.001781 
x,y,z [Debye]:    -0.036775    -0.247755     0.004527 

 

Timings for individual modules:

Sum of individual times         ...      157.098 sec (=   2.618 min)
GTO integral calculation        ...        6.302 sec (=   0.105 min)   4.0 %
SCF iterations                  ...      135.713 sec (=   2.262 min)  86.4 %
SCF Gradient evaluation         ...       14.100 sec (=   0.235 min)   9.0 %
Geometry relaxation             ...        0.983 sec (=   0.016 min)   0.6 %
                             ****ORCA TERMINATED NORMALLY****
TOTAL RUN TIME: 0 days 0 hours 2 minutes 41 seconds 363 msec
