
                                 *****************
                                 * O   R   C   A *
                                 *****************

                                            #,                                       
                                            ###                                      
                                            ####                                     
                                            #####                                    
                                            ######                                   
                                           ########,                                 
                                     ,,################,,,,,                         
                               ,,#################################,,                 
                          ,,##########################################,,             
                       ,#########################################, ''#####,          
                    ,#############################################,,   '####,        
                  ,##################################################,,,,####,       
                ,###########''''           ''''###############################       
              ,#####''   ,,,,##########,,,,          '''####'''          '####       
            ,##' ,,,,###########################,,,                        '##       
           ' ,,###''''                  '''############,,,                           
         ,,##''                                '''############,,,,        ,,,,,,###''
      ,#''                                            '''#######################'''  
     '                                                          ''''####''''         
             ,#######,   #######,   ,#######,      ##                                
            ,#'     '#,  ##    ##  ,#'     '#,    #''#        ######   ,####,        
            ##       ##  ##   ,#'  ##            #'  '#       #        #'  '#        
            ##       ##  #######   ##           ,######,      #####,   #    #        
            '#,     ,#'  ##    ##  '#,     ,#' ,#      #,         ##   #,  ,#        
             '#######'   ##     ##  '#######'  #'      '#     #####' # '####'        



                  #######################################################
                  #                        -***-                        #
                  #          Department of theory and spectroscopy      #
                  #    Directorship and core code : Frank Neese         #
                  #        Max Planck Institute fuer Kohlenforschung    #
                  #                Kaiser Wilhelm Platz 1               #
                  #                 D-45470 Muelheim/Ruhr               #
                  #                      Germany                        #
                  #                                                     #
                  #                  All rights reserved                #
                  #                        -***-                        #
                  #######################################################


                         Program Version 5.0.4 -  RELEASE  -


 With contributions from (in alphabetic order):
   Daniel Aravena         : Magnetic Suceptibility
   Michael Atanasov       : Ab Initio Ligand Field Theory (pilot matlab implementation)
   Alexander A. Auer      : GIAO ZORA, VPT2 properties, NMR spectrum
   Ute Becker             : Parallelization
   Giovanni Bistoni       : ED, misc. LED, open-shell LED, HFLD
   Martin Brehm           : Molecular dynamics
   Dmytro Bykov           : SCF Hessian
   Vijay G. Chilkuri      : MRCI spin determinant printing, contributions to CSF-ICE
   Dipayan Datta          : RHF DLPNO-CCSD density
   Achintya Kumar Dutta   : EOM-CC, STEOM-CC
   Dmitry Ganyushin       : Spin-Orbit,Spin-Spin,Magnetic field MRCI
   Miquel Garcia          : C-PCM and meta-GGA Hessian, CC/C-PCM, Gaussian charge scheme
   Yang Guo               : DLPNO-NEVPT2, F12-NEVPT2, CIM, IAO-localization
   Andreas Hansen         : Spin unrestricted coupled pair/coupled cluster methods
   Benjamin Helmich-Paris : MC-RPA, TRAH-SCF, COSX integrals
   Lee Huntington         : MR-EOM, pCC
   Robert Izsak           : Overlap fitted RIJCOSX, COSX-SCS-MP3, EOM
   Marcus Kettner         : VPT2
   Christian Kollmar      : KDIIS, OOCD, Brueckner-CCSD(T), CCSD density, CASPT2, CASPT2-K
   Simone Kossmann        : Meta GGA functionals, TD-DFT gradient, OOMP2, MP2 Hessian
   Martin Krupicka        : Initial AUTO-CI
   Lucas Lang             : DCDCAS
   Marvin Lechner         : AUTO-CI (C++ implementation), FIC-MRCC
   Dagmar Lenk            : GEPOL surface, SMD
   Dimitrios Liakos       : Extrapolation schemes; Compound Job, initial MDCI parallelization
   Dimitrios Manganas     : Further ROCIS development; embedding schemes
   Dimitrios Pantazis     : SARC Basis sets
   Anastasios Papadopoulos: AUTO-CI, single reference methods and gradients
   Taras Petrenko         : DFT Hessian,TD-DFT gradient, ASA, ECA, R-Raman, ABS, FL, XAS/XES, NRVS
   Peter Pinski           : DLPNO-MP2, DLPNO-MP2 Gradient
   Christoph Reimann      : Effective Core Potentials
   Marius Retegan         : Local ZFS, SOC
   Christoph Riplinger    : Optimizer, TS searches, QM/MM, DLPNO-CCSD(T), (RO)-DLPNO pert. Triples
   Tobias Risthaus        : Range-separated hybrids, TD-DFT gradient, RPA, STAB
   Michael Roemelt        : Original ROCIS implementation
   Masaaki Saitow         : Open-shell DLPNO-CCSD energy and density
   Barbara Sandhoefer     : DKH picture change effects
   Avijit Sen             : IP-ROCIS
   Kantharuban Sivalingam : CASSCF convergence, NEVPT2, FIC-MRCI
   Bernardo de Souza      : ESD, SOC TD-DFT
   Georgi Stoychev        : AutoAux, RI-MP2 NMR, DLPNO-MP2 response
   Willem Van den Heuvel  : Paramagnetic NMR
   Boris Wezisla          : Elementary symmetry handling
   Frank Wennmohs         : Technical directorship


 We gratefully acknowledge several colleagues who have allowed us to
 interface, adapt or use parts of their codes:
   Stefan Grimme, W. Hujo, H. Kruse, P. Pracht,  : VdW corrections, initial TS optimization,
                  C. Bannwarth, S. Ehlert          DFT functionals, gCP, sTDA/sTD-DF
   Ed Valeev, F. Pavosevic, A. Kumar             : LibInt (2-el integral package), F12 methods
   Garnet Chan, S. Sharma, J. Yang, R. Olivares  : DMRG
   Ulf Ekstrom                                   : XCFun DFT Library
   Mihaly Kallay                                 : mrcc  (arbitrary order and MRCC methods)
   Jiri Pittner, Ondrej Demel                    : Mk-CCSD
   Frank Weinhold                                : gennbo (NPA and NBO analysis)
   Christopher J. Cramer and Donald G. Truhlar   : smd solvation model
   Lars Goerigk                                  : TD-DFT with DH, B97 family of functionals
   V. Asgeirsson, H. Jonsson                     : NEB implementation
   FAccTs GmbH                                   : IRC, NEB, NEB-TS, DLPNO-Multilevel, CI-OPT
                                                   MM, QMMM, 2- and 3-layer-ONIOM, Crystal-QMMM,
                                                   LR-CPCM, SF, NACMEs, symmetry and pop. for TD-DFT,
                                                   nearIR, NL-DFT gradient (VV10), updates on ESD,
                                                   ML-optimized integration grids
   S Lehtola, MJT Oliveira, MAL Marques          : LibXC Library
   Liviu Ungur et al                             : ANISO software


 Your calculation uses the libint2 library for the computation of 2-el integrals
 For citations please refer to: http://libint.valeyev.net

 Your ORCA version has been built with support for libXC version: 5.1.0
 For citations please refer to: https://tddft.org/programs/libxc/

 This ORCA versions uses:
   CBLAS   interface :  Fast vector & matrix operations
   LAPACKE interface :  Fast linear algebra routines
   SCALAPACK package :  Parallel linear algebra routines
   Shared memory     :  Shared parallel matrices
   BLAS/LAPACK       :  OpenBLAS 0.3.15  USE64BITINT DYNAMIC_ARCH NO_AFFINITY SkylakeX SINGLE_THREADED
        Core in use  :  SkylakeX
   Copyright (c) 2011-2014, The OpenBLAS Project




***************************************
The coordinates will be read from file: opt_cc-pVDZ.xyz
***************************************


================================================================================

----- Orbital basis set information -----
Your calculation utilizes the basis: cc-pVDZ 
       H, B-Ne : Obtained from the ccRepo (grant-hill.group.shef.ac.uk/ccrepo) Feb. 2017
                 T. H. Dunning, Jr., J. Chem. Phys. 90, 1007 (1989)
            He : Obtained from the ccRepo (grant-hill.group.shef.ac.uk/ccrepo) Feb. 2017
                 D. E. Woon, T. H. Dunning, Jr., J. Chem. Phys. 100, 2975 (1994)
  Li-Be, Na-Mg : Obtained from the ccRepo (grant-hill.group.shef.ac.uk/ccrepo) Feb. 2017
                 B. P. Prascher, D. E. Woon, K. A. Peterson, T. H. Dunning, Jr., A. K. Wilson, Theor. Chem. Acc. 128, 69 (2011)
         Al-Ar : Obtained from the ccRepo (grant-hill.group.shef.ac.uk/ccrepo) Feb. 2017
                 D. E. Woon, T. H. Dunning, Jr., J. Chem. Phys. 98, 1358 (1993)
            Ca : Obtained from the Peterson Research Group Website (tyr0.chem.wsu.edu/~kipeters) Feb. 2017
                 J. Koput, K. A. Peterson, J. Phys. Chem. 106, 9595 (2002)
         Sc-Zn : Obtained from the ccRepo (grant-hill.group.shef.ac.uk/ccrepo) Feb. 2017
                 N. B. Balabanov, K. A. Peterson, J. Chem. Phys. 123, 064107 (2005)
                 N. B. Balabanov, K. A. Peterson, J. Chem. Phys. 125, 074110 (2006)
         Ga-Kr : Obtained from the ccRepo (grant-hill.group.shef.ac.uk/ccrepo) Feb. 2017
                 A. K. Wilson, D. E. Woon, K. A. Peterson, T. H. Dunning, Jr., J. Chem. Phys. 110, 7667 (1999)

----- AuxJ basis set information -----
Your calculation utilizes the AutoAux generation procedure.
  G. L. Stoychev, A. A. Auer, F. Neese, J. Chem. Theory Comput. 13, 554 (2017)

----- AuxC basis set information -----
Your calculation utilizes the AutoAux generation procedure.
  G. L. Stoychev, A. A. Auer, F. Neese, J. Chem. Theory Comput. 13, 554 (2017)

----- AuxJK basis set information -----
Your calculation utilizes the AutoAux generation procedure.
  G. L. Stoychev, A. A. Auer, F. Neese, J. Chem. Theory Comput. 13, 554 (2017)

================================================================================
                                        WARNINGS
                       Please study these warnings very carefully!
================================================================================

WARNING: Old DensityContainer found on disk!
         Will remove this file - 
         If you want to keep old densities, please start your calculation with a different basename. 


WARNING: your system is open-shell and RHF/RKS was chosen
  ===> : WILL SWITCH to UHF/UKS


INFO   : the flag for use of the SHARK integral package has been found!

================================================================================
                                       INPUT FILE
================================================================================
NAME = cc-pVDZ.inp
|  1> ! B3LYP cc-pVDZ AUTOAUX
|  2> %pal nprocs 16 end
|  3> *XYZFile 0 2 opt_cc-pVDZ.xyz
|  4> %EPRNMR
|  5>         GTENSOR   TRUE
|  6>         NUCLEI    = ALL H {SHIFT, AISO, ADIP, AORB}
|  7>         ORI       CenterOfElCharge
|  8> END
|  9> 
| 10>                          ****END OF INPUT****
================================================================================

                       ****************************
                       * Single Point Calculation *
                       ****************************

---------------------------------
CARTESIAN COORDINATES (ANGSTROEM)
---------------------------------
  C     -2.775454    0.046275   -0.011726
  C      2.820068    0.009333   -0.009158
  C     -1.416146   -0.010335   -0.011342
  C     -0.684837   -1.267641   -0.014396
  C      0.690339   -1.196565   -0.013408
  C      1.406827    0.035857   -0.009714
  C      0.687718    1.279494   -0.006700
  C     -0.690447    1.243934   -0.007612
  H      1.276950   -2.115896   -0.015553
  H     -1.268546    2.167020   -0.005471
  C     -1.481022   -2.556034   -0.018581
  H     -2.154921   -2.540923   -0.897144
  H     -2.157653   -2.544895    0.857940
  C     -0.681530   -3.861383   -0.020319
  H     -0.018124   -3.891105   -0.904067
  H     -0.020937   -3.895116    0.865395
  C     -1.579795   -5.104335   -0.024627
  H     -2.246941   -5.074228    0.856665
  H     -2.243926   -5.070281   -0.908053
  C     -0.790484   -6.415794   -0.026231
  H     -0.143479   -6.495089    0.864444
  H     -0.139948   -6.490764   -0.914705
  C      1.466081    2.581276   -0.002730
  H      2.141262    2.571205    0.872678
  H      2.142868    2.575547   -0.876932
  C      0.653453    3.878247   -0.000274
  H     -0.008242    3.909004   -0.885502
  H     -0.010013    3.904631    0.883765
  C      1.541182    5.128985    0.003735
  H      2.206071    5.100030    0.886928
  H      2.208047    5.104274   -0.878097
  C      0.742021    6.434527    0.005993
  H      0.091320    6.504280    0.894721
  H      0.093798    6.508891   -0.884172
  C      4.045944   -0.034404   -0.010004
  H     -1.461297   -7.290069   -0.029689
  H      1.405900    7.314173    0.009201
  C      5.469023   -0.089649   -0.009731
  C      6.140681   -1.333721   -0.012315
  C      7.533655   -1.383691   -0.012033
  C      8.284442   -0.202048   -0.009208
  C      7.630240    1.035744   -0.006660
  C      6.237715    1.096870   -0.006921
  H      9.376025   -0.245728   -0.009002
  H      8.211088    1.961246   -0.004455
  H      5.553377   -2.253884   -0.014518
  H      5.725928    2.061099   -0.004950
  H      8.038991   -2.352498   -0.014040

----------------------------
CARTESIAN COORDINATES (A.U.)
----------------------------
  NO LB      ZA    FRAG     MASS         X           Y           Z
   0 C     6.0000    0    12.011   -5.244849    0.087447   -0.022159
   1 C     6.0000    0    12.011    5.329157    0.017637   -0.017306
   2 C     6.0000    0    12.011   -2.676128   -0.019530   -0.021433
   3 C     6.0000    0    12.011   -1.294154   -2.395495   -0.027204
   4 C     6.0000    0    12.011    1.304552   -2.261179   -0.025337
   5 C     6.0000    0    12.011    2.658517    0.067760   -0.018356
   6 C     6.0000    0    12.011    1.299599    2.417893   -0.012661
   7 C     6.0000    0    12.011   -1.304756    2.350694   -0.014385
   8 H     1.0000    0     1.008    2.413086   -3.998464   -0.029391
   9 H     1.0000    0     1.008   -2.397205    4.095074   -0.010339
  10 C     6.0000    0    12.011   -2.798726   -4.830204   -0.035114
  11 H     1.0000    0     1.008   -4.072210   -4.801648   -1.695357
  12 H     1.0000    0     1.008   -4.077374   -4.809155    1.621271
  13 C     6.0000    0    12.011   -1.287905   -7.296957   -0.038397
  14 H     1.0000    0     1.008   -0.034249   -7.353124   -1.708439
  15 H     1.0000    0     1.008   -0.039564   -7.360702    1.635360
  16 C     6.0000    0    12.011   -2.985379   -9.645795   -0.046539
  17 H     1.0000    0     1.008   -4.246103   -9.588900    1.618861
  18 H     1.0000    0     1.008   -4.240405   -9.581443   -1.715971
  19 C     6.0000    0    12.011   -1.493798  -12.124093   -0.049569
  20 H     1.0000    0     1.008   -0.271135  -12.273939    1.633562
  21 H     1.0000    0     1.008   -0.264464  -12.265767   -1.728543
  22 C     6.0000    0    12.011    2.770491    4.877904   -0.005159
  23 H     1.0000    0     1.008    4.046400    4.858874    1.649123
  24 H     1.0000    0     1.008    4.049433    4.867079   -1.657162
  25 C     6.0000    0    12.011    1.234847    7.328825   -0.000519
  26 H     1.0000    0     1.008   -0.015574    7.386947   -1.673356
  27 H     1.0000    0     1.008   -0.018921    7.378683    1.670073
  28 C     6.0000    0    12.011    2.912413    9.692377    0.007057
  29 H     1.0000    0     1.008    4.168870    9.637660    1.676052
  30 H     1.0000    0     1.008    4.172604    9.645679   -1.659362
  31 C     6.0000    0    12.011    1.402217   12.159495    0.011325
  32 H     1.0000    0     1.008    0.172570   12.291308    1.690779
  33 H     1.0000    0     1.008    0.177253   12.300022   -1.670842
  34 C     6.0000    0    12.011    7.645725   -0.065015   -0.018905
  35 H     1.0000    0     1.008   -2.761452  -13.776235   -0.056104
  36 H     1.0000    0     1.008    2.656766   13.821784    0.017388
  37 C     6.0000    0    12.011   10.334955   -0.169412   -0.018390
  38 C     6.0000    0    12.011   11.604205   -2.520368   -0.023272
  39 C     6.0000    0    12.011   14.236544   -2.614797   -0.022738
  40 C     6.0000    0    12.011   15.655326   -0.381815   -0.017401
  41 C     6.0000    0    12.011   14.419063    1.957272   -0.012586
  42 C     6.0000    0    12.011   11.787572    2.072785   -0.013079
  43 H     1.0000    0     1.008   17.718119   -0.464358   -0.017012
  44 H     1.0000    0     1.008   15.516708    3.706217   -0.008420
  45 H     1.0000    0     1.008   10.494362   -4.259224   -0.027434
  46 H     1.0000    0     1.008   10.820436    3.894913   -0.009354
  47 H     1.0000    0     1.008   15.191491   -4.445577   -0.026531

--------------------------------
INTERNAL COORDINATES (ANGSTROEM)
--------------------------------
 C      0   0   0     0.000000000000     0.00000000     0.00000000
 C      1   0   0     5.595645497198     0.00000000     0.00000000
 C      1   2   0     1.360486785524     2.00651829     0.00000000
 C      3   1   2     1.454524675047   122.56894762   179.86421554
 C      4   3   1     1.377011967528   117.22541411   180.01206146
 C      2   1   3     1.413490889473     0.69695181   180.02210732
 C      6   2   5     1.436578949393   121.11286400   180.00340177
 C      7   6   2     1.378624275765   118.55957644   179.99026036
 H      5   4   3     1.090544611794   119.58241682   179.99648119
 H      8   7   6     1.089170136548   120.57936298   180.00428524
 C      4   3   1     1.514557120161   118.10114505     0.00000000
 H     11   4   3     1.107357744491   108.08935670    56.53676791
 H     11   4   3     1.107358792222   108.08743334   303.58185246
 C     11   4   3     1.530727810188   116.79897886   180.05896216
 H     14  11   4     1.105442201677   109.71120506   301.77338004
 H     14  11   4     1.105445994801   109.70797536    58.22932017
 C     14  11   4     1.533566405308   112.65859385   180.00274474
 H     17  14  11     1.105742319708   109.21380235   302.33012576
 H     17  14  11     1.105744026707   109.21342349    57.68512109
 C     17  14  11     1.530665984617   113.10300527   180.00667363
 H     20  17  14     1.103722947518   111.28413855    59.89961112
 H     20  17  14     1.103722756310   111.28298180   300.13977082
 C      7   6   2     1.516740098141   119.08630474     0.00000000
 H     23   7   6     1.105581755108   107.91801826   303.71064889
 H     23   7   6     1.105578033397   107.91648719    56.23700354
 C     23   7   6     1.530524397294   117.05452406   179.97250251
 H     26  23   7     1.105628142138   109.87988195   301.69446692
 H     26  23   7     1.105625634433   109.88394078    58.29984124
 C     26  23   7     1.533761505738   112.56483745   179.99746871
 H     29  26  23     1.105869251512   109.19151458   302.31949005
 H     29  26  23     1.105868457506   109.19102129    57.66084130
 C     29  26  23     1.530720157192   113.16231482   179.99056907
 H     32  29  26     1.103682851362   111.27815298    59.84704571
 H     32  29  26     1.103683133849   111.27895782   300.11532171
 C      2   1   3     1.226655448494   178.33360561     1.97489809
 H     20  17  14     1.101980542813   111.45986657   180.02018158
 H     32  29  26     1.102053529558   111.48583986   179.98074486
 C     35   2   6     1.424151175651   179.81326215   340.64993652
 C     38  35   2     1.413805822928   120.58708571    15.81259943
 C     39  38  35     1.393869854679   120.41840555   180.00030677
 C     40  39  38     1.399988796120   120.37636680     0.00000000
 C     41  40  39     1.400040956450   119.71173957     0.00000000
 C     42  41  40     1.393866000519   120.37089624     0.00000000
 H     41  40  39     1.092456765387   120.13935430   180.00032679
 H     42  41  40     1.092677449178   120.03006899   180.00033695
 H     39  38  35     1.091618117806   119.08761946     0.00000000
 H     43  42  41     1.091634986704   120.47153246   180.00080068
 H     40  39  38     1.092682883143   119.60119675   179.99939605

---------------------------
INTERNAL COORDINATES (A.U.)
---------------------------
 C      0   0   0     0.000000000000     0.00000000     0.00000000
 C      1   0   0    10.574237532214     0.00000000     0.00000000
 C      1   2   0     2.570947433459     2.00651829     0.00000000
 C      3   1   2     2.748653290870   122.56894762   179.86421554
 C      4   3   1     2.602175501760   117.22541411   180.01206146
 C      2   1   3     2.671110673897     0.69695181   180.02210732
 C      6   2   5     2.714740784108   121.11286400   180.00340177
 C      7   6   2     2.605222322772   118.55957644   179.99026036
 H      5   4   3     2.060830653115   119.58241682   179.99648119
 H      8   7   6     2.058233271322   120.57936298   180.00428524
 C      4   3   1     2.862098171285   118.10114505     0.00000000
 H     11   4   3     2.092602869365   108.08935670    56.53676791
 H     11   4   3     2.092604849290   108.08743334   303.58185246
 C     11   4   3     2.892656346831   116.79897886   180.05896216
 H     14  11   4     2.088983018048   109.71120506   301.77338004
 H     14  11   4     2.088990186013   109.70797536    58.22932017
 C     14  11   4     2.898020514215   112.65859385   180.00274474
 H     17  14  11     2.089550158934   109.21380235   302.33012576
 H     17  14  11     2.089553384696   109.21342349    57.68512109
 C     17  14  11     2.892539513436   113.10300527   180.00667363
 H     20  17  14     2.085734098533   111.28413855    59.89961112
 H     20  17  14     2.085733737203   111.28298180   300.13977082
 C      7   6   2     2.866223401823   119.08630474     0.00000000
 H     23   7   6     2.089246735814   107.91801826   303.71064889
 H     23   7   6     2.089239702800   107.91648719    56.23700354
 C     23   7   6     2.892271952170   117.05452406   179.97250251
 H     26  23   7     2.089334394597   109.87988195   301.69446692
 H     26  23   7     2.089329655722   109.88394078    58.29984124
 C     26  23   7     2.898389200595   112.56483745   179.99746871
 H     29  26  23     2.089790025281   109.19151458   302.31949005
 H     29  26  23     2.089788524828   109.19102129    57.66084130
 C     29  26  23     2.892641884766   113.16231482   179.99056907
 H     32  29  26     2.085658327779   111.27815298    59.84704571
 H     32  29  26     2.085658861603   111.27895782   300.11532171
 C      2   1   3     2.318042858337   178.33360561     1.97489809
 H     20  17  14     2.082441430826   111.45986657   180.02018158
 H     32  29  26     2.082579355786   111.48583986   179.98074486
 C     35   2   6     2.691255695283   179.81326215   340.64993652
 C     38  35   2     2.671705811878   120.58708571    15.81259943
 C     39  38  35     2.634032291673   120.41840555   180.00030677
 C     40  39  38     2.645595415224   120.37636680     0.00000000
 C     41  40  39     2.645693983963   119.71173957     0.00000000
 C     42  41  40     2.634025008365   120.37089624     0.00000000
 H     41  40  39     2.064444099731   120.13935430   180.00032679
 H     42  41  40     2.064861131659   120.03006899   180.00033695
 H     39  38  35     2.062859285480   119.08761946     0.00000000
 H     43  42  41     2.062891163077   120.47153246   180.00080068
 H     40  39  38     2.064871400364   119.60119675   179.99939605

---------------------
BASIS SET INFORMATION
---------------------
There are 2 groups of distinct atoms

 Group   1 Type C   : 17s4p1d contracted to 3s2p1d pattern {881/31/1}
 Group   2 Type H   : 4s1p contracted to 2s1p pattern {31/1}

Atom   0C    basis set group =>   1
Atom   1C    basis set group =>   1
Atom   2C    basis set group =>   1
Atom   3C    basis set group =>   1
Atom   4C    basis set group =>   1
Atom   5C    basis set group =>   1
Atom   6C    basis set group =>   1
Atom   7C    basis set group =>   1
Atom   8H    basis set group =>   2
Atom   9H    basis set group =>   2
Atom  10C    basis set group =>   1
Atom  11H    basis set group =>   2
Atom  12H    basis set group =>   2
Atom  13C    basis set group =>   1
Atom  14H    basis set group =>   2
Atom  15H    basis set group =>   2
Atom  16C    basis set group =>   1
Atom  17H    basis set group =>   2
Atom  18H    basis set group =>   2
Atom  19C    basis set group =>   1
Atom  20H    basis set group =>   2
Atom  21H    basis set group =>   2
Atom  22C    basis set group =>   1
Atom  23H    basis set group =>   2
Atom  24H    basis set group =>   2
Atom  25C    basis set group =>   1
Atom  26H    basis set group =>   2
Atom  27H    basis set group =>   2
Atom  28C    basis set group =>   1
Atom  29H    basis set group =>   2
Atom  30H    basis set group =>   2
Atom  31C    basis set group =>   1
Atom  32H    basis set group =>   2
Atom  33H    basis set group =>   2
Atom  34C    basis set group =>   1
Atom  35H    basis set group =>   2
Atom  36H    basis set group =>   2
Atom  37C    basis set group =>   1
Atom  38C    basis set group =>   1
Atom  39C    basis set group =>   1
Atom  40C    basis set group =>   1
Atom  41C    basis set group =>   1
Atom  42C    basis set group =>   1
Atom  43H    basis set group =>   2
Atom  44H    basis set group =>   2
Atom  45H    basis set group =>   2
Atom  46H    basis set group =>   2
Atom  47H    basis set group =>   2
---------------------------------
AUXILIARY/J BASIS SET INFORMATION
---------------------------------
There are 2 groups of distinct atoms

 Group   1 Type C   : 14s11p10d2f contracted to 14s11p10d2f pattern {11111111111111/11111111111/1111111111/11}
 Group   2 Type H   : 9s2p1d contracted to 9s2p1d pattern {111111111/11/1}

Atom   0C    basis set group =>   1
Atom   1C    basis set group =>   1
Atom   2C    basis set group =>   1
Atom   3C    basis set group =>   1
Atom   4C    basis set group =>   1
Atom   5C    basis set group =>   1
Atom   6C    basis set group =>   1
Atom   7C    basis set group =>   1
Atom   8H    basis set group =>   2
Atom   9H    basis set group =>   2
Atom  10C    basis set group =>   1
Atom  11H    basis set group =>   2
Atom  12H    basis set group =>   2
Atom  13C    basis set group =>   1
Atom  14H    basis set group =>   2
Atom  15H    basis set group =>   2
Atom  16C    basis set group =>   1
Atom  17H    basis set group =>   2
Atom  18H    basis set group =>   2
Atom  19C    basis set group =>   1
Atom  20H    basis set group =>   2
Atom  21H    basis set group =>   2
Atom  22C    basis set group =>   1
Atom  23H    basis set group =>   2
Atom  24H    basis set group =>   2
Atom  25C    basis set group =>   1
Atom  26H    basis set group =>   2
Atom  27H    basis set group =>   2
Atom  28C    basis set group =>   1
Atom  29H    basis set group =>   2
Atom  30H    basis set group =>   2
Atom  31C    basis set group =>   1
Atom  32H    basis set group =>   2
Atom  33H    basis set group =>   2
Atom  34C    basis set group =>   1
Atom  35H    basis set group =>   2
Atom  36H    basis set group =>   2
Atom  37C    basis set group =>   1
Atom  38C    basis set group =>   1
Atom  39C    basis set group =>   1
Atom  40C    basis set group =>   1
Atom  41C    basis set group =>   1
Atom  42C    basis set group =>   1
Atom  43H    basis set group =>   2
Atom  44H    basis set group =>   2
Atom  45H    basis set group =>   2
Atom  46H    basis set group =>   2
Atom  47H    basis set group =>   2
---------------------------------
AUXILIARY/C BASIS SET INFORMATION
---------------------------------
There are 2 groups of distinct atoms

 Group   1 Type C   : 14s11p10d2f contracted to 14s11p10d2f pattern {11111111111111/11111111111/1111111111/11}
 Group   2 Type H   : 9s2p1d contracted to 9s2p1d pattern {111111111/11/1}

Atom   0C    basis set group =>   1
Atom   1C    basis set group =>   1
Atom   2C    basis set group =>   1
Atom   3C    basis set group =>   1
Atom   4C    basis set group =>   1
Atom   5C    basis set group =>   1
Atom   6C    basis set group =>   1
Atom   7C    basis set group =>   1
Atom   8H    basis set group =>   2
Atom   9H    basis set group =>   2
Atom  10C    basis set group =>   1
Atom  11H    basis set group =>   2
Atom  12H    basis set group =>   2
Atom  13C    basis set group =>   1
Atom  14H    basis set group =>   2
Atom  15H    basis set group =>   2
Atom  16C    basis set group =>   1
Atom  17H    basis set group =>   2
Atom  18H    basis set group =>   2
Atom  19C    basis set group =>   1
Atom  20H    basis set group =>   2
Atom  21H    basis set group =>   2
Atom  22C    basis set group =>   1
Atom  23H    basis set group =>   2
Atom  24H    basis set group =>   2
Atom  25C    basis set group =>   1
Atom  26H    basis set group =>   2
Atom  27H    basis set group =>   2
Atom  28C    basis set group =>   1
Atom  29H    basis set group =>   2
Atom  30H    basis set group =>   2
Atom  31C    basis set group =>   1
Atom  32H    basis set group =>   2
Atom  33H    basis set group =>   2
Atom  34C    basis set group =>   1
Atom  35H    basis set group =>   2
Atom  36H    basis set group =>   2
Atom  37C    basis set group =>   1
Atom  38C    basis set group =>   1
Atom  39C    basis set group =>   1
Atom  40C    basis set group =>   1
Atom  41C    basis set group =>   1
Atom  42C    basis set group =>   1
Atom  43H    basis set group =>   2
Atom  44H    basis set group =>   2
Atom  45H    basis set group =>   2
Atom  46H    basis set group =>   2
Atom  47H    basis set group =>   2
----------------------------------
AUXILIARY/JK BASIS SET INFORMATION
----------------------------------
There are 2 groups of distinct atoms

 Group   1 Type C   : 14s11p10d2f contracted to 14s11p10d2f pattern {11111111111111/11111111111/1111111111/11}
 Group   2 Type H   : 9s2p1d contracted to 9s2p1d pattern {111111111/11/1}

Atom   0C    basis set group =>   1
Atom   1C    basis set group =>   1
Atom   2C    basis set group =>   1
Atom   3C    basis set group =>   1
Atom   4C    basis set group =>   1
Atom   5C    basis set group =>   1
Atom   6C    basis set group =>   1
Atom   7C    basis set group =>   1
Atom   8H    basis set group =>   2
Atom   9H    basis set group =>   2
Atom  10C    basis set group =>   1
Atom  11H    basis set group =>   2
Atom  12H    basis set group =>   2
Atom  13C    basis set group =>   1
Atom  14H    basis set group =>   2
Atom  15H    basis set group =>   2
Atom  16C    basis set group =>   1
Atom  17H    basis set group =>   2
Atom  18H    basis set group =>   2
Atom  19C    basis set group =>   1
Atom  20H    basis set group =>   2
Atom  21H    basis set group =>   2
Atom  22C    basis set group =>   1
Atom  23H    basis set group =>   2
Atom  24H    basis set group =>   2
Atom  25C    basis set group =>   1
Atom  26H    basis set group =>   2
Atom  27H    basis set group =>   2
Atom  28C    basis set group =>   1
Atom  29H    basis set group =>   2
Atom  30H    basis set group =>   2
Atom  31C    basis set group =>   1
Atom  32H    basis set group =>   2
Atom  33H    basis set group =>   2
Atom  34C    basis set group =>   1
Atom  35H    basis set group =>   2
Atom  36H    basis set group =>   2
Atom  37C    basis set group =>   1
Atom  38C    basis set group =>   1
Atom  39C    basis set group =>   1
Atom  40C    basis set group =>   1
Atom  41C    basis set group =>   1
Atom  42C    basis set group =>   1
Atom  43H    basis set group =>   2
Atom  44H    basis set group =>   2
Atom  45H    basis set group =>   2
Atom  46H    basis set group =>   2
Atom  47H    basis set group =>   2

Checking for AutoStart:
The File: cc-pVDZ.gbw exists
Trying to determine its content:
     ... Fine, the file contains calculation information
     ... Fine, the calculation information was read
     ... Fine, the file contains a basis set
     ... Fine, the basis set was read
     ... Fine, the file contains a geometry
     ... Fine, the geometry was read
     ... Fine, the file contains a set of orbitals
     ... Fine, the orbitals can be read
     => possible old guess file was deleted
     => GBW file was renamed to GES file
     => GES file is set as startup file
     => Guess is set to MORead
     ... now leaving AutoStart



           ************************************************************
           *        Program running with 16 parallel MPI-processes    *
           *              working on a common directory               *
           ************************************************************
------------------------------------------------------------------------------
                           ORCA GTO INTEGRAL CALCULATION
                           -- RI-GTO INTEGRALS CHOSEN --
------------------------------------------------------------------------------
------------------------------------------------------------------------------
                   ___                                                        
                  /   \      - P O W E R E D   B Y -                         
                 /     \                                                     
                 |  |  |   _    _      __       _____    __    __             
                 |  |  |  | |  | |    /  \     |  _  \  |  |  /  |          
                  \  \/   | |  | |   /    \    | | | |  |  | /  /          
                 / \  \   | |__| |  /  /\  \   | |_| |  |  |/  /          
                |  |  |   |  __  | /  /__\  \  |    /   |      \           
                |  |  |   | |  | | |   __   |  |    \   |  |\   \          
                \     /   | |  | | |  |  |  |  | |\  \  |  | \   \       
                 \___/    |_|  |_| |__|  |__|  |_| \__\ |__|  \__/        
                                                                              
                      - O R C A' S   B I G   F R I E N D -                    
                                      &                                       
                       - I N T E G R A L  F E E D E R -                       
                                                                              
 v1 FN, 2020, v2 2021                                                         
------------------------------------------------------------------------------


Reading SHARK input file cc-pVDZ.SHARKINP.tmp ... ok
----------------------
SHARK INTEGRAL PACKAGE
----------------------

Number of atoms                             ...     48
Number of basis functions                   ...    585
Number of shells                            ...    351
Maximum angular momentum                    ...      2
Integral batch strategy                     ... SHARK/LIBINT Hybrid
RI-J (if used) integral strategy            ... SPLIT-RIJ (Revised 2003 algorithm where possible)
Printlevel                                  ...      1
Contraction scheme used                     ... PARTIAL GENERAL contraction
Coulomb Range Separation                    ... NOT USED
Exchange Range Separation                   ... NOT USED
Finite Nucleus Model                        ... NOT USED
Auxiliary Coulomb fitting basis             ... AVAILABLE
   # of basis functions in Aux-J            ...   3053
   # of shells in Aux-J                     ...   1151
   Maximum angular momentum in Aux-J        ...      3
Auxiliary J/K fitting basis                 ... AVAILABLE
   # of basis functions in Aux-JK           ...   3053
   # of shells in Aux-JK                    ...   1151
   Maximum angular momentum in Aux-JK       ...      3
Auxiliary Correlation fitting basis         ... AVAILABLE
   # of basis functions in Aux-C            ...   3053
   # of shells in Aux-C                     ...   1151
   Maximum angular momentum in Aux-C        ...      3
Auxiliary 'external' fitting basis          ... NOT available
Integral threshold                          ...     1.000000e-10
Primitive cut-off                           ...     1.000000e-11
Primitive pair pre-selection threshold      ...     1.000000e-11

Calculating pre-screening integrals         ... done (  0.0 sec) Dimension = 351
Calculating pre-screening integrals (ORCA)  ... done (  0.1 sec) Dimension = 213
Organizing shell pair data                  ... done (  0.2 sec)
Shell pair information
Total number of shell pairs                 ...     61776
Shell pairs after pre-screening             ...     24385
Total number of primitive shell pairs       ...    100272
Primitive shell pairs kept                  ...     33060
          la=0 lb=0:  10594 shell pairs
          la=1 lb=0:   8611 shell pairs
          la=1 lb=1:   1530 shell pairs
          la=2 lb=0:   2571 shell pairs
          la=2 lb=1:    927 shell pairs
          la=2 lb=2:    152 shell pairs

Calculating one electron integrals          ... done (  0.0 sec)
Calculating RI/J V-Matrix + Cholesky decomp.... done (  0.6 sec)
Calculating RI/JK V-Matrix + Cholesky decomp... done (  0.5 sec)
Calculating RI/C V-Matrix + Cholesky decomp.... done (  0.6 sec)
Calculating Nuclear repulsion               ... done (  0.0 sec) ENN=   1629.453704820670 Eh

SHARK setup successfully completed in   2.3 seconds

Maximum memory used throughout the entire GTOINT-calculation: 39.5 MB


           ************************************************************
           *        Program running with 16 parallel MPI-processes    *
           *              working on a common directory               *
           ************************************************************
-------------------------------------------------------------------------------
                                 ORCA SCF
-------------------------------------------------------------------------------

------------
SCF SETTINGS
------------
Hamiltonian:
 Density Functional     Method          .... DFT(GTOs)
 Exchange Functional    Exchange        .... B88
   X-Alpha parameter    XAlpha          ....  0.666667
   Becke's b parameter  XBeta           ....  0.004200
 Correlation Functional Correlation     .... LYP
 LDA part of GGA corr.  LDAOpt          .... VWN-5
 Gradients option       PostSCFGGA      .... off
 Hybrid DFT is turned on
   Fraction HF Exchange ScalHFX         ....  0.200000
   Scaling of DF-GGA-X  ScalDFX         ....  0.720000
   Scaling of DF-GGA-C  ScalDFC         ....  0.810000
   Scaling of DF-LDA-C  ScalLDAC        ....  1.000000
   Perturbative correction              ....  0.000000
   Density functional embedding theory  .... OFF
   NL short-range parameter             ....  4.800000
 RI-approximation to the Coulomb term is turned on
   Number of AuxJ basis functions       .... 3053
   RIJ-COSX (HFX calculated with COS-X)).... on


General Settings:
 Integral files         IntName         .... cc-pVDZ
 Hartree-Fock type      HFTyp           .... UHF
 Total Charge           Charge          ....    0
 Multiplicity           Mult            ....    2
 Number of Electrons    NEL             ....  163
 Basis Dimension        Dim             ....  447
 Nuclear Repulsion      ENuc            ....   1629.4537048207 Eh

Convergence Acceleration:
 DIIS                   CNVDIIS         .... on
   Start iteration      DIISMaxIt       ....    12
   Startup error        DIISStart       ....  0.200000
   # of expansion vecs  DIISMaxEq       ....     5
   Bias factor          DIISBfac        ....   1.050
   Max. coefficient     DIISMaxC        ....  10.000
 Trust-Rad. Augm. Hess. CNVTRAH         .... auto
   Auto Start mean grad. ratio tolernc. ....  1.125000
   Auto Start start iteration           ....     1
   Auto Start num. interpolation iter.  ....    10
   Max. Number of Micro iterations      ....    16
   Max. Number of Macro iterations      .... Maxiter - #DIIS iter
   Number of Davidson start vectors     ....     2
   Converg. threshold I  (grad. norm)   ....   5.000e-05
   Converg. threshold II (energy diff.) ....   1.000e-06
   Grad. Scal. Fac. for Micro threshold ....   0.100
   Minimum threshold for Micro iter.    ....   0.010
   NR start threshold (gradient norm)   ....   0.001
   Initial trust radius                 ....   0.400
   Minimum AH scaling param. (alpha)    ....   1.000
   Maximum AH scaling param. (alpha)    .... 1000.000
   Orbital update algorithm             .... Taylor
   White noise on init. David. guess    .... on
   Maximum white noise                  ....   0.010
   Quad. conv. algorithm                .... NR
 SOSCF                  CNVSOSCF        .... off
 Level Shifting         CNVShift        .... on
   Level shift para.    LevelShift      ....    0.2500
   Turn off err/grad.   ShiftErr        ....    0.0010
 Zerner damping         CNVZerner       .... off
 Static damping         CNVDamp         .... on
   Fraction old density DampFac         ....    0.7000
   Max. Damping (<1)    DampMax         ....    0.9800
   Min. Damping (>=0)   DampMin         ....    0.0000
   Turn off err/grad.   DampErr         ....    0.1000
 Fernandez-Rico         CNVRico         .... off

SCF Procedure:
 Maximum # iterations   MaxIter         ....   125
 SCF integral mode      SCFMode         .... Direct
   Integral package                     .... SHARK and LIBINT hybrid scheme
 Reset frequency        DirectResetFreq ....    20
 Integral Threshold     Thresh          ....  1.000e-10 Eh
 Primitive CutOff       TCut            ....  1.000e-11 Eh

Convergence Tolerance:
 Convergence Check Mode ConvCheckMode   .... Total+1el-Energy
 Convergence forced     ConvForced      .... 0
 Energy Change          TolE            ....  1.000e-06 Eh
 1-El. energy change                    ....  1.000e-03 Eh
 DIIS Error             TolErr          ....  1.000e-06


Diagonalization of the overlap matrix:
Smallest eigenvalue                        ... 5.275e-05
Time for diagonalization                   ...    0.035 sec
Threshold for overlap eigenvalues          ... 1.000e-08
Number of eigenvalues below threshold      ... 0
Time for construction of square roots      ...    0.041 sec
Total time needed                          ...    0.077 sec

---------------------
INITIAL GUESS: MOREAD
---------------------
Guess MOs are being read from file: cc-pVDZ.ges
Input geometry compatible with but different from current geometry
Input basis set matches current basis set (good)
MOs were renormalized
MOs were reorthogonalized (Cholesky)
                      ------------------
                      INITIAL GUESS DONE (   0.2 sec)
                      ------------------
-------------------
DFT GRID GENERATION
-------------------

General Integration Accuracy     IntAcc      ... 4.388
Radial Grid Type                 RadialGrid  ... OptM3 with GC (2021)
Angular Grid (max. ang.)         AngularGrid ... 4 (Lebedev-302)
Angular grid pruning method      GridPruning ... 4 (adaptive)
Weight generation scheme         WeightScheme... Becke
Basis function cutoff            BFCut       ... 1.0000e-10
Integration weight cutoff        WCut        ... 1.0000e-14
Angular grids for H and He will be reduced by one unit
Partially contracted basis set               ... off
Rotationally invariant grid construction     ... off

Total number of grid points                  ...   217076
Total number of batches                      ...     3415
Average number of points per batch           ...       63
Average number of grid points per atom       ...     4522
Time for grid setup =    1.371 sec

--------------------
COSX GRID GENERATION
--------------------

GRIDX 1
-------
General Integration Accuracy     IntAcc      ... 3.816
Radial Grid Type                 RadialGrid  ... OptM3 with GC (2021)
Angular Grid (max. ang.)         AngularGrid ... 1 (Lebedev-50)
Angular grid pruning method      GridPruning ... 4 (adaptive)
Weight generation scheme         WeightScheme... Becke
Basis function cutoff            BFCut       ... 1.0000e-10
Integration weight cutoff        WCut        ... 1.0000e-14
Angular grids for H and He will be reduced by one unit
Partially contracted basis set               ... on
Rotationally invariant grid construction     ... off

Total number of grid points                  ...    27664
Total number of batches                      ...      458
Average number of points per batch           ...       60
Average number of grid points per atom       ...      576
UseSFitting                                  ... on

GRIDX 2
-------
General Integration Accuracy     IntAcc      ... 4.020
Radial Grid Type                 RadialGrid  ... OptM3 with GC (2021)
Angular Grid (max. ang.)         AngularGrid ... 2 (Lebedev-110)
Angular grid pruning method      GridPruning ... 4 (adaptive)
Weight generation scheme         WeightScheme... Becke
Basis function cutoff            BFCut       ... 1.0000e-10
Integration weight cutoff        WCut        ... 1.0000e-14
Angular grids for H and He will be reduced by one unit
Partially contracted basis set               ... on
Rotationally invariant grid construction     ... off

Total number of grid points                  ...    58872
Total number of batches                      ...      945
Average number of points per batch           ...       62
Average number of grid points per atom       ...     1226
UseSFitting                                  ... on

GRIDX 3
-------
General Integration Accuracy     IntAcc      ... 4.338
Radial Grid Type                 RadialGrid  ... OptM3 with GC (2021)
Angular Grid (max. ang.)         AngularGrid ... 3 (Lebedev-194)
Angular grid pruning method      GridPruning ... 4 (adaptive)
Weight generation scheme         WeightScheme... Becke
Basis function cutoff            BFCut       ... 1.0000e-10
Integration weight cutoff        WCut        ... 1.0000e-14
Angular grids for H and He will be reduced by one unit
Partially contracted basis set               ... on
Rotationally invariant grid construction     ... off

Total number of grid points                  ...   128757
Total number of batches                      ...     2039
Average number of points per batch           ...       63
Average number of grid points per atom       ...     2682
UseSFitting                                  ... on

Time for X-Grid setup             =    2.271 sec

 re-compute Schwartz prescreening matrix in partically contracted basis (1) ...done (   0.106 sec)
--------------
SCF ITERATIONS
--------------
ITER       Energy         Delta-E        Max-DP      RMS-DP      [F,P]     Damp
               ***  Starting incremental Fock matrix formation  ***
  0   -890.7428226552   0.000000000000 0.00002686  0.00000052  0.0000986 0.7000
                 **** Energy Check signals convergence ****

               *****************************************************
               *                     SUCCESS                       *
               *           SCF CONVERGED AFTER   1 CYCLES          *
               *****************************************************

Old exchange energy                            =    -25.600871301 Eh
New exchange energy                            =    -25.600963938 Eh
Exchange energy change after final integration =     -0.000092637 Eh
Total energy after final integration           =   -890.742915388 Eh
Final COS-X integration done in                =     7.040 sec

----------------
TOTAL SCF ENERGY
----------------

Total Energy       :         -890.74291539 Eh          -24238.34698 eV

Components:
Nuclear Repulsion  :         1629.45370482 Eh           44339.68949 eV
Electronic Energy  :        -2520.19662021 Eh          -68578.03648 eV
One Electron Energy:        -4436.21492394 Eh         -120715.54514 eV
Two Electron Energy:         1916.01830373 Eh           52137.50866 eV
Max COSX asymmetry :            0.00000066 Eh               0.00002 eV

Virial components:
Potential Energy   :        -1775.43774746 Eh          -48312.11725 eV
Kinetic Energy     :          884.69483208 Eh           24073.77027 eV
Virial Ratio       :            2.00683635


DFT components:
N(Alpha)           :       82.000188538810 electrons
N(Beta)            :       81.000186176887 electrons
N(Total)           :      163.000374715697 electrons
E(X)               :     -101.523675561883 Eh       
E(C)               :       -6.327238907567 Eh       
E(XC)              :     -107.850914469450 Eh       
DFET-embed. en.    :        0.000000000000 Eh       

---------------
SCF CONVERGENCE
---------------

  Last Energy change         ...   -9.5724e-08  Tolerance :   1.0000e-06
  Last MAX-Density change    ...    8.4627e-06  Tolerance :   1.0000e-05
  Last RMS-Density change    ...    1.6665e-07  Tolerance :   1.0000e-06
  Last DIIS Error            ...    6.9885e-05  Tolerance :   1.0000e-06

             **** THE GBW FILE WAS UPDATED (cc-pVDZ.gbw) ****
             **** DENSITY cc-pVDZ.scfp WAS UPDATED ****
             **** ENERGY FILE WAS UPDATED (cc-pVDZ.en.tmp) ****
----------------------
UHF SPIN CONTAMINATION
----------------------

Warning: in a DFT calculation there is little theoretical justification to 
         calculate <S**2> as in Hartree-Fock theory. We will do it anyways
         but you should keep in mind that the values have only limited relevance

Expectation value of <S**2>     :     0.756023
Ideal value S*(S+1) for S=0.5   :     0.750000
Deviation                       :     0.006023

             **** THE GBW FILE WAS UPDATED (cc-pVDZ.gbw) ****
             **** DENSITY cc-pVDZ.scfp WAS UPDATED ****
----------------
ORBITAL ENERGIES
----------------
                 SPIN UP ORBITALS
  NO   OCC          E(Eh)            E(eV) 
   0   1.0000     -10.241643      -278.6893 
   1   1.0000     -10.232518      -278.4410 
   2   1.0000     -10.216989      -278.0184 
   3   1.0000     -10.214855      -277.9603 
   4   1.0000     -10.213495      -277.9233 
   5   1.0000     -10.213367      -277.9199 
   6   1.0000     -10.211686      -277.8741 
   7   1.0000     -10.210717      -277.8477 
   8   1.0000     -10.209659      -277.8189 
   9   1.0000     -10.209557      -277.8162 
  10   1.0000     -10.208526      -277.7881 
  11   1.0000     -10.206748      -277.7397 
  12   1.0000     -10.202587      -277.6265 
  13   1.0000     -10.194336      -277.4020 
  14   1.0000     -10.187771      -277.2233 
  15   1.0000     -10.187146      -277.2063 
  16   1.0000     -10.186345      -277.1845 
  17   1.0000     -10.182991      -277.0933 
  18   1.0000     -10.181811      -277.0612 
  19   1.0000     -10.178412      -276.9687 
  20   1.0000     -10.176755      -276.9236 
  21   1.0000     -10.176107      -276.9060 
  22   1.0000     -10.164372      -276.5866 
  23   1.0000      -0.882019       -24.0009 
  24   1.0000      -0.878140       -23.8954 
  25   1.0000      -0.823586       -22.4109 
  26   1.0000      -0.808488       -22.0001 
  27   1.0000      -0.796981       -21.6870 
  28   1.0000      -0.786637       -21.4055 
  29   1.0000      -0.772699       -21.0262 
  30   1.0000      -0.765923       -20.8418 
  31   1.0000      -0.741919       -20.1886 
  32   1.0000      -0.733237       -19.9524 
  33   1.0000      -0.705051       -19.1854 
  34   1.0000      -0.674921       -18.3655 
  35   1.0000      -0.656548       -17.8656 
  36   1.0000      -0.634910       -17.2768 
  37   1.0000      -0.625094       -17.0097 
  38   1.0000      -0.623688       -16.9714 
  39   1.0000      -0.597693       -16.2641 
  40   1.0000      -0.582418       -15.8484 
  41   1.0000      -0.566983       -15.4284 
  42   1.0000      -0.556290       -15.1374 
  43   1.0000      -0.534411       -14.5421 
  44   1.0000      -0.518901       -14.1200 
  45   1.0000      -0.494713       -13.4618 
  46   1.0000      -0.483456       -13.1555 
  47   1.0000      -0.476203       -12.9581 
  48   1.0000      -0.472814       -12.8659 
  49   1.0000      -0.471294       -12.8246 
  50   1.0000      -0.450464       -12.2577 
  51   1.0000      -0.440297       -11.9811 
  52   1.0000      -0.438612       -11.9352 
  53   1.0000      -0.429285       -11.6814 
  54   1.0000      -0.428447       -11.6586 
  55   1.0000      -0.426116       -11.5952 
  56   1.0000      -0.418999       -11.4016 
  57   1.0000      -0.414184       -11.2705 
  58   1.0000      -0.410180       -11.1616 
  59   1.0000      -0.398426       -10.8417 
  60   1.0000      -0.382503       -10.4084 
  61   1.0000      -0.376548       -10.2464 
  62   1.0000      -0.375215       -10.2101 
  63   1.0000      -0.369094       -10.0436 
  64   1.0000      -0.366407        -9.9704 
  65   1.0000      -0.364046        -9.9062 
  66   1.0000      -0.360269        -9.8034 
  67   1.0000      -0.348433        -9.4813 
  68   1.0000      -0.336994        -9.1701 
  69   1.0000      -0.332670        -9.0524 
  70   1.0000      -0.330696        -8.9987 
  71   1.0000      -0.329086        -8.9549 
  72   1.0000      -0.327212        -8.9039 
  73   1.0000      -0.324052        -8.8179 
  74   1.0000      -0.322609        -8.7786 
  75   1.0000      -0.288915        -7.8618 
  76   1.0000      -0.286447        -7.7946 
  77   1.0000      -0.273314        -7.4372 
  78   1.0000      -0.257345        -7.0027 
  79   1.0000      -0.242243        -6.5918 
  80   1.0000      -0.234062        -6.3692 
  81   1.0000      -0.157514        -4.2862 
  82   0.0000      -0.110361        -3.0031 
  83   0.0000      -0.041071        -1.1176 
  84   0.0000      -0.024583        -0.6689 
  85   0.0000      -0.007809        -0.2125 
  86   0.0000       0.026570         0.7230 
  87   0.0000       0.026778         0.7287 
  88   0.0000       0.043510         1.1840 
  89   0.0000       0.057882         1.5751 
  90   0.0000       0.061622         1.6768 
  91   0.0000       0.072738         1.9793 
  92   0.0000       0.078221         2.1285 
  93   0.0000       0.088417         2.4059 
  94   0.0000       0.090532         2.4635 
  95   0.0000       0.092571         2.5190 
  96   0.0000       0.093548         2.5456 
  97   0.0000       0.094756         2.5784 
  98   0.0000       0.098519         2.6808 
  99   0.0000       0.104685         2.8486 
 100   0.0000       0.121852         3.3157 
 101   0.0000       0.127556         3.4710 
 102   0.0000       0.131426         3.5763 
 103   0.0000       0.135191         3.6787 
 104   0.0000       0.142388         3.8746 
 105   0.0000       0.148448         4.0395 
 106   0.0000       0.148966         4.0536 
 107   0.0000       0.150065         4.0835 
 108   0.0000       0.156008         4.2452 
 109   0.0000       0.159099         4.3293 
 110   0.0000       0.159743         4.3468 
 111   0.0000       0.161864         4.4046 
 112   0.0000       0.169348         4.6082 
 113   0.0000       0.172109         4.6833 
 114   0.0000       0.180180         4.9030 
 115   0.0000       0.196806         5.3554 
 116   0.0000       0.196866         5.3570 
 117   0.0000       0.203276         5.5314 
 118   0.0000       0.209442         5.6992 
 119   0.0000       0.215020         5.8510 
 120   0.0000       0.218841         5.9550 
 121   0.0000       0.234545         6.3823 
 122   0.0000       0.239552         6.5185 
 123   0.0000       0.259316         7.0564 
 124   0.0000       0.265651         7.2287 
 125   0.0000       0.269408         7.3310 
 126   0.0000       0.272389         7.4121 
 127   0.0000       0.283612         7.7175 
 128   0.0000       0.297098         8.0845 
 129   0.0000       0.300818         8.1857 
 130   0.0000       0.328915         8.9502 
 131   0.0000       0.339220         9.2306 
 132   0.0000       0.351452         9.5635 
 133   0.0000       0.354327         9.6417 
 134   0.0000       0.366844         9.9823 
 135   0.0000       0.370796        10.0899 
 136   0.0000       0.399487        10.8706 
 137   0.0000       0.407358        11.0848 
 138   0.0000       0.411140        11.1877 
 139   0.0000       0.414032        11.2664 
 140   0.0000       0.414474        11.2784 
 141   0.0000       0.418406        11.3854 
 142   0.0000       0.419178        11.4064 
 143   0.0000       0.425328        11.5738 
 144   0.0000       0.436190        11.8693 
 145   0.0000       0.437074        11.8934 
 146   0.0000       0.445740        12.1292 
 147   0.0000       0.451005        12.2725 
 148   0.0000       0.457602        12.4520 
 149   0.0000       0.460471        12.5300 
 150   0.0000       0.468881        12.7589 
 151   0.0000       0.475917        12.9504 
 152   0.0000       0.478218        13.0130 
 153   0.0000       0.481802        13.1105 
 154   0.0000       0.487584        13.2678 
 155   0.0000       0.489730        13.3262 
 156   0.0000       0.494918        13.4674 
 157   0.0000       0.498620        13.5681 
 158   0.0000       0.501083        13.6352 
 159   0.0000       0.501291        13.6408 
 160   0.0000       0.504617        13.7313 
 161   0.0000       0.508360        13.8332 
 162   0.0000       0.513736        13.9795 
 163   0.0000       0.516164        14.0455 
 164   0.0000       0.524323        14.2676 
 165   0.0000       0.541231        14.7276 
 166   0.0000       0.541711        14.7407 
 167   0.0000       0.552542        15.0354 
 168   0.0000       0.565170        15.3791 
 169   0.0000       0.572389        15.5755 
 170   0.0000       0.581706        15.8290 
 171   0.0000       0.587586        15.9890 
 172   0.0000       0.589770        16.0485 
 173   0.0000       0.590414        16.0660 
 174   0.0000       0.595467        16.2035 
 175   0.0000       0.603102        16.4112 
 176   0.0000       0.609196        16.5771 
 177   0.0000       0.611930        16.6515 
 178   0.0000       0.617300        16.7976 
 179   0.0000       0.626655        17.0521 
 180   0.0000       0.631733        17.1903 
 181   0.0000       0.632311        17.2061 
 182   0.0000       0.633098        17.2275 
 183   0.0000       0.636013        17.3068 
 184   0.0000       0.641267        17.4498 
 185   0.0000       0.641458        17.4550 
 186   0.0000       0.652768        17.7627 
 187   0.0000       0.653619        17.7859 
 188   0.0000       0.656491        17.8640 
 189   0.0000       0.657989        17.9048 
 190   0.0000       0.659990        17.9592 
 191   0.0000       0.661001        17.9868 
 192   0.0000       0.664312        18.0768 
 193   0.0000       0.667065        18.1518 
 194   0.0000       0.670182        18.2366 
 195   0.0000       0.672138        18.2898 
 196   0.0000       0.672384        18.2965 
 197   0.0000       0.673679        18.3317 
 198   0.0000       0.682387        18.5687 
 199   0.0000       0.683726        18.6051 
 200   0.0000       0.693087        18.8599 
 201   0.0000       0.696207        18.9448 
 202   0.0000       0.700291        19.0559 
 203   0.0000       0.702172        19.1071 
 204   0.0000       0.708999        19.2929 
 205   0.0000       0.712488        19.3878 
 206   0.0000       0.713153        19.4059 
 207   0.0000       0.714484        19.4421 
 208   0.0000       0.732458        19.9312 
 209   0.0000       0.735679        20.0188 
 210   0.0000       0.743392        20.2287 
 211   0.0000       0.755089        20.5470 
 212   0.0000       0.759945        20.6792 
 213   0.0000       0.768124        20.9017 
 214   0.0000       0.782077        21.2814 
 215   0.0000       0.792910        21.5762 
 216   0.0000       0.809402        22.0250 
 217   0.0000       0.819368        22.2961 
 218   0.0000       0.828267        22.5383 
 219   0.0000       0.837427        22.7876 
 220   0.0000       0.838973        22.8296 
 221   0.0000       0.840505        22.8713 
 222   0.0000       0.851564        23.1722 
 223   0.0000       0.867533        23.6068 
 224   0.0000       0.874075        23.7848 
 225   0.0000       0.878311        23.9001 
 226   0.0000       0.886273        24.1167 
 227   0.0000       0.897462        24.4212 
 228   0.0000       0.905544        24.6411 
 229   0.0000       0.919686        25.0259 
 230   0.0000       0.925314        25.1791 
 231   0.0000       0.926535        25.2123 
 232   0.0000       0.940878        25.6026 
 233   0.0000       0.961780        26.1714 
 234   0.0000       0.962855        26.2006 
 235   0.0000       0.966879        26.3101 
 236   0.0000       0.984148        26.7800 
 237   0.0000       0.984603        26.7924 
 238   0.0000       0.991197        26.9718 
 239   0.0000       0.995062        27.0770 
 240   0.0000       1.016373        27.6569 
 241   0.0000       1.019851        27.7516 
 242   0.0000       1.024502        27.8781 
 243   0.0000       1.032676        28.1005 
 244   0.0000       1.043465        28.3941 
 245   0.0000       1.043518        28.3956 
 246   0.0000       1.050682        28.5905 
 247   0.0000       1.061505        28.8850 
 248   0.0000       1.073733        29.2178 
 249   0.0000       1.087322        29.5875 
 250   0.0000       1.101747        29.9800 
 251   0.0000       1.108353        30.1598 
 252   0.0000       1.133175        30.8353 
 253   0.0000       1.147281        31.2191 
 254   0.0000       1.164002        31.6741 
 255   0.0000       1.179837        32.1050 
 256   0.0000       1.187208        32.3056 
 257   0.0000       1.196875        32.5686 
 258   0.0000       1.203574        32.7509 
 259   0.0000       1.203998        32.7624 
 260   0.0000       1.210973        32.9523 
 261   0.0000       1.214962        33.0608 
 262   0.0000       1.217067        33.1181 
 263   0.0000       1.221960        33.2512 
 264   0.0000       1.224967        33.3330 
 265   0.0000       1.230869        33.4936 
 266   0.0000       1.235560        33.6213 
 267   0.0000       1.240354        33.7517 
 268   0.0000       1.269274        34.5387 
 269   0.0000       1.279995        34.8304 
 270   0.0000       1.290008        35.1029 
 271   0.0000       1.304945        35.5093 
 272   0.0000       1.319022        35.8924 
 273   0.0000       1.322434        35.9853 
 274   0.0000       1.326336        36.0914 
 275   0.0000       1.334422        36.3115 
 276   0.0000       1.348680        36.6994 
 277   0.0000       1.362046        37.0631 
 278   0.0000       1.376201        37.4483 
 279   0.0000       1.383079        37.6355 
 280   0.0000       1.399280        38.0763 
 281   0.0000       1.400689        38.1147 
 282   0.0000       1.424131        38.7526 
 283   0.0000       1.425794        38.7978 
 284   0.0000       1.435179        39.0532 
 285   0.0000       1.446502        39.3613 
 286   0.0000       1.456432        39.6315 
 287   0.0000       1.462884        39.8071 
 288   0.0000       1.463686        39.8289 
 289   0.0000       1.465796        39.8863 
 290   0.0000       1.473452        40.0947 
 291   0.0000       1.478832        40.2411 
 292   0.0000       1.484208        40.3873 
 293   0.0000       1.501933        40.8697 
 294   0.0000       1.505754        40.9736 
 295   0.0000       1.514655        41.2159 
 296   0.0000       1.521771        41.4095 
 297   0.0000       1.526573        41.5402 
 298   0.0000       1.544686        42.0331 
 299   0.0000       1.559914        42.4474 
 300   0.0000       1.577943        42.9380 
 301   0.0000       1.583351        43.0852 
 302   0.0000       1.586553        43.1723 
 303   0.0000       1.589217        43.2448 
 304   0.0000       1.599029        43.5118 
 305   0.0000       1.606734        43.7214 
 306   0.0000       1.607397        43.7395 
 307   0.0000       1.613601        43.9083 
 308   0.0000       1.620277        44.0900 
 309   0.0000       1.625805        44.2404 
 310   0.0000       1.628277        44.3077 
 311   0.0000       1.629845        44.3503 
 312   0.0000       1.630344        44.3639 
 313   0.0000       1.631436        44.3936 
 314   0.0000       1.635930        44.5159 
 315   0.0000       1.643011        44.7086 
 316   0.0000       1.645455        44.7751 
 317   0.0000       1.648092        44.8469 
 318   0.0000       1.652123        44.9566 
 319   0.0000       1.662018        45.2258 
 320   0.0000       1.668135        45.3923 
 321   0.0000       1.668513        45.4025 
 322   0.0000       1.673497        45.5382 
 323   0.0000       1.681594        45.7585 
 324   0.0000       1.686318        45.8870 
 325   0.0000       1.689454        45.9724 
 326   0.0000       1.693564        46.0842 
 327   0.0000       1.699059        46.2337 
 328   0.0000       1.701173        46.2913 
 329   0.0000       1.704331        46.3772 
 330   0.0000       1.708109        46.4800 
 331   0.0000       1.712451        46.5982 
 332   0.0000       1.717087        46.7243 
 333   0.0000       1.719272        46.7838 
 334   0.0000       1.727444        47.0061 
 335   0.0000       1.729758        47.0691 
 336   0.0000       1.750176        47.6247 
 337   0.0000       1.753145        47.7055 
 338   0.0000       1.757333        47.8195 
 339   0.0000       1.759402        47.8758 
 340   0.0000       1.764229        48.0071 
 341   0.0000       1.765862        48.0516 
 342   0.0000       1.776295        48.3354 
 343   0.0000       1.788580        48.6697 
 344   0.0000       1.793768        48.8109 
 345   0.0000       1.794316        48.8258 
 346   0.0000       1.794751        48.8376 
 347   0.0000       1.803508        49.0759 
 348   0.0000       1.813713        49.3537 
 349   0.0000       1.815791        49.4102 
 350   0.0000       1.820660        49.5427 
 351   0.0000       1.825573        49.6764 
 352   0.0000       1.831857        49.8474 
 353   0.0000       1.837533        50.0018 
 354   0.0000       1.839868        50.0653 
 355   0.0000       1.847597        50.2757 
 356   0.0000       1.866039        50.7775 
 357   0.0000       1.881675        51.2030 
 358   0.0000       1.882336        51.2210 
 359   0.0000       1.889868        51.4259 
 360   0.0000       1.903337        51.7924 
 361   0.0000       1.917742        52.1844 
 362   0.0000       1.923423        52.3390 
 363   0.0000       1.925578        52.3976 
 364   0.0000       1.932190        52.5776 
 365   0.0000       1.951267        53.0967 
 366   0.0000       1.955866        53.2218 
 367   0.0000       1.956236        53.2319 
 368   0.0000       1.958895        53.3042 
 369   0.0000       1.961140        53.3653 
 370   0.0000       1.973482        53.7012 
 371   0.0000       1.980756        53.8991 
 372   0.0000       1.990169        54.1553 
 373   0.0000       2.014823        54.8261 
 374   0.0000       2.019814        54.9619 
 375   0.0000       2.027819        55.1798 
 376   0.0000       2.047481        55.7148 
 377   0.0000       2.049525        55.7704 
 378   0.0000       2.068651        56.2908 
 379   0.0000       2.085718        56.7553 
 380   0.0000       2.099798        57.1384 
 381   0.0000       2.104330        57.2617 
 382   0.0000       2.112293        57.4784 
 383   0.0000       2.139861        58.2286 
 384   0.0000       2.156322        58.6765 
 385   0.0000       2.165995        58.9397 
 386   0.0000       2.175205        59.1903 
 387   0.0000       2.182264        59.3824 
 388   0.0000       2.183580        59.4182 
 389   0.0000       2.190984        59.6197 
 390   0.0000       2.209526        60.1243 
 391   0.0000       2.213095        60.2214 
 392   0.0000       2.220510        60.4231 
 393   0.0000       2.224481        60.5312 
 394   0.0000       2.239232        60.9326 
 395   0.0000       2.247318        61.1526 
 396   0.0000       2.267845        61.7112 
 397   0.0000       2.279746        62.0350 
 398   0.0000       2.292331        62.3775 
 399   0.0000       2.298534        62.5463 
 400   0.0000       2.313245        62.9466 
 401   0.0000       2.313642        62.9574 
 402   0.0000       2.318456        63.0884 
 403   0.0000       2.323113        63.2151 
 404   0.0000       2.341043        63.7030 
 405   0.0000       2.349860        63.9429 
 406   0.0000       2.364536        64.3423 
 407   0.0000       2.392330        65.0986 
 408   0.0000       2.400720        65.3269 
 409   0.0000       2.404789        65.4376 
 410   0.0000       2.406633        65.4878 
 411   0.0000       2.409844        65.5752 
 412   0.0000       2.412206        65.6395 
 413   0.0000       2.413867        65.6847 
 414   0.0000       2.419019        65.8249 
 415   0.0000       2.422455        65.9184 
 416   0.0000       2.435082        66.2619 
 417   0.0000       2.470803        67.2340 
 418   0.0000       2.480726        67.5040 
 419   0.0000       2.505353        68.1741 
 420   0.0000       2.512411        68.3662 
 421   0.0000       2.530031        68.8456 
 422   0.0000       2.534280        68.9613 
 423   0.0000       2.546162        69.2846 
 424   0.0000       2.578000        70.1510 
 425   0.0000       2.583642        70.3045 
 426   0.0000       2.596563        70.6561 
 427   0.0000       2.606615        70.9296 
 428   0.0000       2.612947        71.1019 
 429   0.0000       2.629425        71.5503 
 430   0.0000       2.675916        72.8154 
 431   0.0000       2.700829        73.4933 
 432   0.0000       2.708255        73.6954 
 433   0.0000       2.710195        73.7482 
 434   0.0000       2.712671        73.8155 
 435   0.0000       2.713916        73.8494 
 436   0.0000       2.722595        74.0856 
 437   0.0000       2.741016        74.5868 
 438   0.0000       2.757565        75.0372 
 439   0.0000       2.824375        76.8552 
 440   0.0000       2.826758        76.9200 
 441   0.0000       2.843315        77.3705 
 442   0.0000       2.866631        78.0050 
 443   0.0000       3.055171        83.1354 
 444   0.0000       3.075078        83.6771 
 445   0.0000       3.330871        90.6376 
 446   0.0000       3.567958        97.0891 

                 SPIN DOWN ORBITALS
  NO   OCC          E(Eh)            E(eV) 
   0   1.0000     -10.241921      -278.6969 
   1   1.0000     -10.232474      -278.4398 
   2   1.0000     -10.215876      -277.9881 
   3   1.0000     -10.215044      -277.9655 
   4   1.0000     -10.213547      -277.9248 
   5   1.0000     -10.213420      -277.9213 
   6   1.0000     -10.211741      -277.8756 
   7   1.0000     -10.210427      -277.8399 
   8   1.0000     -10.209634      -277.8183 
   9   1.0000     -10.209533      -277.8155 
  10   1.0000     -10.208430      -277.7855 
  11   1.0000     -10.205380      -277.7025 
  12   1.0000     -10.202473      -277.6234 
  13   1.0000     -10.194281      -277.4005 
  14   1.0000     -10.187637      -277.2197 
  15   1.0000     -10.187146      -277.2063 
  16   1.0000     -10.186345      -277.1845 
  17   1.0000     -10.182967      -277.0926 
  18   1.0000     -10.181806      -277.0610 
  19   1.0000     -10.178411      -276.9687 
  20   1.0000     -10.177638      -276.9476 
  21   1.0000     -10.176108      -276.9060 
  22   1.0000     -10.150555      -276.2107 
  23   1.0000      -0.881187       -23.9783 
  24   1.0000      -0.877680       -23.8829 
  25   1.0000      -0.822028       -22.3685 
  26   1.0000      -0.808051       -21.9882 
  27   1.0000      -0.796687       -21.6789 
  28   1.0000      -0.783806       -21.3284 
  29   1.0000      -0.771943       -21.0056 
  30   1.0000      -0.765970       -20.8431 
  31   1.0000      -0.738562       -20.0973 
  32   1.0000      -0.733014       -19.9463 
  33   1.0000      -0.704196       -19.1621 
  34   1.0000      -0.667431       -18.1617 
  35   1.0000      -0.655758       -17.8441 
  36   1.0000      -0.632690       -17.2164 
  37   1.0000      -0.624844       -17.0029 
  38   1.0000      -0.623718       -16.9722 
  39   1.0000      -0.595934       -16.2162 
  40   1.0000      -0.581806       -15.8317 
  41   1.0000      -0.566301       -15.4098 
  42   1.0000      -0.554586       -15.0911 
  43   1.0000      -0.524072       -14.2607 
  44   1.0000      -0.516840       -14.0639 
  45   1.0000      -0.494519       -13.4566 
  46   1.0000      -0.479337       -13.0434 
  47   1.0000      -0.476182       -12.9576 
  48   1.0000      -0.472511       -12.8577 
  49   1.0000      -0.471236       -12.8230 
  50   1.0000      -0.450444       -12.2572 
  51   1.0000      -0.438858       -11.9419 
  52   1.0000      -0.438585       -11.9345 
  53   1.0000      -0.428437       -11.6584 
  54   1.0000      -0.428044       -11.6477 
  55   1.0000      -0.425795       -11.5865 
  56   1.0000      -0.418895       -11.3987 
  57   1.0000      -0.413700       -11.2573 
  58   1.0000      -0.406927       -11.0730 
  59   1.0000      -0.398680       -10.8486 
  60   1.0000      -0.382582       -10.4106 
  61   1.0000      -0.376066       -10.2333 
  62   1.0000      -0.373594       -10.1660 
  63   1.0000      -0.368388       -10.0243 
  64   1.0000      -0.365579        -9.9479 
  65   1.0000      -0.362758        -9.8711 
  66   1.0000      -0.360110        -9.7991 
  67   1.0000      -0.348626        -9.4866 
  68   1.0000      -0.336901        -9.1675 
  69   1.0000      -0.332288        -9.0420 
  70   1.0000      -0.330337        -8.9889 
  71   1.0000      -0.328954        -8.9513 
  72   1.0000      -0.327231        -8.9044 
  73   1.0000      -0.322596        -8.7783 
  74   1.0000      -0.322545        -8.7769 
  75   1.0000      -0.287987        -7.8365 
  76   1.0000      -0.286379        -7.7928 
  77   1.0000      -0.273446        -7.4408 
  78   1.0000      -0.256696        -6.9850 
  79   1.0000      -0.232758        -6.3337 
  80   1.0000      -0.219078        -5.9614 
  81   0.0000      -0.104304        -2.8383 
  82   0.0000      -0.038517        -1.0481 
  83   0.0000      -0.024714        -0.6725 
  84   0.0000      -0.007184        -0.1955 
  85   0.0000      -0.003963        -0.1078 
  86   0.0000       0.027227         0.7409 
  87   0.0000       0.031088         0.8459 
  88   0.0000       0.043590         1.1861 
  89   0.0000       0.057921         1.5761 
  90   0.0000       0.061696         1.6788 
  91   0.0000       0.072766         1.9801 
  92   0.0000       0.078817         2.1447 
  93   0.0000       0.089033         2.4227 
  94   0.0000       0.091042         2.4774 
  95   0.0000       0.093211         2.5364 
  96   0.0000       0.093730         2.5505 
  97   0.0000       0.094794         2.5795 
  98   0.0000       0.099677         2.7124 
  99   0.0000       0.104678         2.8484 
 100   0.0000       0.122051         3.3212 
 101   0.0000       0.127767         3.4767 
 102   0.0000       0.131560         3.5799 
 103   0.0000       0.135260         3.6806 
 104   0.0000       0.143190         3.8964 
 105   0.0000       0.148476         4.0402 
 106   0.0000       0.148983         4.0540 
 107   0.0000       0.151899         4.1334 
 108   0.0000       0.156016         4.2454 
 109   0.0000       0.159427         4.3382 
 110   0.0000       0.159769         4.3475 
 111   0.0000       0.162031         4.4091 
 112   0.0000       0.169601         4.6151 
 113   0.0000       0.172785         4.7017 
 114   0.0000       0.180341         4.9073 
 115   0.0000       0.196510         5.3473 
 116   0.0000       0.196974         5.3599 
 117   0.0000       0.203730         5.5438 
 118   0.0000       0.209757         5.7078 
 119   0.0000       0.215705         5.8696 
 120   0.0000       0.219615         5.9760 
 121   0.0000       0.234852         6.3907 
 122   0.0000       0.240973         6.5572 
 123   0.0000       0.259767         7.0686 
 124   0.0000       0.265647         7.2286 
 125   0.0000       0.269973         7.3463 
 126   0.0000       0.272502         7.4152 
 127   0.0000       0.284272         7.7354 
 128   0.0000       0.297533         8.0963 
 129   0.0000       0.301766         8.2115 
 130   0.0000       0.330330         8.9887 
 131   0.0000       0.341580         9.2949 
 132   0.0000       0.354803         9.6547 
 133   0.0000       0.357108         9.7174 
 134   0.0000       0.370052        10.0696 
 135   0.0000       0.374200        10.1825 
 136   0.0000       0.400820        10.9069 
 137   0.0000       0.407474        11.0879 
 138   0.0000       0.411242        11.1905 
 139   0.0000       0.414542        11.2803 
 140   0.0000       0.418450        11.3866 
 141   0.0000       0.419057        11.4031 
 142   0.0000       0.422662        11.5012 
 143   0.0000       0.426175        11.5968 
 144   0.0000       0.436491        11.8775 
 145   0.0000       0.436871        11.8879 
 146   0.0000       0.448870        12.2144 
 147   0.0000       0.453279        12.3343 
 148   0.0000       0.457638        12.4530 
 149   0.0000       0.460622        12.5342 
 150   0.0000       0.469895        12.7865 
 151   0.0000       0.477198        12.9852 
 152   0.0000       0.478766        13.0279 
 153   0.0000       0.482563        13.1312 
 154   0.0000       0.489124        13.3097 
 155   0.0000       0.490140        13.3374 
 156   0.0000       0.495054        13.4711 
 157   0.0000       0.500319        13.6144 
 158   0.0000       0.501029        13.6337 
 159   0.0000       0.502760        13.6808 
 160   0.0000       0.505057        13.7433 
 161   0.0000       0.510336        13.8870 
 162   0.0000       0.516459        14.0536 
 163   0.0000       0.517824        14.0907 
 164   0.0000       0.525306        14.2943 
 165   0.0000       0.542018        14.7491 
 166   0.0000       0.546705        14.8766 
 167   0.0000       0.555829        15.1249 
 168   0.0000       0.566082        15.4039 
 169   0.0000       0.572336        15.5740 
 170   0.0000       0.585548        15.9336 
 171   0.0000       0.588021        16.0009 
 172   0.0000       0.592412        16.1203 
 173   0.0000       0.594597        16.1798 
 174   0.0000       0.596265        16.2252 
 175   0.0000       0.607259        16.5244 
 176   0.0000       0.612711        16.6727 
 177   0.0000       0.616857        16.7855 
 178   0.0000       0.617880        16.8134 
 179   0.0000       0.626888        17.0585 
 180   0.0000       0.632803        17.2194 
 181   0.0000       0.632830        17.2202 
 182   0.0000       0.635438        17.2911 
 183   0.0000       0.636322        17.3152 
 184   0.0000       0.641352        17.4521 
 185   0.0000       0.646849        17.6017 
 186   0.0000       0.653694        17.7879 
 187   0.0000       0.653742        17.7892 
 188   0.0000       0.657591        17.8940 
 189   0.0000       0.658382        17.9155 
 190   0.0000       0.660271        17.9669 
 191   0.0000       0.661286        17.9945 
 192   0.0000       0.666131        18.1264 
 193   0.0000       0.667067        18.1518 
 194   0.0000       0.670305        18.2399 
 195   0.0000       0.672266        18.2933 
 196   0.0000       0.672457        18.2985 
 197   0.0000       0.675445        18.3798 
 198   0.0000       0.683889        18.6096 
 199   0.0000       0.684752        18.6331 
 200   0.0000       0.695108        18.9149 
 201   0.0000       0.696650        18.9568 
 202   0.0000       0.700524        19.0622 
 203   0.0000       0.703751        19.1500 
 204   0.0000       0.711769        19.3682 
 205   0.0000       0.713512        19.4156 
 206   0.0000       0.713524        19.4160 
 207   0.0000       0.714689        19.4477 
 208   0.0000       0.732444        19.9308 
 209   0.0000       0.735903        20.0249 
 210   0.0000       0.747762        20.3476 
 211   0.0000       0.754746        20.5377 
 212   0.0000       0.762958        20.7611 
[...]
                Q:ISTP=    2 I=  1.0 Q=  0.0029 barn     
 -----------------------------------------------------------
 Solving for nuclear perturbation:
Forming RHS of the CP-SCF equations         ... 
Calc. nucleus orbit integrals (SHARK)       ... done

------------------------------------------------------------------------------
                           ORCA CP-SCF CALCULATION
------------------------------------------------------------------------------

Input orbitals are from        ... cc-pVDZ.gbw
Input Perturbation             ... cc-pVDZ.pin.tmp
Wavefunction output            ... cc-pVDZ.pout.tmp
Perturbation mode              ... Imaginary perturbation
Solver                         ... POPLE
Max. number of iterations      ... 64
Convergence tolerance          ... 1.000e-03
Integral handling              ... Direct
DFT GridXC                     ... 1
COSX GridX                     ... 1
COSX IntAccX                   ... 3.067
COSX Algorithm                 ... Auto
Number of perturbations        ... 3
Number of operators            ... 2
Orbital ranges used for CP-SCF:
 Operator 0:  Orbitals   0... 81  to  82...446
 Operator 1:  Orbitals   0... 80  to  81...446
Variables per perturbation     ... 59576
DFT calculation                         ... on
XC functional terms                     ... off
Hybrid DFT                              ... on
   Exchange mixing (SCF)                ...  0.200
   Exchange mixing (CP-SCF)             ...  0.200
   GGA exch. scaling(SCF)               ...  0.720
   GGA exch. scaling (CP-SCF)           ...  0.720
   GGA corr. scaling (SCF)              ...  0.810
   GGA corr. scaling (CP-SCF)           ...  0.810

CP-SCF GRID
-----------

General Integration Accuracy     IntAcc      ... 3.467
Radial Grid Type                 RadialGrid  ... OptM3 with GC (2021)
Angular Grid (max. ang.)         AngularGrid ... 1 (Lebedev-50)
Angular grid pruning method      GridPruning ... 4 (adaptive)
Weight generation scheme         WeightScheme... Becke
Basis function cutoff            BFCut       ... 1.0000e-10
Integration weight cutoff        WCut        ... 1.0000e-14
Angular grids for H and He will be reduced by one unit
Partially contracted basis set               ... off
Rotationally invariant grid construction     ... off

Total number of grid points                  ...    30935
Total number of batches                      ...      505
Average number of points per batch           ...       61
Average number of grid points per atom       ...      644

CP-SCF GRIDX
------------

General Integration Accuracy     IntAcc      ... 3.067
Radial Grid Type                 RadialGrid  ... OptM3 with GC (2021)
Angular Grid (max. ang.)         AngularGrid ... 1 (Lebedev-50)
Angular grid pruning method      GridPruning ... 4 (adaptive)
Weight generation scheme         WeightScheme... Becke
Basis function cutoff            BFCut       ... 1.0000e-10
Integration weight cutoff        WCut        ... 1.0000e-14
Angular grids for H and He will be reduced by one unit
Partially contracted basis set               ... on
Rotationally invariant grid construction     ... off

Total number of grid points                  ...    14531
Total number of batches                      ...      257
Average number of points per batch           ...       56
Average number of grid points per atom       ...      303

Memory available               ... 880.6 MB
Memory needed per perturbation ...  12.6 MB
Perturbations treated per batch... 3
Number of batches              ... 1
     CP-SCF ITERATION   0:   4.5723e-02 (   1.8 sec   0/  3 done)
     CP-SCF ITERATION   1:   2.5918e-03 (   1.9 sec   0/  3 done)
     CP-SCF ITERATION   2:   8.8471e-03 (   1.8 sec   2/  3 done)
     CP-SCF ITERATION   3:   1.2166e-03 (   1.2 sec   2/  3 done)
     CP-SCF ITERATION   4:   1.1746e-04 (   1.2 sec   3/  3 done)
                    *** THE CP-SCF HAS CONVERGED ***

Forming final perturbed densities           ... done
Transforming perturbed density to AO basis  ... done

 Raw HFC matrix (all values in MHz): 
 -----------------------------------
                 0.5255              -0.1735              -0.0003
                -0.1735               0.0286              -0.0003
                -0.0003              -0.0003               0.1346

 A(FC)           0.2292               0.2292               0.2292
 A(SD)          -0.2553              -0.0947               0.3500
 A(ORB+DIA)      0.0001               0.0001               0.0009    A(PC) =   0.0004
 A(ORB)          0.0000              -0.0000               0.0009    A(PC) =   0.0003
 A(DIA)          0.0001               0.0001               0.0000    A(PC) =   0.0001
             ----------           ----------           ----------
 A(Tot)         -0.0260               0.1346               0.5800    A(iso)=    0.2295
 Orientation: 
  X           0.3000410           -0.0003688            0.9539262
  Y           0.9539232           -0.0024329           -0.3000410
  Z           0.0024315            0.9999970           -0.0003782

Notes:  (1) The A matrix conforms to the "SAI" spin Hamiltonian convention.
        (2) Tensor is right-handed.

 -----------------------------------------------------------
 Nucleus  46H : A:ISTP=    1 I=  0.5 P=533.5514 MHz/au**3
                Q:ISTP=    2 I=  1.0 Q=  0.0029 barn     
 -----------------------------------------------------------
 Solving for nuclear perturbation:
Forming RHS of the CP-SCF equations         ... 
Calc. nucleus orbit integrals (SHARK)       ... done

------------------------------------------------------------------------------
                           ORCA CP-SCF CALCULATION
------------------------------------------------------------------------------

Input orbitals are from        ... cc-pVDZ.gbw
Input Perturbation             ... cc-pVDZ.pin.tmp
Wavefunction output            ... cc-pVDZ.pout.tmp
Perturbation mode              ... Imaginary perturbation
Solver                         ... POPLE
Max. number of iterations      ... 64
Convergence tolerance          ... 1.000e-03
Integral handling              ... Direct
DFT GridXC                     ... 1
COSX GridX                     ... 1
COSX IntAccX                   ... 3.067
COSX Algorithm                 ... Auto
Number of perturbations        ... 3
Number of operators            ... 2
Orbital ranges used for CP-SCF:
 Operator 0:  Orbitals   0... 81  to  82...446
 Operator 1:  Orbitals   0... 80  to  81...446
Variables per perturbation     ... 59576
DFT calculation                         ... on
XC functional terms                     ... off
Hybrid DFT                              ... on
   Exchange mixing (SCF)                ...  0.200
   Exchange mixing (CP-SCF)             ...  0.200
   GGA exch. scaling(SCF)               ...  0.720
   GGA exch. scaling (CP-SCF)           ...  0.720
   GGA corr. scaling (SCF)              ...  0.810
   GGA corr. scaling (CP-SCF)           ...  0.810

CP-SCF GRID
-----------

General Integration Accuracy     IntAcc      ... 3.467
Radial Grid Type                 RadialGrid  ... OptM3 with GC (2021)
Angular Grid (max. ang.)         AngularGrid ... 1 (Lebedev-50)
Angular grid pruning method      GridPruning ... 4 (adaptive)
Weight generation scheme         WeightScheme... Becke
Basis function cutoff            BFCut       ... 1.0000e-10
Integration weight cutoff        WCut        ... 1.0000e-14
Angular grids for H and He will be reduced by one unit
Partially contracted basis set               ... off
Rotationally invariant grid construction     ... off

Total number of grid points                  ...    30935
Total number of batches                      ...      505
Average number of points per batch           ...       61
Average number of grid points per atom       ...      644

CP-SCF GRIDX
------------

General Integration Accuracy     IntAcc      ... 3.067
Radial Grid Type                 RadialGrid  ... OptM3 with GC (2021)
Angular Grid (max. ang.)         AngularGrid ... 1 (Lebedev-50)
Angular grid pruning method      GridPruning ... 4 (adaptive)
Weight generation scheme         WeightScheme... Becke
Basis function cutoff            BFCut       ... 1.0000e-10
Integration weight cutoff        WCut        ... 1.0000e-14
Angular grids for H and He will be reduced by one unit
Partially contracted basis set               ... on
Rotationally invariant grid construction     ... off

Total number of grid points                  ...    14531
Total number of batches                      ...      257
Average number of points per batch           ...       56
Average number of grid points per atom       ...      303

Memory available               ... 880.1 MB
Memory needed per perturbation ...  12.6 MB
Perturbations treated per batch... 3
Number of batches              ... 1
     CP-SCF ITERATION   0:   4.5824e-02 (   1.8 sec   0/  3 done)
     CP-SCF ITERATION   1:   3.0192e-03 (   1.8 sec   0/  3 done)
     CP-SCF ITERATION   2:   2.2723e-02 (   1.8 sec   2/  3 done)
     CP-SCF ITERATION   3:   1.1311e-03 (   1.2 sec   2/  3 done)
     CP-SCF ITERATION   4:   1.2034e-04 (   1.2 sec   3/  3 done)
                    *** THE CP-SCF HAS CONVERGED ***

Forming final perturbed densities           ... done
Transforming perturbed density to AO basis  ... done

 Raw HFC matrix (all values in MHz): 
 -----------------------------------
                 0.5349               0.1443               0.0005
                 0.1442               0.0161              -0.0004
                 0.0005              -0.0004               0.1394

 A(FC)           0.2297               0.2297               0.2297
 A(SD)          -0.2512              -0.0904               0.3416
 A(ORB+DIA)      0.0001               0.0001               0.0011    A(PC) =   0.0004
 A(ORB)          0.0001              -0.0000               0.0011    A(PC) =   0.0004
 A(DIA)          0.0001               0.0001               0.0000    A(PC) =   0.0001
             ----------           ----------           ----------
 A(Tot)         -0.0213               0.1394               0.5723    A(iso)=    0.2301
 Orientation: 
  X           0.2510749            0.0000046            0.9679677
  Y          -0.9679629            0.0031370            0.2510736
  Z          -0.0030354           -0.9999951            0.0007921

Notes:  (1) The A matrix conforms to the "SAI" spin Hamiltonian convention.
        (2) Tensor is right-handed.

 -----------------------------------------------------------
 Nucleus  47H : A:ISTP=    1 I=  0.5 P=533.5514 MHz/au**3
                Q:ISTP=    2 I=  1.0 Q=  0.0029 barn     
 -----------------------------------------------------------
 Solving for nuclear perturbation:
Forming RHS of the CP-SCF equations         ... 
Calc. nucleus orbit integrals (SHARK)       ... done

------------------------------------------------------------------------------
                           ORCA CP-SCF CALCULATION
------------------------------------------------------------------------------

Input orbitals are from        ... cc-pVDZ.gbw
Input Perturbation             ... cc-pVDZ.pin.tmp
Wavefunction output            ... cc-pVDZ.pout.tmp
Perturbation mode              ... Imaginary perturbation
Solver                         ... POPLE
Max. number of iterations      ... 64
Convergence tolerance          ... 1.000e-03
Integral handling              ... Direct
DFT GridXC                     ... 1
COSX GridX                     ... 1
COSX IntAccX                   ... 3.067
COSX Algorithm                 ... Auto
Number of perturbations        ... 3
Number of operators            ... 2
Orbital ranges used for CP-SCF:
 Operator 0:  Orbitals   0... 81  to  82...446
 Operator 1:  Orbitals   0... 80  to  81...446
Variables per perturbation     ... 59576
DFT calculation                         ... on
XC functional terms                     ... off
Hybrid DFT                              ... on
   Exchange mixing (SCF)                ...  0.200
   Exchange mixing (CP-SCF)             ...  0.200
   GGA exch. scaling(SCF)               ...  0.720
   GGA exch. scaling (CP-SCF)           ...  0.720
   GGA corr. scaling (SCF)              ...  0.810
   GGA corr. scaling (CP-SCF)           ...  0.810

CP-SCF GRID
-----------

General Integration Accuracy     IntAcc      ... 3.467
Radial Grid Type                 RadialGrid  ... OptM3 with GC (2021)
Angular Grid (max. ang.)         AngularGrid ... 1 (Lebedev-50)
Angular grid pruning method      GridPruning ... 4 (adaptive)
Weight generation scheme         WeightScheme... Becke
Basis function cutoff            BFCut       ... 1.0000e-10
Integration weight cutoff        WCut        ... 1.0000e-14
Angular grids for H and He will be reduced by one unit
Partially contracted basis set               ... off
Rotationally invariant grid construction     ... off

Total number of grid points                  ...    30935
Total number of batches                      ...      505
Average number of points per batch           ...       61
Average number of grid points per atom       ...      644

CP-SCF GRIDX
------------

General Integration Accuracy     IntAcc      ... 3.067
Radial Grid Type                 RadialGrid  ... OptM3 with GC (2021)
Angular Grid (max. ang.)         AngularGrid ... 1 (Lebedev-50)
Angular grid pruning method      GridPruning ... 4 (adaptive)
Weight generation scheme         WeightScheme... Becke
Basis function cutoff            BFCut       ... 1.0000e-10
Integration weight cutoff        WCut        ... 1.0000e-14
Angular grids for H and He will be reduced by one unit
Partially contracted basis set               ... on
Rotationally invariant grid construction     ... off

Total number of grid points                  ...    14531
Total number of batches                      ...      257
Average number of points per batch           ...       56
Average number of grid points per atom       ...      303

Memory available               ... 879.6 MB
Memory needed per perturbation ...  12.6 MB
Perturbations treated per batch... 3
Number of batches              ... 1
     CP-SCF ITERATION   0:   4.1677e-02 (   1.8 sec   0/  3 done)
     CP-SCF ITERATION   1:   1.7101e-03 (   1.8 sec   0/  3 done)
     CP-SCF ITERATION   2:   1.8525e-03 (   1.8 sec   2/  3 done)
     CP-SCF ITERATION   3:   5.5486e-04 (   1.2 sec   3/  3 done)
                    *** THE CP-SCF HAS CONVERGED ***

Forming final perturbed densities           ... done
Transforming perturbed density to AO basis  ... done

 Raw HFC matrix (all values in MHz): 
 -----------------------------------
                -0.0220              -0.0671              -0.0001
                -0.0672              -0.1422              -0.0000
                -0.0001              -0.0000              -0.1266

 A(FC)          -0.0971              -0.0971              -0.0971
 A(SD)           0.1048              -0.0295              -0.0752
 A(ORB+DIA)      0.0004               0.0001               0.0001    A(PC) =   0.0002
 A(ORB)          0.0004              -0.0000               0.0001    A(PC) =   0.0002
 A(DIA)          0.0000               0.0001               0.0001    A(PC) =   0.0000
             ----------           ----------           ----------
 A(Tot)          0.0080              -0.1266              -0.1722    A(iso)=   -0.0969
 Orientation: 
  X           0.9130399            0.0002016            0.4078702
  Y          -0.4078697            0.0020983            0.9130377
  Z          -0.0006717           -0.9999978            0.0019980

Notes:  (1) The A matrix conforms to the "SAI" spin Hamiltonian convention.
        (2) Tensor is right-handed.


--------------------------------------------------------------------------------
----------------------------------------------------------------------------
                           ORCA EULER ANGLE PROGRAM
----------------------------------------------------------------------------

Only g-tensor available        -->  using g-tensor as reference tensor

Reference tensor               ...  g

g-tensor ordering              ...  |g_min> --> |gx>
                                    |g_mid> --> |gy>
                                    |g_max> --> |gz>

A- and EFG-tensor ordering     ...  the axes |Ax>, |Qx>, |Ay>, etc. are assigned
                                    such that the Euler rotation is minimal. You
                                    can find the respective eigenvalues as Ax,
                                    EFGx, Ay, etc. in the tables below.
                                    The relation of |Ax>, |Ay>,  etc. to Amin, Amid, etc.
                                    (as printed in the ORCA EPR/NMR CALCULATION Output)
                                    is obtained in the detailed printout.

Euler rotation around          ...  z - y - z
   First rotation              -->  by alpha around z
   Second rotation             -->  by beta around y'
   Third rotation              -->  by gamma around z''
   Positive / Negative angle   -->  clockwise / counterclockwise rotation

Plot EFG-tensors                    (-)
Plot HFC-tensors                    (-)
Detailed Printout                   (-)

-------------------------------------------------------------------------
          Euler rotation of hyperfine tensor to g-tensor
-------------------------------------------------------------------------

-------------------------------------------------------------------
 Atom  |   Alpha    Beta    Gamma   |   Ax       Ay       Az 
       |          [degrees]         |           [MHz]         
-------------------------------------------------------------------
  8H       -0.1     22.1     -0.1       4.00     3.93     7.03
  9H        0.2     25.2     -0.4       8.73    -7.62    -3.76
 11H      120.5     39.9   -135.6       8.04    -2.88    -4.31
 12H     -120.3     40.1    135.1       8.04    -2.92    -4.35
 14H      171.8     38.6    174.4       1.96    -0.38    -0.35
 15H     -172.1     38.5   -174.1       1.95    -0.39    -0.36
 17H      118.9     18.0   -106.7       1.21    -0.65    -0.61
 18H     -118.9     18.1    106.5       1.21    -0.65    -0.61
 20H      170.4     25.4   -160.9       0.48    -0.24    -0.24
 21H     -171.0     25.4    161.4       0.48    -0.24    -0.24
 23H     -178.2     33.7    155.5      -0.37    -0.18     1.43
 24H      178.3     33.6   -155.8      -0.36    -0.18     1.43
 26H      -11.5     29.2     26.6       1.52    -0.88    -0.77
 27H       11.4     29.2    -26.8       1.52    -0.88    -0.77
 29H      -34.8     49.3     36.6       0.49    -0.23    -0.23
 30H       34.6     49.2    -36.5       0.49    -0.23    -0.23
 32H       42.7     25.4    -53.6       0.47    -0.24    -0.23
 33H      -42.7     25.4     53.4       0.47    -0.24    -0.23
 35H     -180.0     13.7    179.9       0.40    -0.22    -0.22
 36H        0.1     24.8     -0.3       0.28    -0.15    -0.15
 43H     -179.6      1.6    179.5       0.37     0.22     0.18
 44H     -180.0     26.2    179.9      -0.17    -0.13     0.01
 45H       -0.1     12.9     -0.0      -0.03     0.13     0.58
 46H      180.0     19.1    179.9      -0.02     0.14     0.57
 47H       -0.0     19.5     -0.1      -0.17    -0.13     0.01
-------------------------------------------------------------------


Maximum memory used throughout the entire EPRNMR-calculation: 210.7 MB

Timings for individual modules:

Sum of individual times         ...     4460.430 sec (=  74.341 min)
GTO integral calculation        ...        4.643 sec (=   0.077 min)   0.1 %
Spin-Orbit-Coupling Matrices    ...        9.163 sec (=   0.153 min)   0.2 %
SCF iterations                  ...       28.527 sec (=   0.475 min)   0.6 %
EPR/NMR calculation             ...     4418.097 sec (=  73.635 min)  99.1 %
                             ****ORCA TERMINATED NORMALLY****
TOTAL RUN TIME: 0 days 1 hours 14 minutes 24 seconds 785 msec
