
                                 *****************
                                 * O   R   C   A *
                                 *****************

                                            #,                                       
                                            ###                                      
                                            ####                                     
                                            #####                                    
                                            ######                                   
                                           ########,                                 
                                     ,,################,,,,,                         
                               ,,#################################,,                 
                          ,,##########################################,,             
                       ,#########################################, ''#####,          
                    ,#############################################,,   '####,        
                  ,##################################################,,,,####,       
                ,###########''''           ''''###############################       
              ,#####''   ,,,,##########,,,,          '''####'''          '####       
            ,##' ,,,,###########################,,,                        '##       
           ' ,,###''''                  '''############,,,                           
         ,,##''                                '''############,,,,        ,,,,,,###''
      ,#''                                            '''#######################'''  
     '                                                          ''''####''''         
             ,#######,   #######,   ,#######,      ##                                
            ,#'     '#,  ##    ##  ,#'     '#,    #''#        ######   ,####,        
            ##       ##  ##   ,#'  ##            #'  '#       #        #'  '#        
            ##       ##  #######   ##           ,######,      #####,   #    #        
            '#,     ,#'  ##    ##  '#,     ,#' ,#      #,         ##   #,  ,#        
             '#######'   ##     ##  '#######'  #'      '#     #####' # '####'        



                  #######################################################
                  #                        -***-                        #
                  #          Department of theory and spectroscopy      #
                  #    Directorship and core code : Frank Neese         #
                  #        Max Planck Institute fuer Kohlenforschung    #
                  #                Kaiser Wilhelm Platz 1               #
                  #                 D-45470 Muelheim/Ruhr               #
                  #                      Germany                        #
                  #                                                     #
                  #                  All rights reserved                #
                  #                        -***-                        #
                  #######################################################


                         Program Version 5.0.4 -  RELEASE  -


 With contributions from (in alphabetic order):
   Daniel Aravena         : Magnetic Suceptibility
   Michael Atanasov       : Ab Initio Ligand Field Theory (pilot matlab implementation)
   Alexander A. Auer      : GIAO ZORA, VPT2 properties, NMR spectrum
   Ute Becker             : Parallelization
   Giovanni Bistoni       : ED, misc. LED, open-shell LED, HFLD
   Martin Brehm           : Molecular dynamics
   Dmytro Bykov           : SCF Hessian
   Vijay G. Chilkuri      : MRCI spin determinant printing, contributions to CSF-ICE
   Dipayan Datta          : RHF DLPNO-CCSD density
   Achintya Kumar Dutta   : EOM-CC, STEOM-CC
   Dmitry Ganyushin       : Spin-Orbit,Spin-Spin,Magnetic field MRCI
   Miquel Garcia          : C-PCM and meta-GGA Hessian, CC/C-PCM, Gaussian charge scheme
   Yang Guo               : DLPNO-NEVPT2, F12-NEVPT2, CIM, IAO-localization
   Andreas Hansen         : Spin unrestricted coupled pair/coupled cluster methods
   Benjamin Helmich-Paris : MC-RPA, TRAH-SCF, COSX integrals
   Lee Huntington         : MR-EOM, pCC
   Robert Izsak           : Overlap fitted RIJCOSX, COSX-SCS-MP3, EOM
   Marcus Kettner         : VPT2
   Christian Kollmar      : KDIIS, OOCD, Brueckner-CCSD(T), CCSD density, CASPT2, CASPT2-K
   Simone Kossmann        : Meta GGA functionals, TD-DFT gradient, OOMP2, MP2 Hessian
   Martin Krupicka        : Initial AUTO-CI
   Lucas Lang             : DCDCAS
   Marvin Lechner         : AUTO-CI (C++ implementation), FIC-MRCC
   Dagmar Lenk            : GEPOL surface, SMD
   Dimitrios Liakos       : Extrapolation schemes; Compound Job, initial MDCI parallelization
   Dimitrios Manganas     : Further ROCIS development; embedding schemes
   Dimitrios Pantazis     : SARC Basis sets
   Anastasios Papadopoulos: AUTO-CI, single reference methods and gradients
   Taras Petrenko         : DFT Hessian,TD-DFT gradient, ASA, ECA, R-Raman, ABS, FL, XAS/XES, NRVS
   Peter Pinski           : DLPNO-MP2, DLPNO-MP2 Gradient
   Christoph Reimann      : Effective Core Potentials
   Marius Retegan         : Local ZFS, SOC
   Christoph Riplinger    : Optimizer, TS searches, QM/MM, DLPNO-CCSD(T), (RO)-DLPNO pert. Triples
   Tobias Risthaus        : Range-separated hybrids, TD-DFT gradient, RPA, STAB
   Michael Roemelt        : Original ROCIS implementation
   Masaaki Saitow         : Open-shell DLPNO-CCSD energy and density
   Barbara Sandhoefer     : DKH picture change effects
   Avijit Sen             : IP-ROCIS
   Kantharuban Sivalingam : CASSCF convergence, NEVPT2, FIC-MRCI
   Bernardo de Souza      : ESD, SOC TD-DFT
   Georgi Stoychev        : AutoAux, RI-MP2 NMR, DLPNO-MP2 response
   Willem Van den Heuvel  : Paramagnetic NMR
   Boris Wezisla          : Elementary symmetry handling
   Frank Wennmohs         : Technical directorship


 We gratefully acknowledge several colleagues who have allowed us to
 interface, adapt or use parts of their codes:
   Stefan Grimme, W. Hujo, H. Kruse, P. Pracht,  : VdW corrections, initial TS optimization,
                  C. Bannwarth, S. Ehlert          DFT functionals, gCP, sTDA/sTD-DF
   Ed Valeev, F. Pavosevic, A. Kumar             : LibInt (2-el integral package), F12 methods
   Garnet Chan, S. Sharma, J. Yang, R. Olivares  : DMRG
   Ulf Ekstrom                                   : XCFun DFT Library
   Mihaly Kallay                                 : mrcc  (arbitrary order and MRCC methods)
   Jiri Pittner, Ondrej Demel                    : Mk-CCSD
   Frank Weinhold                                : gennbo (NPA and NBO analysis)
   Christopher J. Cramer and Donald G. Truhlar   : smd solvation model
   Lars Goerigk                                  : TD-DFT with DH, B97 family of functionals
   V. Asgeirsson, H. Jonsson                     : NEB implementation
   FAccTs GmbH                                   : IRC, NEB, NEB-TS, DLPNO-Multilevel, CI-OPT
                                                   MM, QMMM, 2- and 3-layer-ONIOM, Crystal-QMMM,
                                                   LR-CPCM, SF, NACMEs, symmetry and pop. for TD-DFT,
                                                   nearIR, NL-DFT gradient (VV10), updates on ESD,
                                                   ML-optimized integration grids
   S Lehtola, MJT Oliveira, MAL Marques          : LibXC Library
   Liviu Ungur et al                             : ANISO software


 Your calculation uses the libint2 library for the computation of 2-el integrals
 For citations please refer to: http://libint.valeyev.net

 Your ORCA version has been built with support for libXC version: 5.1.0
 For citations please refer to: https://tddft.org/programs/libxc/

 This ORCA versions uses:
   CBLAS   interface :  Fast vector & matrix operations
   LAPACKE interface :  Fast linear algebra routines
   SCALAPACK package :  Parallel linear algebra routines
   Shared memory     :  Shared parallel matrices
   BLAS/LAPACK       :  OpenBLAS 0.3.15  USE64BITINT DYNAMIC_ARCH NO_AFFINITY SkylakeX SINGLE_THREADED
        Core in use  :  SkylakeX
   Copyright (c) 2011-2014, The OpenBLAS Project




***************************************
The coordinates will be read from file: opt.xyz
***************************************


================================================================================

----- Orbital basis set information -----
Your calculation utilizes the basis: cc-pVDZ 
       H, B-Ne : Obtained from the ccRepo (grant-hill.group.shef.ac.uk/ccrepo) Feb. 2017
                 T. H. Dunning, Jr., J. Chem. Phys. 90, 1007 (1989)
            He : Obtained from the ccRepo (grant-hill.group.shef.ac.uk/ccrepo) Feb. 2017
                 D. E. Woon, T. H. Dunning, Jr., J. Chem. Phys. 100, 2975 (1994)
  Li-Be, Na-Mg : Obtained from the ccRepo (grant-hill.group.shef.ac.uk/ccrepo) Feb. 2017
                 B. P. Prascher, D. E. Woon, K. A. Peterson, T. H. Dunning, Jr., A. K. Wilson, Theor. Chem. Acc. 128, 69 (2011)
         Al-Ar : Obtained from the ccRepo (grant-hill.group.shef.ac.uk/ccrepo) Feb. 2017
                 D. E. Woon, T. H. Dunning, Jr., J. Chem. Phys. 98, 1358 (1993)
            Ca : Obtained from the Peterson Research Group Website (tyr0.chem.wsu.edu/~kipeters) Feb. 2017
                 J. Koput, K. A. Peterson, J. Phys. Chem. 106, 9595 (2002)
         Sc-Zn : Obtained from the ccRepo (grant-hill.group.shef.ac.uk/ccrepo) Feb. 2017
                 N. B. Balabanov, K. A. Peterson, J. Chem. Phys. 123, 064107 (2005)
                 N. B. Balabanov, K. A. Peterson, J. Chem. Phys. 125, 074110 (2006)
         Ga-Kr : Obtained from the ccRepo (grant-hill.group.shef.ac.uk/ccrepo) Feb. 2017
                 A. K. Wilson, D. E. Woon, K. A. Peterson, T. H. Dunning, Jr., J. Chem. Phys. 110, 7667 (1999)

----- AuxJ basis set information -----
Your calculation utilizes the AutoAux generation procedure.
  G. L. Stoychev, A. A. Auer, F. Neese, J. Chem. Theory Comput. 13, 554 (2017)

----- AuxC basis set information -----
Your calculation utilizes the AutoAux generation procedure.
  G. L. Stoychev, A. A. Auer, F. Neese, J. Chem. Theory Comput. 13, 554 (2017)

----- AuxJK basis set information -----
Your calculation utilizes the AutoAux generation procedure.
  G. L. Stoychev, A. A. Auer, F. Neese, J. Chem. Theory Comput. 13, 554 (2017)

================================================================================
                                        WARNINGS
                       Please study these warnings very carefully!
================================================================================

WARNING: Old DensityContainer found on disk!
         Will remove this file - 
         If you want to keep old densities, please start your calculation with a different basename. 


WARNING: your system is open-shell and RHF/RKS was chosen
  ===> : WILL SWITCH to UHF/UKS


INFO   : the flag for use of the SHARK integral package has been found!

================================================================================
                                       INPUT FILE
================================================================================
NAME = cc-pVDZ.inp
|  1> ! B3LYP cc-pVDZ AUTOAUX
|  2> %pal nprocs 16 end
|  3> *XYZFile 0 4 opt.xyz
|  4> %EPRNMR
|  5>         GTENSOR   TRUE
|  6>         NUCLEI    = ALL H {SHIFT, AISO, ADIP, AORB}
|  7>         ORI       GIAO
|  8> END
|  9> 
| 10>                          ****END OF INPUT****
================================================================================

                       ****************************
                       * Single Point Calculation *
                       ****************************

---------------------------------
CARTESIAN COORDINATES (ANGSTROEM)
---------------------------------
  C     -2.832372    0.020293   -0.012674
  C      2.815948   -0.003360   -0.008875
  C     -1.420433    0.002453   -0.011651
  C     -0.709375   -1.248719   -0.014317
  C      0.676247   -1.190347   -0.013098
  C      1.395990    0.032013   -0.009547
  C      0.690981    1.274503   -0.006793
  C     -0.695552    1.234643   -0.007923
  H      1.255523   -2.114320   -0.015016
  H     -1.274064    2.157630   -0.005970
  C     -1.489895   -2.544872   -0.018304
  H     -2.165019   -2.534890   -0.894888
  H     -2.166965   -2.539083    0.856814
  C     -0.678575   -3.843149   -0.020503
  H     -0.014665   -3.868142   -0.904151
  H     -0.016787   -3.872413    0.864608
  C     -1.565109   -5.094476   -0.024598
  H     -2.232311   -5.070651    0.856894
  H     -2.230018   -5.066520   -0.907703
  C     -0.764607   -6.399272   -0.026630
  H     -0.116223   -6.472896    0.863534
  H     -0.113640   -6.468533   -0.915256
  C      1.471273    2.575323   -0.002841
  H      2.146769    2.566888    0.872422
  H      2.148153    2.571347   -0.877069
  C      0.658643    3.872512   -0.000192
  H     -0.003508    3.902839   -0.885023
  H     -0.005190    3.898229    0.883519
  C      1.545480    5.123771    0.003914
  H      2.210563    5.095343    0.886947
  H      2.212467    5.099765   -0.877811
  C      0.745911    6.429167    0.006343
  H      0.095138    6.498653    0.895068
  H      0.097365    6.503336   -0.883633
  C      4.039703   -0.047094   -0.010051
  H     -1.427402   -7.279815   -0.029757
  H      1.409174    7.309394    0.009496
  C      5.464853   -0.099872   -0.009745
  C      6.139075   -1.341626   -0.011166
  C      7.532527   -1.388475   -0.010865
  C      8.280425   -0.205272   -0.009185
  C      7.623150    1.030678   -0.007808
  C      6.230136    1.087990   -0.008102
  H      9.372096   -0.246369   -0.008970
  H      8.201473    1.957801   -0.006530
  H      5.554032   -2.263250   -0.012463
  H      5.715792    2.050851   -0.007084
  H      8.040096   -2.356142   -0.011943

----------------------------
CARTESIAN COORDINATES (A.U.)
----------------------------
  NO LB      ZA    FRAG     MASS         X           Y           Z
   0 C     6.0000    0    12.011   -5.352408    0.038349   -0.023950
   1 C     6.0000    0    12.011    5.321371   -0.006349   -0.016770
   2 C     6.0000    0    12.011   -2.684229    0.004635   -0.022017
   3 C     6.0000    0    12.011   -1.340524   -2.359736   -0.027055
   4 C     6.0000    0    12.011    1.277922   -2.249430   -0.024752
   5 C     6.0000    0    12.011    2.638039    0.060496   -0.018041
   6 C     6.0000    0    12.011    1.305765    2.408461   -0.012838
   7 C     6.0000    0    12.011   -1.314403    2.333137   -0.014972
   8 H     1.0000    0     1.008    2.372596   -3.995485   -0.028375
   9 H     1.0000    0     1.008   -2.407632    4.077330   -0.011282
  10 C     6.0000    0    12.011   -2.815494   -4.809112   -0.034589
  11 H     1.0000    0     1.008   -4.091294   -4.790248   -1.691093
  12 H     1.0000    0     1.008   -4.094971   -4.798172    1.619143
  13 C     6.0000    0    12.011   -1.282321   -7.262500   -0.038745
  14 H     1.0000    0     1.008   -0.027712   -7.309728   -1.708597
  15 H     1.0000    0     1.008   -0.031723   -7.317800    1.633873
  16 C     6.0000    0    12.011   -2.957628   -9.627164   -0.046484
  17 H     1.0000    0     1.008   -4.218456   -9.582142    1.619295
  18 H     1.0000    0     1.008   -4.214122   -9.574335   -1.715311
  19 C     6.0000    0    12.011   -1.444898  -12.092871   -0.050324
  20 H     1.0000    0     1.008   -0.219630  -12.232000    1.631843
  21 H     1.0000    0     1.008   -0.214748  -12.223756   -1.729584
  22 C     6.0000    0    12.011    2.780303    4.866655   -0.005369
  23 H     1.0000    0     1.008    4.056805    4.850715    1.648638
  24 H     1.0000    0     1.008    4.059421    4.859141   -1.657420
  25 C     6.0000    0    12.011    1.244655    7.317988   -0.000363
  26 H     1.0000    0     1.008   -0.006629    7.375296   -1.672451
  27 H     1.0000    0     1.008   -0.009808    7.366586    1.669608
  28 C     6.0000    0    12.011    2.920533    9.682524    0.007397
  29 H     1.0000    0     1.008    4.177358    9.628803    1.676087
  30 H     1.0000    0     1.008    4.180957    9.637159   -1.658822
  31 C     6.0000    0    12.011    1.409567   12.149365    0.011986
  32 H     1.0000    0     1.008    0.179785   12.280675    1.691434
  33 H     1.0000    0     1.008    0.183993   12.289523   -1.669824
  34 C     6.0000    0    12.011    7.633932   -0.088996   -0.018993
  35 H     1.0000    0     1.008   -2.697399  -13.756856   -0.056233
  36 H     1.0000    0     1.008    2.662953   13.812753    0.017944
  37 C     6.0000    0    12.011   10.327076   -0.188731   -0.018416
  38 C     6.0000    0    12.011   11.601171   -2.535306   -0.021101
  39 C     6.0000    0    12.011   14.234413   -2.623837   -0.020532
  40 C     6.0000    0    12.011   15.647736   -0.387908   -0.017358
  41 C     6.0000    0    12.011   14.405666    1.947699   -0.014755
  42 C     6.0000    0    12.011   11.773251    2.056004   -0.015310
  43 H     1.0000    0     1.008   17.710695   -0.465570   -0.016951
  44 H     1.0000    0     1.008   15.498538    3.699708   -0.012339
  45 H     1.0000    0     1.008   10.495600   -4.276922   -0.023552
  46 H     1.0000    0     1.008   10.801281    3.875547   -0.013386
  47 H     1.0000    0     1.008   15.193579   -4.452463   -0.022569

--------------------------------
INTERNAL COORDINATES (ANGSTROEM)
--------------------------------
 C      0   0   0     0.000000000000     0.00000000     0.00000000
 C      1   0   0     5.648371411379     0.00000000     0.00000000
 C      1   2   0     1.412052410131     0.48399979     0.00000000
 C      3   1   2     1.439110925347   120.33393721   180.49901129
 C      4   3   1     1.386851603607   117.19774424   180.00093494
 C      5   4   3     1.418522545188   122.90246480     0.00000000
 C      6   5   4     1.428574851022   119.93867313     0.00000000
 C      7   6   5     1.387106522290   117.92445965     0.00000000
 H      5   4   3     1.090546010016   119.67285649   179.99941953
 H      8   7   6     1.089304504246   120.43191416   180.00317804
 C      4   3   1     1.513024414007   119.33438938     0.00000000
 H     11   4   3     1.106476934100   108.00616054    56.35971479
 H     11   4   3     1.106475356934   108.00509203   303.68145240
 C     11   4   3     1.530937224584   116.94238629   180.02130969
 H     14  11   4     1.105547139866   109.78966878   301.77629958
 H     14  11   4     1.105550548860   109.78719729    58.23252965
 C     14  11   4     1.533550540365   112.68135219   180.00388664
 H     17  14  11     1.105782371630   109.21402002   302.33994741
 H     17  14  11     1.105784538256   109.21482005    57.67690433
 C     17  14  11     1.530784472306   113.15404191   180.00798781
 H     20  17  14     1.103727587771   111.28363119    59.86999512
 H     20  17  14     1.103726420698   111.28327752   300.15101945
 C      7   6   5     1.516906313098   119.47159453   179.99285762
 H     23   7   6     1.105645097064   108.04668043   303.67913344
 H     23   7   6     1.105647474934   108.04543251    56.30873167
 C     23   7   6     1.530710492470   116.97761772   179.99278060
 H     26  23   7     1.105571852979   109.86582102   301.73035804
 H     26  23   7     1.105568216179   109.86850634    58.25205801
 C     26  23   7     1.533669768461   112.60758559   179.99214220
 H     29  26  23     1.105843882251   109.20423391   302.32314070
 H     29  26  23     1.105842417270   109.20335069    57.65507529
 C     29  26  23     1.530808990943   113.18492367   179.98964435
 H     32  29  26     1.103705872771   111.28060053    59.84267414
 H     32  29  26     1.103707040443   111.28102452   300.13341799
 C      2   1   3     1.224536319945   178.19073806     3.31639934
 H     20  17  14     1.102117558145   111.50148117   180.01088745
 H     32  29  26     1.102146891879   111.51372945   179.98760947
 C     35   2   6     1.426127577528   179.89990264   310.19601817
 C     38  35   2     1.412986201726   120.62099441    42.32709590
 C     39  38  35     1.394238967254   120.42572579   179.99983889
 C     40  39  38     1.399758125314   120.37123022     0.00000000
 C     41  40  39     1.399851587805   119.69928473     0.00000000
 C     42  41  40     1.394192569463   120.35987142     0.00000000
 H     41  40  39     1.092444106171   120.14088570   180.00092837
 H     42  41  40     1.092710465420   120.04093837   180.00217752
 H     39  38  35     1.091635284161   119.09265827     0.00000000
 H     43  42  41     1.091628016075   120.46637030   180.00332008
 H     40  39  38     1.092706400042   119.60383643   179.99794411

---------------------------
INTERNAL COORDINATES (A.U.)
---------------------------
 C      0   0   0     0.000000000000     0.00000000     0.00000000
 C      1   0   0    10.673875070176     0.00000000     0.00000000
 C      1   2   0     2.668392341891     0.48399979     0.00000000
 C      3   1   2     2.719525525239   120.33393721   180.49901129
 C      4   3   1     2.620769719207   117.19774424   180.00093494
 C      5   4   3     2.680619125199   122.90246480     0.00000000
 C      6   5   4     2.699615230238   119.93867313     0.00000000
 C      7   6   5     2.621251445705   117.92445965     0.00000000
 H      5   4   3     2.060833295371   119.67285649   179.99941953
 H      8   7   6     2.058487189472   120.43191416   180.00317804
 C      4   3   1     2.859201776411   119.33438938     0.00000000
 H     11   4   3     2.090938378949   108.00616054    56.35971479
 H     11   4   3     2.090935398538   108.00509203   303.68145240
 C     11   4   3     2.893052082689   116.94238629   180.02130969
 H     14  11   4     2.089181322486   109.78966878   301.77629958
 H     14  11   4     2.089187764551   109.78719729    58.23252965
 C     14  11   4     2.897990533818   112.68135219   180.00388664
 H     17  14  11     2.089625846098   109.21402002   302.33994741
 H     17  14  11     2.089629940428   109.21482005    57.67690433
 C     17  14  11     2.892763422717   113.15404191   180.00798781
 H     20  17  14     2.085742867341   111.28363119    59.86999512
 H     20  17  14     2.085740661892   111.28327752   300.15101945
 C      7   6   5     2.866537502572   119.47159453   179.99285762
 H     23   7   6     2.089366434764   108.04668043   303.67913344
 H     23   7   6     2.089370928286   108.04543251    56.30873167
 C     23   7   6     2.892623621088   116.97761772   179.99278060
 H     26  23   7     2.089228023501   109.86582102   301.73035804
 H     26  23   7     2.089221150947   109.86850634    58.25205801
 C     26  23   7     2.898215842266   112.60758559   179.99214220
 H     29  26  23     2.089742084327   109.20423391   302.32314070
 H     29  26  23     2.089739315914   109.20335069    57.65507529
 C     29  26  23     2.892809756227   113.18492367   179.98964435
 H     32  29  26     2.085701831937   111.28060053    59.84267414
 H     32  29  26     2.085704038518   111.28102452   300.13341799
 C      2   1   3     2.314038285735   178.19073806     3.31639934
 H     20  17  14     2.082700352280   111.50148117   180.01088745
 H     32  29  26     2.082755785004   111.51372945   179.98760947
 C     35   2   6     2.694990553561   179.89990264   310.19601817
 C     38  35   2     2.670156952272   120.62099441    42.32709590
 C     39  38  35     2.634729813351   120.42572579   179.99983889
 C     40  39  38     2.645159510574   120.37123022     0.00000000
 C     41  40  39     2.645336129086   119.69928473     0.00000000
 C     42  41  40     2.634642134233   120.35987142     0.00000000
 H     41  40  39     2.064420177280   120.14088570   180.00092837
 H     42  41  40     2.064923523314   120.04093837   180.00217752
 H     39  38  35     2.062891725190   119.09265827     0.00000000
 H     43  42  41     2.062877990497   120.46637030   180.00332008
 H     40  39  38     2.064915840862   119.60383643   179.99794411

---------------------
BASIS SET INFORMATION
---------------------
There are 2 groups of distinct atoms

 Group   1 Type C   : 17s4p1d contracted to 3s2p1d pattern {881/31/1}
 Group   2 Type H   : 4s1p contracted to 2s1p pattern {31/1}

Atom   0C    basis set group =>   1
Atom   1C    basis set group =>   1
Atom   2C    basis set group =>   1
Atom   3C    basis set group =>   1
Atom   4C    basis set group =>   1
Atom   5C    basis set group =>   1
Atom   6C    basis set group =>   1
Atom   7C    basis set group =>   1
Atom   8H    basis set group =>   2
Atom   9H    basis set group =>   2
Atom  10C    basis set group =>   1
Atom  11H    basis set group =>   2
Atom  12H    basis set group =>   2
Atom  13C    basis set group =>   1
Atom  14H    basis set group =>   2
Atom  15H    basis set group =>   2
Atom  16C    basis set group =>   1
Atom  17H    basis set group =>   2
Atom  18H    basis set group =>   2
Atom  19C    basis set group =>   1
Atom  20H    basis set group =>   2
Atom  21H    basis set group =>   2
Atom  22C    basis set group =>   1
Atom  23H    basis set group =>   2
Atom  24H    basis set group =>   2
Atom  25C    basis set group =>   1
Atom  26H    basis set group =>   2
Atom  27H    basis set group =>   2
Atom  28C    basis set group =>   1
Atom  29H    basis set group =>   2
Atom  30H    basis set group =>   2
Atom  31C    basis set group =>   1
Atom  32H    basis set group =>   2
Atom  33H    basis set group =>   2
Atom  34C    basis set group =>   1
Atom  35H    basis set group =>   2
Atom  36H    basis set group =>   2
Atom  37C    basis set group =>   1
Atom  38C    basis set group =>   1
Atom  39C    basis set group =>   1
Atom  40C    basis set group =>   1
Atom  41C    basis set group =>   1
Atom  42C    basis set group =>   1
Atom  43H    basis set group =>   2
Atom  44H    basis set group =>   2
Atom  45H    basis set group =>   2
Atom  46H    basis set group =>   2
Atom  47H    basis set group =>   2
---------------------------------
AUXILIARY/J BASIS SET INFORMATION
---------------------------------
There are 2 groups of distinct atoms

 Group   1 Type C   : 14s11p10d2f contracted to 14s11p10d2f pattern {11111111111111/11111111111/1111111111/11}
 Group   2 Type H   : 9s2p1d contracted to 9s2p1d pattern {111111111/11/1}

Atom   0C    basis set group =>   1
Atom   1C    basis set group =>   1
Atom   2C    basis set group =>   1
Atom   3C    basis set group =>   1
Atom   4C    basis set group =>   1
Atom   5C    basis set group =>   1
Atom   6C    basis set group =>   1
Atom   7C    basis set group =>   1
Atom   8H    basis set group =>   2
Atom   9H    basis set group =>   2
Atom  10C    basis set group =>   1
Atom  11H    basis set group =>   2
Atom  12H    basis set group =>   2
Atom  13C    basis set group =>   1
Atom  14H    basis set group =>   2
Atom  15H    basis set group =>   2
Atom  16C    basis set group =>   1
Atom  17H    basis set group =>   2
Atom  18H    basis set group =>   2
Atom  19C    basis set group =>   1
Atom  20H    basis set group =>   2
Atom  21H    basis set group =>   2
Atom  22C    basis set group =>   1
Atom  23H    basis set group =>   2
Atom  24H    basis set group =>   2
Atom  25C    basis set group =>   1
Atom  26H    basis set group =>   2
Atom  27H    basis set group =>   2
Atom  28C    basis set group =>   1
Atom  29H    basis set group =>   2
Atom  30H    basis set group =>   2
Atom  31C    basis set group =>   1
Atom  32H    basis set group =>   2
Atom  33H    basis set group =>   2
Atom  34C    basis set group =>   1
Atom  35H    basis set group =>   2
Atom  36H    basis set group =>   2
Atom  37C    basis set group =>   1
Atom  38C    basis set group =>   1
Atom  39C    basis set group =>   1
Atom  40C    basis set group =>   1
Atom  41C    basis set group =>   1
Atom  42C    basis set group =>   1
Atom  43H    basis set group =>   2
Atom  44H    basis set group =>   2
Atom  45H    basis set group =>   2
Atom  46H    basis set group =>   2
Atom  47H    basis set group =>   2
---------------------------------
AUXILIARY/C BASIS SET INFORMATION
---------------------------------
There are 2 groups of distinct atoms

 Group   1 Type C   : 14s11p10d2f contracted to 14s11p10d2f pattern {11111111111111/11111111111/1111111111/11}
 Group   2 Type H   : 9s2p1d contracted to 9s2p1d pattern {111111111/11/1}

Atom   0C    basis set group =>   1
Atom   1C    basis set group =>   1
Atom   2C    basis set group =>   1
Atom   3C    basis set group =>   1
Atom   4C    basis set group =>   1
Atom   5C    basis set group =>   1
Atom   6C    basis set group =>   1
Atom   7C    basis set group =>   1
Atom   8H    basis set group =>   2
Atom   9H    basis set group =>   2
Atom  10C    basis set group =>   1
Atom  11H    basis set group =>   2
Atom  12H    basis set group =>   2
Atom  13C    basis set group =>   1
Atom  14H    basis set group =>   2
Atom  15H    basis set group =>   2
Atom  16C    basis set group =>   1
Atom  17H    basis set group =>   2
Atom  18H    basis set group =>   2
Atom  19C    basis set group =>   1
Atom  20H    basis set group =>   2
Atom  21H    basis set group =>   2
Atom  22C    basis set group =>   1
Atom  23H    basis set group =>   2
Atom  24H    basis set group =>   2
Atom  25C    basis set group =>   1
Atom  26H    basis set group =>   2
Atom  27H    basis set group =>   2
Atom  28C    basis set group =>   1
Atom  29H    basis set group =>   2
Atom  30H    basis set group =>   2
Atom  31C    basis set group =>   1
Atom  32H    basis set group =>   2
Atom  33H    basis set group =>   2
Atom  34C    basis set group =>   1
Atom  35H    basis set group =>   2
Atom  36H    basis set group =>   2
Atom  37C    basis set group =>   1
Atom  38C    basis set group =>   1
Atom  39C    basis set group =>   1
Atom  40C    basis set group =>   1
Atom  41C    basis set group =>   1
Atom  42C    basis set group =>   1
Atom  43H    basis set group =>   2
Atom  44H    basis set group =>   2
Atom  45H    basis set group =>   2
Atom  46H    basis set group =>   2
Atom  47H    basis set group =>   2
----------------------------------
AUXILIARY/JK BASIS SET INFORMATION
----------------------------------
There are 2 groups of distinct atoms

 Group   1 Type C   : 14s11p10d2f contracted to 14s11p10d2f pattern {11111111111111/11111111111/1111111111/11}
 Group   2 Type H   : 9s2p1d contracted to 9s2p1d pattern {111111111/11/1}

Atom   0C    basis set group =>   1
Atom   1C    basis set group =>   1
Atom   2C    basis set group =>   1
Atom   3C    basis set group =>   1
Atom   4C    basis set group =>   1
Atom   5C    basis set group =>   1
Atom   6C    basis set group =>   1
Atom   7C    basis set group =>   1
Atom   8H    basis set group =>   2
Atom   9H    basis set group =>   2
Atom  10C    basis set group =>   1
Atom  11H    basis set group =>   2
Atom  12H    basis set group =>   2
Atom  13C    basis set group =>   1
Atom  14H    basis set group =>   2
Atom  15H    basis set group =>   2
Atom  16C    basis set group =>   1
Atom  17H    basis set group =>   2
Atom  18H    basis set group =>   2
Atom  19C    basis set group =>   1
Atom  20H    basis set group =>   2
Atom  21H    basis set group =>   2
Atom  22C    basis set group =>   1
Atom  23H    basis set group =>   2
Atom  24H    basis set group =>   2
Atom  25C    basis set group =>   1
Atom  26H    basis set group =>   2
Atom  27H    basis set group =>   2
Atom  28C    basis set group =>   1
Atom  29H    basis set group =>   2
Atom  30H    basis set group =>   2
Atom  31C    basis set group =>   1
Atom  32H    basis set group =>   2
Atom  33H    basis set group =>   2
Atom  34C    basis set group =>   1
Atom  35H    basis set group =>   2
Atom  36H    basis set group =>   2
Atom  37C    basis set group =>   1
Atom  38C    basis set group =>   1
Atom  39C    basis set group =>   1
Atom  40C    basis set group =>   1
Atom  41C    basis set group =>   1
Atom  42C    basis set group =>   1
Atom  43H    basis set group =>   2
Atom  44H    basis set group =>   2
Atom  45H    basis set group =>   2
Atom  46H    basis set group =>   2
Atom  47H    basis set group =>   2

Checking for AutoStart:
The File: cc-pVDZ.gbw exists
Trying to determine its content:
     ... Fine, the file contains calculation information
     ... Fine, the calculation information was read
     ... Fine, the file contains a basis set
     ... Fine, the basis set was read
     ... Fine, the file contains a geometry
     ... Fine, the geometry was read
     ... Fine, the file contains a set of orbitals
     ... Fine, the orbitals can be read
     => possible old guess file was deleted
     => GBW file was renamed to GES file
     => GES file is set as startup file
     => Guess is set to MORead
     ... now leaving AutoStart



           ************************************************************
           *        Program running with 16 parallel MPI-processes    *
           *              working on a common directory               *
           ************************************************************
------------------------------------------------------------------------------
                           ORCA GTO INTEGRAL CALCULATION
                           -- RI-GTO INTEGRALS CHOSEN --
------------------------------------------------------------------------------
------------------------------------------------------------------------------
                   ___                                                        
                  /   \      - P O W E R E D   B Y -                         
                 /     \                                                     
                 |  |  |   _    _      __       _____    __    __             
                 |  |  |  | |  | |    /  \     |  _  \  |  |  /  |          
                  \  \/   | |  | |   /    \    | | | |  |  | /  /          
                 / \  \   | |__| |  /  /\  \   | |_| |  |  |/  /          
                |  |  |   |  __  | /  /__\  \  |    /   |      \           
                |  |  |   | |  | | |   __   |  |    \   |  |\   \          
                \     /   | |  | | |  |  |  |  | |\  \  |  | \   \       
                 \___/    |_|  |_| |__|  |__|  |_| \__\ |__|  \__/        
                                                                              
                      - O R C A' S   B I G   F R I E N D -                    
                                      &                                       
                       - I N T E G R A L  F E E D E R -                       
                                                                              
 v1 FN, 2020, v2 2021                                                         
------------------------------------------------------------------------------


Reading SHARK input file cc-pVDZ.SHARKINP.tmp ... ok
----------------------
SHARK INTEGRAL PACKAGE
----------------------

Number of atoms                             ...     48
Number of basis functions                   ...    585
Number of shells                            ...    351
Maximum angular momentum                    ...      2
Integral batch strategy                     ... SHARK/LIBINT Hybrid
RI-J (if used) integral strategy            ... SPLIT-RIJ (Revised 2003 algorithm where possible)
Printlevel                                  ...      1
Contraction scheme used                     ... PARTIAL GENERAL contraction
Coulomb Range Separation                    ... NOT USED
Exchange Range Separation                   ... NOT USED
Finite Nucleus Model                        ... NOT USED
Auxiliary Coulomb fitting basis             ... AVAILABLE
   # of basis functions in Aux-J            ...   3053
   # of shells in Aux-J                     ...   1151
   Maximum angular momentum in Aux-J        ...      3
Auxiliary J/K fitting basis                 ... AVAILABLE
   # of basis functions in Aux-JK           ...   3053
   # of shells in Aux-JK                    ...   1151
   Maximum angular momentum in Aux-JK       ...      3
Auxiliary Correlation fitting basis         ... AVAILABLE
   # of basis functions in Aux-C            ...   3053
   # of shells in Aux-C                     ...   1151
   Maximum angular momentum in Aux-C        ...      3
Auxiliary 'external' fitting basis          ... NOT available
Integral threshold                          ...     1.000000e-10
Primitive cut-off                           ...     1.000000e-11
Primitive pair pre-selection threshold      ...     1.000000e-11

Calculating pre-screening integrals         ... done (  0.0 sec) Dimension = 351
Calculating pre-screening integrals (ORCA)  ... done (  0.1 sec) Dimension = 213
Organizing shell pair data                  ... done (  0.2 sec)
Shell pair information
Total number of shell pairs                 ...     61776
Shell pairs after pre-screening             ...     24410
Total number of primitive shell pairs       ...    100272
Primitive shell pairs kept                  ...     33080
          la=0 lb=0:  10608 shell pairs
          la=1 lb=0:   8626 shell pairs
          la=1 lb=1:   1530 shell pairs
          la=2 lb=0:   2565 shell pairs
          la=2 lb=1:    929 shell pairs
          la=2 lb=2:    152 shell pairs

Calculating one electron integrals          ... done (  0.0 sec)
Calculating RI/J V-Matrix + Cholesky decomp.... done (  0.6 sec)
Calculating RI/JK V-Matrix + Cholesky decomp... done (  0.5 sec)
Calculating RI/C V-Matrix + Cholesky decomp.... done (  0.5 sec)
Calculating Nuclear repulsion               ... done (  0.0 sec) ENN=   1629.670574765028 Eh

SHARK setup successfully completed in   2.3 seconds

Maximum memory used throughout the entire GTOINT-calculation: 39.5 MB


           ************************************************************
           *        Program running with 16 parallel MPI-processes    *
           *              working on a common directory               *
           ************************************************************
-------------------------------------------------------------------------------
                                 ORCA SCF
-------------------------------------------------------------------------------

------------
SCF SETTINGS
------------
Hamiltonian:
 Density Functional     Method          .... DFT(GTOs)
 Exchange Functional    Exchange        .... B88
   X-Alpha parameter    XAlpha          ....  0.666667
   Becke's b parameter  XBeta           ....  0.004200
 Correlation Functional Correlation     .... LYP
 LDA part of GGA corr.  LDAOpt          .... VWN-5
 Gradients option       PostSCFGGA      .... off
 Hybrid DFT is turned on
   Fraction HF Exchange ScalHFX         ....  0.200000
   Scaling of DF-GGA-X  ScalDFX         ....  0.720000
   Scaling of DF-GGA-C  ScalDFC         ....  0.810000
   Scaling of DF-LDA-C  ScalLDAC        ....  1.000000
   Perturbative correction              ....  0.000000
   Density functional embedding theory  .... OFF
   NL short-range parameter             ....  4.800000
 RI-approximation to the Coulomb term is turned on
   Number of AuxJ basis functions       .... 3053
   RIJ-COSX (HFX calculated with COS-X)).... on


General Settings:
 Integral files         IntName         .... cc-pVDZ
 Hartree-Fock type      HFTyp           .... UHF
 Total Charge           Charge          ....    0
 Multiplicity           Mult            ....    4
 Number of Electrons    NEL             ....  163
 Basis Dimension        Dim             ....  447
 Nuclear Repulsion      ENuc            ....   1629.6705747650 Eh

Convergence Acceleration:
 DIIS                   CNVDIIS         .... on
   Start iteration      DIISMaxIt       ....    12
   Startup error        DIISStart       ....  0.200000
   # of expansion vecs  DIISMaxEq       ....     5
   Bias factor          DIISBfac        ....   1.050
   Max. coefficient     DIISMaxC        ....  10.000
 Trust-Rad. Augm. Hess. CNVTRAH         .... auto
   Auto Start mean grad. ratio tolernc. ....  1.125000
   Auto Start start iteration           ....     1
   Auto Start num. interpolation iter.  ....    10
   Max. Number of Micro iterations      ....    16
   Max. Number of Macro iterations      .... Maxiter - #DIIS iter
   Number of Davidson start vectors     ....     2
   Converg. threshold I  (grad. norm)   ....   5.000e-05
   Converg. threshold II (energy diff.) ....   1.000e-06
   Grad. Scal. Fac. for Micro threshold ....   0.100
   Minimum threshold for Micro iter.    ....   0.010
   NR start threshold (gradient norm)   ....   0.001
   Initial trust radius                 ....   0.400
   Minimum AH scaling param. (alpha)    ....   1.000
   Maximum AH scaling param. (alpha)    .... 1000.000
   Orbital update algorithm             .... Taylor
   White noise on init. David. guess    .... on
   Maximum white noise                  ....   0.010
   Quad. conv. algorithm                .... NR
 SOSCF                  CNVSOSCF        .... off
 Level Shifting         CNVShift        .... on
   Level shift para.    LevelShift      ....    0.2500
   Turn off err/grad.   ShiftErr        ....    0.0010
 Zerner damping         CNVZerner       .... off
 Static damping         CNVDamp         .... on
   Fraction old density DampFac         ....    0.7000
   Max. Damping (<1)    DampMax         ....    0.9800
   Min. Damping (>=0)   DampMin         ....    0.0000
   Turn off err/grad.   DampErr         ....    0.1000
 Fernandez-Rico         CNVRico         .... off

SCF Procedure:
 Maximum # iterations   MaxIter         ....   125
 SCF integral mode      SCFMode         .... Direct
   Integral package                     .... SHARK and LIBINT hybrid scheme
 Reset frequency        DirectResetFreq ....    20
 Integral Threshold     Thresh          ....  1.000e-10 Eh
 Primitive CutOff       TCut            ....  1.000e-11 Eh

Convergence Tolerance:
 Convergence Check Mode ConvCheckMode   .... Total+1el-Energy
 Convergence forced     ConvForced      .... 0
 Energy Change          TolE            ....  1.000e-06 Eh
 1-El. energy change                    ....  1.000e-03 Eh
 DIIS Error             TolErr          ....  1.000e-06


Diagonalization of the overlap matrix:
Smallest eigenvalue                        ... 5.263e-05
Time for diagonalization                   ...    0.051 sec
Threshold for overlap eigenvalues          ... 1.000e-08
Number of eigenvalues below threshold      ... 0
Time for construction of square roots      ...    0.044 sec
Total time needed                          ...    0.096 sec

---------------------
INITIAL GUESS: MOREAD
---------------------
Guess MOs are being read from file: cc-pVDZ.ges
Input geometry compatible with but different from current geometry
Input basis set matches current basis set (good)
MOs were renormalized
MOs were reorthogonalized (Cholesky)
                      ------------------
                      INITIAL GUESS DONE (   0.2 sec)
                      ------------------
-------------------
DFT GRID GENERATION
-------------------

General Integration Accuracy     IntAcc      ... 4.388
Radial Grid Type                 RadialGrid  ... OptM3 with GC (2021)
Angular Grid (max. ang.)         AngularGrid ... 4 (Lebedev-302)
Angular grid pruning method      GridPruning ... 4 (adaptive)
Weight generation scheme         WeightScheme... Becke
Basis function cutoff            BFCut       ... 1.0000e-10
Integration weight cutoff        WCut        ... 1.0000e-14
Angular grids for H and He will be reduced by one unit
Partially contracted basis set               ... off
Rotationally invariant grid construction     ... off

Total number of grid points                  ...   217082
Total number of batches                      ...     3416
Average number of points per batch           ...       63
Average number of grid points per atom       ...     4523
Time for grid setup =    1.342 sec

--------------------
COSX GRID GENERATION
--------------------

GRIDX 1
-------
General Integration Accuracy     IntAcc      ... 3.816
Radial Grid Type                 RadialGrid  ... OptM3 with GC (2021)
Angular Grid (max. ang.)         AngularGrid ... 1 (Lebedev-50)
Angular grid pruning method      GridPruning ... 4 (adaptive)
Weight generation scheme         WeightScheme... Becke
Basis function cutoff            BFCut       ... 1.0000e-10
Integration weight cutoff        WCut        ... 1.0000e-14
Angular grids for H and He will be reduced by one unit
Partially contracted basis set               ... on
Rotationally invariant grid construction     ... off

Total number of grid points                  ...    27656
Total number of batches                      ...      458
Average number of points per batch           ...       60
Average number of grid points per atom       ...      576
UseSFitting                                  ... on

GRIDX 2
-------
General Integration Accuracy     IntAcc      ... 4.020
Radial Grid Type                 RadialGrid  ... OptM3 with GC (2021)
Angular Grid (max. ang.)         AngularGrid ... 2 (Lebedev-110)
Angular grid pruning method      GridPruning ... 4 (adaptive)
Weight generation scheme         WeightScheme... Becke
Basis function cutoff            BFCut       ... 1.0000e-10
Integration weight cutoff        WCut        ... 1.0000e-14
Angular grids for H and He will be reduced by one unit
Partially contracted basis set               ... on
Rotationally invariant grid construction     ... off

Total number of grid points                  ...    58857
Total number of batches                      ...      944
Average number of points per batch           ...       62
Average number of grid points per atom       ...     1226
UseSFitting                                  ... on

GRIDX 3
-------
General Integration Accuracy     IntAcc      ... 4.338
Radial Grid Type                 RadialGrid  ... OptM3 with GC (2021)
Angular Grid (max. ang.)         AngularGrid ... 3 (Lebedev-194)
Angular grid pruning method      GridPruning ... 4 (adaptive)
Weight generation scheme         WeightScheme... Becke
Basis function cutoff            BFCut       ... 1.0000e-10
Integration weight cutoff        WCut        ... 1.0000e-14
Angular grids for H and He will be reduced by one unit
Partially contracted basis set               ... on
Rotationally invariant grid construction     ... off

Total number of grid points                  ...   128750
Total number of batches                      ...     2038
Average number of points per batch           ...       63
Average number of grid points per atom       ...     2682
UseSFitting                                  ... on

Time for X-Grid setup             =    2.212 sec

 re-compute Schwartz prescreening matrix in partically contracted basis (1) ...done (   0.120 sec)
--------------
SCF ITERATIONS
--------------
ITER       Energy         Delta-E        Max-DP      RMS-DP      [F,P]     Damp
               ***  Starting incremental Fock matrix formation  ***
  0   -890.5258726365   0.000000000000 0.07136102  0.00059367  0.0712927 0.7000
  1   -890.6246059096  -0.098733273007 0.04922788  0.00031310  0.0193676 0.7000
                               ***Turning on DIIS***
  2   -890.6285392602  -0.003933350655 0.11254598  0.00086483  0.0419039 0.0000
  3   -890.6395503400  -0.011011079828 0.02290131  0.00020063  0.0432638 0.0000
  4   -890.6622181341  -0.022667794061 0.01585685  0.00017618  0.0329429 0.0000
  5   -890.6748237883  -0.012605654158 0.02940394  0.00020104  0.0259828 0.0000
  6   -890.6896999385  -0.014876150239 0.01655188  0.00012856  0.0149059 0.0000
  7   -890.6943635141  -0.004663575561 0.01172805  0.00008498  0.0077306 0.0000
  8   -890.6964230718  -0.002059557731 0.00716397  0.00004462  0.0045247 0.0000
  9   -890.6970810756  -0.000658003768 0.00399759  0.00002841  0.0026689 0.0000
 10   -890.6973212910  -0.000240215459 0.00242675  0.00001994  0.0013671 0.0000
 11   -890.6974219533  -0.000100662313 0.00191051  0.00001282  0.0010779 0.0000
 12   -890.6974679130  -0.000045959681 0.00325952  0.00002174  0.0006479 0.0000
               *** Restarting incremental Fock matrix formation ***
                                   *** Resetting DIIS ***
 13   -890.6975056278  -0.000037714789 0.00064545  0.00000630  0.0001414 0.0000
                 **** Energy Check signals convergence ****

               *****************************************************
               *                     SUCCESS                       *
               *           SCF CONVERGED AFTER  14 CYCLES          *
               *****************************************************

Old exchange energy                            =    -25.612812539 Eh
New exchange energy                            =    -25.612909926 Eh
Exchange energy change after final integration =     -0.000097387 Eh
Total energy after final integration           =   -890.697602632 Eh
Final COS-X integration done in                =     6.906 sec

----------------
TOTAL SCF ENERGY
----------------

Total Energy       :         -890.69760263 Eh          -24237.11396 eV

Components:
Nuclear Repulsion  :         1629.67057477 Eh           44345.59083 eV
Electronic Energy  :        -2520.36817740 Eh          -68582.70478 eV
One Electron Energy:        -4437.52553620 Eh         -120751.20871 eV
Two Electron Energy:         1917.15735881 Eh           52168.50393 eV
Max COSX asymmetry :            0.00000125 Eh               0.00003 eV

Virial components:
Potential Energy   :        -1775.24360542 Eh          -48306.83438 eV
Kinetic Energy     :          884.54600279 Eh           24069.72042 eV
Virial Ratio       :            2.00695453


DFT components:
N(Alpha)           :       83.000200489355 electrons
N(Beta)            :       80.000197135129 electrons
N(Total)           :      163.000397624484 electrons
E(X)               :     -101.561325809827 Eh       
E(C)               :       -6.300374376157 Eh       
E(XC)              :     -107.861700185984 Eh       
DFET-embed. en.    :        0.000000000000 Eh       

---------------
SCF CONVERGENCE
---------------

  Last Energy change         ...    3.8246e-07  Tolerance :   1.0000e-06
  Last MAX-Density change    ...    0.0000e+00  Tolerance :   1.0000e-05
  Last RMS-Density change    ...    0.0000e+00  Tolerance :   1.0000e-06
  Last DIIS Error            ...    2.0181e-04  Tolerance :   1.0000e-06

             **** THE GBW FILE WAS UPDATED (cc-pVDZ.gbw) ****
             **** DENSITY cc-pVDZ.scfp WAS UPDATED ****
             **** ENERGY FILE WAS UPDATED (cc-pVDZ.en.tmp) ****
----------------------
UHF SPIN CONTAMINATION
----------------------

Warning: in a DFT calculation there is little theoretical justification to 
         calculate <S**2> as in Hartree-Fock theory. We will do it anyways
         but you should keep in mind that the values have only limited relevance

Expectation value of <S**2>     :     3.803510
Ideal value S*(S+1) for S=1.5   :     3.750000
Deviation                       :     0.053510

             **** THE GBW FILE WAS UPDATED (cc-pVDZ.gbw) ****
             **** DENSITY cc-pVDZ.scfp WAS UPDATED ****
----------------
ORBITAL ENERGIES
----------------
                 SPIN UP ORBITALS
  NO   OCC          E(Eh)            E(eV) 
   0   1.0000     -10.240281      -278.6522 
   1   1.0000     -10.221948      -278.1533 
   2   1.0000     -10.215705      -277.9835 
   3   1.0000     -10.212433      -277.8944 
   4   1.0000     -10.203089      -277.6402 
   5   1.0000     -10.199906      -277.5536 
   6   1.0000     -10.197184      -277.4795 
   7   1.0000     -10.197018      -277.4750 
   8   1.0000     -10.196315      -277.4558 
   9   1.0000     -10.195218      -277.4260 
  10   1.0000     -10.195079      -277.4222 
  11   1.0000     -10.193416      -277.3769 
  12   1.0000     -10.190815      -277.3062 
  13   1.0000     -10.190515      -277.2980 
  14   1.0000     -10.188635      -277.2469 
  15   1.0000     -10.187459      -277.2149 
  16   1.0000     -10.186991      -277.2021 
  17   1.0000     -10.182878      -277.0902 
  18   1.0000     -10.182512      -277.0802 
  19   1.0000     -10.182248      -277.0731 
  20   1.0000     -10.181968      -277.0654 
  21   1.0000     -10.176280      -276.9107 
  22   1.0000     -10.175966      -276.9021 
  23   1.0000      -0.875143       -23.8139 
  24   1.0000      -0.863274       -23.4909 
  25   1.0000      -0.819486       -22.2993 
  26   1.0000      -0.797693       -21.7063 
  27   1.0000      -0.795920       -21.6581 
  28   1.0000      -0.777963       -21.1695 
  29   1.0000      -0.766556       -20.8590 
  30   1.0000      -0.750982       -20.4352 
  31   1.0000      -0.736541       -20.0423 
  32   1.0000      -0.724489       -19.7144 
  33   1.0000      -0.701581       -19.0910 
  34   1.0000      -0.674551       -18.3555 
  35   1.0000      -0.653568       -17.7845 
  36   1.0000      -0.626630       -17.0515 
  37   1.0000      -0.615585       -16.7509 
  38   1.0000      -0.608820       -16.5668 
  39   1.0000      -0.596800       -16.2397 
  40   1.0000      -0.579966       -15.7817 
  41   1.0000      -0.565119       -15.3777 
  42   1.0000      -0.554122       -15.0784 
  43   1.0000      -0.534679       -14.5493 
  44   1.0000      -0.507771       -13.8172 
  45   1.0000      -0.480023       -13.0621 
  46   1.0000      -0.478703       -13.0262 
  47   1.0000      -0.471904       -12.8412 
  48   1.0000      -0.470236       -12.7958 
  49   1.0000      -0.457543       -12.4504 
  50   1.0000      -0.437279       -11.8990 
  51   1.0000      -0.436006       -11.8643 
  52   1.0000      -0.426691       -11.6109 
  53   1.0000      -0.424704       -11.5568 
  54   1.0000      -0.424099       -11.5403 
  55   1.0000      -0.423130       -11.5139 
  56   1.0000      -0.417558       -11.3623 
  57   1.0000      -0.412775       -11.2322 
  58   1.0000      -0.410183       -11.1616 
  59   1.0000      -0.385080       -10.4786 
  60   1.0000      -0.381306       -10.3759 
  61   1.0000      -0.377632       -10.2759 
  62   1.0000      -0.370336       -10.0773 
  63   1.0000      -0.366129        -9.9629 
  64   1.0000      -0.360788        -9.8175 
  65   1.0000      -0.358922        -9.7668 
  66   1.0000      -0.350331        -9.5330 
  67   1.0000      -0.345916        -9.4128 
  68   1.0000      -0.343280        -9.3411 
  69   1.0000      -0.333719        -9.0810 
  70   1.0000      -0.330406        -8.9908 
  71   1.0000      -0.327187        -8.9032 
  72   1.0000      -0.326157        -8.8752 
  73   1.0000      -0.322951        -8.7879 
  74   1.0000      -0.321729        -8.7547 
  75   1.0000      -0.321246        -8.7415 
  76   1.0000      -0.291175        -7.9233 
  77   1.0000      -0.267783        -7.2867 
  78   1.0000      -0.259300        -7.0559 
  79   1.0000      -0.249822        -6.7980 
  80   1.0000      -0.237464        -6.4617 
  81   1.0000      -0.224748        -6.1157 
  82   1.0000      -0.180527        -4.9124 
  83   0.0000      -0.041962        -1.1418 
  84   0.0000      -0.010706        -0.2913 
  85   0.0000      -0.002664        -0.0725 
  86   0.0000       0.012403         0.3375 
  87   0.0000       0.045733         1.2445 
  88   0.0000       0.054271         1.4768 
  89   0.0000       0.061334         1.6690 
  90   0.0000       0.063761         1.7350 
  91   0.0000       0.079194         2.1550 
  92   0.0000       0.083702         2.2776 
  93   0.0000       0.086969         2.3665 
  94   0.0000       0.090199         2.4544 
  95   0.0000       0.094114         2.5610 
  96   0.0000       0.094685         2.5765 
  97   0.0000       0.101407         2.7594 
  98   0.0000       0.103866         2.8263 
  99   0.0000       0.113317         3.0835 
 100   0.0000       0.126189         3.4338 
 101   0.0000       0.129857         3.5336 
 102   0.0000       0.137968         3.7543 
 103   0.0000       0.143752         3.9117 
 104   0.0000       0.143959         3.9173 
 105   0.0000       0.146413         3.9841 
 106   0.0000       0.152801         4.1579 
 107   0.0000       0.156129         4.2485 
 108   0.0000       0.158694         4.3183 
 109   0.0000       0.161129         4.3846 
 110   0.0000       0.161358         4.3908 
 111   0.0000       0.164884         4.4867 
 112   0.0000       0.173242         4.7142 
 113   0.0000       0.176095         4.7918 
 114   0.0000       0.176933         4.8146 
 115   0.0000       0.203497         5.5374 
 116   0.0000       0.207889         5.6569 
 117   0.0000       0.211306         5.7499 
 118   0.0000       0.212917         5.7938 
 119   0.0000       0.219488         5.9726 
 120   0.0000       0.223331         6.0772 
 121   0.0000       0.237405         6.4601 
 122   0.0000       0.241343         6.5673 
 123   0.0000       0.261449         7.1144 
 124   0.0000       0.269322         7.3286 
 125   0.0000       0.279229         7.5982 
 126   0.0000       0.280981         7.6459 
 127   0.0000       0.288467         7.8496 
 128   0.0000       0.294541         8.0149 
 129   0.0000       0.312249         8.4967 
 130   0.0000       0.315386         8.5821 
 131   0.0000       0.333593         9.0775 
 132   0.0000       0.346133         9.4188 
 133   0.0000       0.361247         9.8300 
 134   0.0000       0.369769        10.0619 
 135   0.0000       0.377486        10.2719 
 136   0.0000       0.405381        11.0310 
 137   0.0000       0.409352        11.1390 
 138   0.0000       0.411255        11.1908 
 139   0.0000       0.411763        11.2046 
 140   0.0000       0.418094        11.3769 
 141   0.0000       0.418401        11.3853 
 142   0.0000       0.419873        11.4253 
 143   0.0000       0.431615        11.7448 
 144   0.0000       0.439988        11.9727 
 145   0.0000       0.449259        12.2250 
 146   0.0000       0.450577        12.2608 
 147   0.0000       0.454124        12.3573 
 148   0.0000       0.461392        12.5551 
 149   0.0000       0.470737        12.8094 
 150   0.0000       0.473486        12.8842 
 151   0.0000       0.478720        13.0266 
 152   0.0000       0.478851        13.0302 
 153   0.0000       0.487271        13.2593 
 154   0.0000       0.492873        13.4118 
 155   0.0000       0.497581        13.5399 
 156   0.0000       0.503424        13.6989 
 157   0.0000       0.505220        13.7477 
 158   0.0000       0.507449        13.8084 
 159   0.0000       0.508695        13.8423 
 160   0.0000       0.511698        13.9240 
 161   0.0000       0.513807        13.9814 
 162   0.0000       0.514983        14.0134 
 163   0.0000       0.521280        14.1848 
 164   0.0000       0.530407        14.4331 
 165   0.0000       0.536613        14.6020 
 166   0.0000       0.542378        14.7589 
 167   0.0000       0.547686        14.9033 
 168   0.0000       0.548991        14.9388 
 169   0.0000       0.573712        15.6115 
 170   0.0000       0.584551        15.9064 
 171   0.0000       0.584920        15.9165 
 172   0.0000       0.589067        16.0293 
 173   0.0000       0.591277        16.0895 
 174   0.0000       0.594113        16.1666 
 175   0.0000       0.603420        16.4199 
 176   0.0000       0.610612        16.6156 
 177   0.0000       0.616274        16.7697 
 178   0.0000       0.628588        17.1048 
 179   0.0000       0.630250        17.1500 
 180   0.0000       0.632777        17.2187 
 181   0.0000       0.635926        17.3044 
 182   0.0000       0.638511        17.3748 
 183   0.0000       0.639969        17.4144 
 184   0.0000       0.640465        17.4279 
 185   0.0000       0.642939        17.4953 
 186   0.0000       0.649582        17.6760 
 187   0.0000       0.657814        17.9000 
 188   0.0000       0.658339        17.9143 
 189   0.0000       0.659101        17.9350 
 190   0.0000       0.661273        17.9942 
 191   0.0000       0.661853        18.0099 
 192   0.0000       0.664681        18.0869 
 193   0.0000       0.673120        18.3165 
 194   0.0000       0.674669        18.3587 
 195   0.0000       0.676959        18.4210 
 196   0.0000       0.679108        18.4795 
 197   0.0000       0.682870        18.5818 
 198   0.0000       0.684988        18.6395 
 199   0.0000       0.685884        18.6639 
 200   0.0000       0.696050        18.9405 
 201   0.0000       0.698812        19.0156 
 202   0.0000       0.703518        19.1437 
 203   0.0000       0.705942        19.2096 
 204   0.0000       0.713170        19.4063 
 205   0.0000       0.715737        19.4762 
 206   0.0000       0.716915        19.5083 
 207   0.0000       0.724218        19.7070 
 208   0.0000       0.732674        19.9371 
 209   0.0000       0.737730        20.0746 
 210   0.0000       0.743548        20.2330 
 211   0.0000       0.758914        20.6511 
 212   0.0000       0.759645        20.6710 
 213   0.0000       0.775230        21.0951 
 214   0.0000       0.792324        21.5602 
 215   0.0000       0.800417        21.7804 
 216   0.0000       0.815153        22.1815 
 217   0.0000       0.820955        22.3393 
 218   0.0000       0.833269        22.6744 
 219   0.0000       0.839359        22.8401 
 220   0.0000       0.842818        22.9342 
 221   0.0000       0.851291        23.1648 
 222   0.0000       0.864043        23.5118 
 223   0.0000       0.873223        23.7616 
 224   0.0000       0.877230        23.8706 
 225   0.0000       0.884062        24.0566 
 226   0.0000       0.900775        24.5113 
 227   0.0000       0.910943        24.7880 
 228   0.0000       0.911360        24.7994 
 229   0.0000       0.923839        25.1389 
 230   0.0000       0.936100        25.4726 
 231   0.0000       0.937754        25.5176 
 232   0.0000       0.950624        25.8678 
 233   0.0000       0.964693        26.2506 
 234   0.0000       0.976168        26.5629 
 235   0.0000       0.977050        26.5869 
 236   0.0000       0.986882        26.8544 
 237   0.0000       0.990007        26.9395 
 238   0.0000       0.997502        27.1434 
 239   0.0000       1.000641        27.2288 
 240   0.0000       1.024008        27.8647 
 241   0.0000       1.024395        27.8752 
 242   0.0000       1.032532        28.0966 
 243   0.0000       1.041129        28.3306 
 244   0.0000       1.045278        28.4435 
 245   0.0000       1.049554        28.5598 
 246   0.0000       1.052703        28.6455 
 247   0.0000       1.058114        28.7927 
 248   0.0000       1.071394        29.1541 
 249   0.0000       1.101057        29.9613 
 250   0.0000       1.114413        30.3247 
 251   0.0000       1.120548        30.4917 
 252   0.0000       1.137298        30.9474 
 253   0.0000       1.146198        31.1896 
 254   0.0000       1.162946        31.6454 
 255   0.0000       1.166233        31.7348 
 256   0.0000       1.183651        32.2088 
 257   0.0000       1.194061        32.4920 
 258   0.0000       1.198260        32.6063 
 259   0.0000       1.205425        32.8013 
 260   0.0000       1.210069        32.9277 
 261   0.0000       1.217502        33.1299 
 262   0.0000       1.218087        33.1458 
 263   0.0000       1.219574        33.1863 
 264   0.0000       1.222450        33.2645 
 265   0.0000       1.223829        33.3021 
 266   0.0000       1.231804        33.5191 
 267   0.0000       1.234518        33.5929 
 268   0.0000       1.262621        34.3577 
 269   0.0000       1.289266        35.0827 
 270   0.0000       1.297295        35.3012 
 271   0.0000       1.312231        35.7076 
 272   0.0000       1.315898        35.8074 
 273   0.0000       1.321044        35.9474 
 274   0.0000       1.328698        36.1557 
 275   0.0000       1.335309        36.3356 
 276   0.0000       1.353470        36.8298 
 277   0.0000       1.366587        37.1867 
 278   0.0000       1.384983        37.6873 
 279   0.0000       1.392793        37.8998 
 280   0.0000       1.407594        38.3026 
 281   0.0000       1.409808        38.3628 
 282   0.0000       1.425947        38.8020 
 283   0.0000       1.426355        38.8131 
 284   0.0000       1.434131        39.0247 
 285   0.0000       1.451561        39.4990 
 286   0.0000       1.452230        39.5172 
 287   0.0000       1.463275        39.8177 
 288   0.0000       1.471452        40.0403 
 289   0.0000       1.476655        40.1818 
 290   0.0000       1.478517        40.2325 
 291   0.0000       1.487054        40.4648 
 292   0.0000       1.488681        40.5091 
 293   0.0000       1.507023        41.0082 
 294   0.0000       1.510790        41.1107 
 295   0.0000       1.513853        41.1940 
 296   0.0000       1.528618        41.5958 
 297   0.0000       1.534265        41.7495 
 298   0.0000       1.553333        42.2683 
 299   0.0000       1.561823        42.4994 
 300   0.0000       1.578157        42.9438 
 301   0.0000       1.587831        43.2071 
 302   0.0000       1.597391        43.4672 
 303   0.0000       1.599348        43.5205 
 304   0.0000       1.605851        43.6974 
 305   0.0000       1.607390        43.7393 
 306   0.0000       1.610979        43.8370 
 307   0.0000       1.615472        43.9592 
 308   0.0000       1.628262        44.3073 
 309   0.0000       1.628902        44.3247 
 310   0.0000       1.629899        44.3518 
 311   0.0000       1.632720        44.4286 
 312   0.0000       1.635672        44.5089 
 313   0.0000       1.636966        44.5441 
 314   0.0000       1.642280        44.6887 
 315   0.0000       1.645828        44.7852 
 316   0.0000       1.648613        44.8610 
 317   0.0000       1.648944        44.8701 
 318   0.0000       1.654032        45.0085 
 319   0.0000       1.667073        45.3634 
 320   0.0000       1.668984        45.4154 
 321   0.0000       1.678462        45.6733 
 322   0.0000       1.681761        45.7630 
 323   0.0000       1.684361        45.8338 
 324   0.0000       1.690113        45.9903 
 325   0.0000       1.695345        46.1327 
 326   0.0000       1.696103        46.1533 
 327   0.0000       1.696568        46.1660 
 328   0.0000       1.701675        46.3049 
 329   0.0000       1.703000        46.3410 
 330   0.0000       1.714604        46.6568 
 331   0.0000       1.715181        46.6724 
 332   0.0000       1.717857        46.7453 
 333   0.0000       1.721098        46.8335 
 334   0.0000       1.735122        47.2151 
 335   0.0000       1.739570        47.3361 
 336   0.0000       1.747071        47.5402 
 337   0.0000       1.755340        47.7652 
 338   0.0000       1.766705        48.0745 
 339   0.0000       1.767595        48.0987 
 340   0.0000       1.768987        48.1366 
 341   0.0000       1.773931        48.2711 
 342   0.0000       1.787619        48.6436 
 343   0.0000       1.791812        48.7577 
 344   0.0000       1.792320        48.7715 
 345   0.0000       1.798814        48.9482 
 346   0.0000       1.803208        49.0678 
 347   0.0000       1.803585        49.0780 
 348   0.0000       1.815243        49.3953 
 349   0.0000       1.822732        49.5991 
 350   0.0000       1.828277        49.7500 
 351   0.0000       1.837562        50.0026 
 352   0.0000       1.838779        50.0357 
 353   0.0000       1.841249        50.1029 
 354   0.0000       1.848745        50.3069 
 355   0.0000       1.853400        50.4336 
 356   0.0000       1.856655        50.5222 
 357   0.0000       1.868465        50.8435 
 358   0.0000       1.884758        51.2869 
 359   0.0000       1.884887        51.2904 
 360   0.0000       1.901441        51.7408 
 361   0.0000       1.911059        52.0026 
 362   0.0000       1.926283        52.4168 
 363   0.0000       1.928629        52.4807 
 364   0.0000       1.936480        52.6943 
 365   0.0000       1.938952        52.7616 
 366   0.0000       1.957877        53.2765 
 367   0.0000       1.961770        53.3825 
 368   0.0000       1.969952        53.6051 
 369   0.0000       1.970886        53.6305 
 370   0.0000       1.972907        53.6855 
 371   0.0000       1.986162        54.0462 
 372   0.0000       1.992830        54.2277 
 373   0.0000       2.016165        54.8626 
 374   0.0000       2.023587        55.0646 
 375   0.0000       2.027729        55.1773 
 376   0.0000       2.040107        55.5141 
 377   0.0000       2.060176        56.0602 
 378   0.0000       2.069970        56.3267 
 379   0.0000       2.086837        56.7857 
 380   0.0000       2.097122        57.0656 
 381   0.0000       2.108108        57.3645 
 382   0.0000       2.118972        57.6602 
 383   0.0000       2.141699        58.2786 
 384   0.0000       2.162707        58.8502 
 385   0.0000       2.172852        59.1263 
 386   0.0000       2.185483        59.4700 
 387   0.0000       2.186498        59.4976 
 388   0.0000       2.192139        59.6511 
 389   0.0000       2.203505        59.9604 
 390   0.0000       2.213128        60.2223 
 391   0.0000       2.219243        60.3887 
 392   0.0000       2.223544        60.5057 
 393   0.0000       2.229695        60.6731 
 394   0.0000       2.240370        60.9636 
 395   0.0000       2.250481        61.2387 
 396   0.0000       2.272934        61.8497 
 397   0.0000       2.280200        62.0474 
 398   0.0000       2.300440        62.5981 
 399   0.0000       2.302439        62.6525 
 400   0.0000       2.314391        62.9778 
 401   0.0000       2.315825        63.0168 
 402   0.0000       2.322173        63.1895 
 403   0.0000       2.326836        63.3164 
 404   0.0000       2.346014        63.8383 
 405   0.0000       2.362545        64.2881 
 406   0.0000       2.365075        64.3570 
 407   0.0000       2.400026        65.3080 
 408   0.0000       2.407859        65.5212 
 409   0.0000       2.412623        65.6508 
 410   0.0000       2.413415        65.6724 
 411   0.0000       2.416434        65.7545 
 412   0.0000       2.416892        65.7670 
 413   0.0000       2.420689        65.8703 
 414   0.0000       2.421108        65.8817 
 415   0.0000       2.431724        66.1706 
 416   0.0000       2.446912        66.5839 
 417   0.0000       2.476236        67.3818 
 418   0.0000       2.483385        67.5763 
 419   0.0000       2.514975        68.4360 
 420   0.0000       2.516731        68.4837 
 421   0.0000       2.531072        68.8740 
 422   0.0000       2.542316        69.1799 
 423   0.0000       2.547100        69.3101 
 424   0.0000       2.580333        70.2144 
 425   0.0000       2.589604        70.4667 
 426   0.0000       2.606122        70.9162 
 427   0.0000       2.616472        71.1978 
 428   0.0000       2.620088        71.2962 
 429   0.0000       2.636835        71.7519 
 430   0.0000       2.677887        72.8690 
 431   0.0000       2.711056        73.7716 
 432   0.0000       2.713033        73.8254 
 433   0.0000       2.715215        73.8847 
 434   0.0000       2.715884        73.9030 
 435   0.0000       2.724695        74.1427 
 436   0.0000       2.726430        74.1899 
 437   0.0000       2.739129        74.5355 
 438   0.0000       2.766698        75.2857 
 439   0.0000       2.841255        77.3145 
 440   0.0000       2.841863        77.3310 
 441   0.0000       2.848296        77.5061 
 442   0.0000       2.880908        78.3935 
 443   0.0000       3.071609        83.5827 
 444   0.0000       3.090638        84.1005 
 445   0.0000       3.337919        90.8294 
 446   0.0000       3.583458        97.5109 

                 SPIN DOWN ORBITALS
  NO   OCC          E(Eh)            E(eV) 
   0   1.0000     -10.221991      -278.1545 
   1   1.0000     -10.216234      -277.9979 
   2   1.0000     -10.208880      -277.7978 
   3   1.0000     -10.201442      -277.5953 
   4   1.0000     -10.201109      -277.5863 
   5   1.0000     -10.198867      -277.5253 
   6   1.0000     -10.196630      -277.4644 
   7   1.0000     -10.196467      -277.4600 
   8   1.0000     -10.195872      -277.4438 
   9   1.0000     -10.195466      -277.4327 
  10   1.0000     -10.195210      -277.4258 
  11   1.0000     -10.192304      -277.3467 
  12   1.0000     -10.189711      -277.2761 
  13   1.0000     -10.189181      -277.2617 
  14   1.0000     -10.188666      -277.2477 
  15   1.0000     -10.187510      -277.2162 
  16   1.0000     -10.186813      -277.1973 
  17   1.0000     -10.182829      -277.0889 
  18   1.0000     -10.182506      -277.0801 
  19   1.0000     -10.182248      -277.0730 
  20   1.0000     -10.181968      -277.0654 
  21   1.0000     -10.176282      -276.9107 
  22   1.0000     -10.175966      -276.9021 
  23   1.0000      -0.868557       -23.6347 
  24   1.0000      -0.862485       -23.4694 
  25   1.0000      -0.815178       -22.1821 
  26   1.0000      -0.795686       -21.6517 
  27   1.0000      -0.790449       -21.5092 
  28   1.0000      -0.773077       -21.0365 
  29   1.0000      -0.762864       -20.7586 
  30   1.0000      -0.750470       -20.4213 
  31   1.0000      -0.732935       -19.9442 
  32   1.0000      -0.719595       -19.5812 
  33   1.0000      -0.698770       -19.0145 
  34   1.0000      -0.652147       -17.7458 
  35   1.0000      -0.649828       -17.6827 
  36   1.0000      -0.622961       -16.9516 
  37   1.0000      -0.613094       -16.6831 
  38   1.0000      -0.608489       -16.5578 
  39   1.0000      -0.590594       -16.0709 
  40   1.0000      -0.579446       -15.7675 
  41   1.0000      -0.561677       -15.2840 
  42   1.0000      -0.539194       -14.6722 
  43   1.0000      -0.515052       -14.0153 
  44   1.0000      -0.505365       -13.7517 
  45   1.0000      -0.478321       -13.0158 
  46   1.0000      -0.472294       -12.8518 
  47   1.0000      -0.471221       -12.8226 
  48   1.0000      -0.470210       -12.7951 
  49   1.0000      -0.457172       -12.4403 
  50   1.0000      -0.435638       -11.8543 
  51   1.0000      -0.429653       -11.6915 
  52   1.0000      -0.423953       -11.5363 
  53   1.0000      -0.423269       -11.5177 
  54   1.0000      -0.422668       -11.5014 
  55   1.0000      -0.422438       -11.4951 
  56   1.0000      -0.416942       -11.3456 
  57   1.0000      -0.410457       -11.1691 
  58   1.0000      -0.399166       -10.8619 
  59   1.0000      -0.381970       -10.3939 
  60   1.0000      -0.373122       -10.1532 
  61   1.0000      -0.368894       -10.0381 
  62   1.0000      -0.365482        -9.9453 
  63   1.0000      -0.361302        -9.8315 
  64   1.0000      -0.357379        -9.7248 
  65   1.0000      -0.357285        -9.7222 
  66   1.0000      -0.350007        -9.5242 
  67   1.0000      -0.340773        -9.2729 
  68   1.0000      -0.333560        -9.0766 
  69   1.0000      -0.329188        -8.9577 
  70   1.0000      -0.326342        -8.8802 
  71   1.0000      -0.325408        -8.8548 
  72   1.0000      -0.322711        -8.7814 
  73   1.0000      -0.320347        -8.7171 
  74   1.0000      -0.315072        -8.5735 
  75   1.0000      -0.275428        -7.4948 
  76   1.0000      -0.267278        -7.2730 
  77   1.0000      -0.257861        -7.0168 
  78   1.0000      -0.242230        -6.5914 
  79   1.0000      -0.220018        -5.9870 
  80   0.0000      -0.158165        -4.3039 
  81   0.0000      -0.085167        -2.3175 
  82   0.0000      -0.031150        -0.8476 
  83   0.0000      -0.025164        -0.6847 
  84   0.0000      -0.009449        -0.2571 
  85   0.0000       0.004294         0.1169 
  86   0.0000       0.036410         0.9908 
  87   0.0000       0.046319         1.2604 
  88   0.0000       0.054477         1.4824 
  89   0.0000       0.061395         1.6706 
  90   0.0000       0.063825         1.7368 
  91   0.0000       0.079348         2.1592 
  92   0.0000       0.084814         2.3079 
  93   0.0000       0.090747         2.4693 
  94   0.0000       0.091518         2.4903 
  95   0.0000       0.095016         2.5855 
  96   0.0000       0.095624         2.6021 
  97   0.0000       0.101436         2.7602 
  98   0.0000       0.110749         3.0136 
  99   0.0000       0.113566         3.0903 
 100   0.0000       0.126987         3.4555 
 101   0.0000       0.130905         3.5621 
 102   0.0000       0.138315         3.7637 
 103   0.0000       0.143927         3.9165 
 104   0.0000       0.147601         4.0164 
 105   0.0000       0.148842         4.0502 
 106   0.0000       0.152915         4.1610 
 107   0.0000       0.156439         4.2569 
 108   0.0000       0.159539         4.3413 
 109   0.0000       0.161916         4.4060 
 110   0.0000       0.163415         4.4467 
 111   0.0000       0.166530         4.5315 
 112   0.0000       0.173591         4.7236 
 113   0.0000       0.177039         4.8175 
 114   0.0000       0.178779         4.8648 
 115   0.0000       0.206067         5.6074 
 116   0.0000       0.212415         5.7801 
 117   0.0000       0.214533         5.8377 
 118   0.0000       0.214785         5.8446 
 119   0.0000       0.220670         6.0047 
 120   0.0000       0.224756         6.1159 
 121   0.0000       0.238254         6.4832 
 122   0.0000       0.243159         6.6167 
 123   0.0000       0.267432         7.2772 
 124   0.0000       0.274916         7.4808 
 125   0.0000       0.279305         7.6003 
 126   0.0000       0.284772         7.7490 
 127   0.0000       0.294328         8.0091 
 128   0.0000       0.306002         8.3267 
 129   0.0000       0.312790         8.5114 
 130   0.0000       0.329458         8.9650 
 131   0.0000       0.337332         9.1793 
 132   0.0000       0.355269         9.6674 
 133   0.0000       0.365820         9.9545 
 134   0.0000       0.373774        10.1709 
 135   0.0000       0.380523        10.3546 
 136   0.0000       0.409303        11.1377 
 137   0.0000       0.412072        11.2131 
 138   0.0000       0.412103        11.2139 
 139   0.0000       0.418933        11.3997 
 140   0.0000       0.420525        11.4431 
 141   0.0000       0.421269        11.4633 
 142   0.0000       0.425325        11.5737 
 143   0.0000       0.433849        11.8056 
 144   0.0000       0.450520        12.2593 
 145   0.0000       0.452671        12.3178 
 146   0.0000       0.454104        12.3568 
 147   0.0000       0.460009        12.5175 
 148   0.0000       0.469712        12.7815 
 149   0.0000       0.474006        12.8983 
 150   0.0000       0.478836        13.0298 
 151   0.0000       0.483667        13.1612 
 152   0.0000       0.490243        13.3402 
 153   0.0000       0.490791        13.3551 
 154   0.0000       0.495948        13.4954 
 155   0.0000       0.503706        13.7065 
 156   0.0000       0.508069        13.8253 
 157   0.0000       0.509054        13.8521 
 158   0.0000       0.511703        13.9242 
 159   0.0000       0.512314        13.9408 
 160   0.0000       0.515641        14.0313 
 161   0.0000       0.517487        14.0815 
 162   0.0000       0.526007        14.3134 
 163   0.0000       0.527225        14.3465 
 164   0.0000       0.535632        14.5753 
 165   0.0000       0.546647        14.8750 
 166   0.0000       0.547820        14.9069 
 167   0.0000       0.561371        15.2757 
 168   0.0000       0.574418        15.6307 
 169   0.0000       0.585093        15.9212 
 170   0.0000       0.585729        15.9385 
 171   0.0000       0.593262        16.1435 
 172   0.0000       0.595989        16.2177 
 173   0.0000       0.596989        16.2449 
 174   0.0000       0.600032        16.3277 
 175   0.0000       0.605456        16.4753 
 176   0.0000       0.616497        16.7757 
 177   0.0000       0.618087        16.8190 
 178   0.0000       0.629541        17.1307 
 179   0.0000       0.634654        17.2698 
 180   0.0000       0.636510        17.3203 
 181   0.0000       0.636817        17.3287 
 182   0.0000       0.639916        17.4130 
 183   0.0000       0.640492        17.4287 
 184   0.0000       0.643234        17.5033 
 185   0.0000       0.643816        17.5191 
[...]
  Y          -0.0015479            0.9693409            0.2457150
  Z           0.9999987            0.0016042           -0.0000290

Notes:  (1) The A matrix conforms to the "SAI" spin Hamiltonian convention.
        (2) Tensor is right-handed.

 -----------------------------------------------------------
 Nucleus  45H : A:ISTP=    1 I=  0.5 P=533.5514 MHz/au**3
                Q:ISTP=    2 I=  1.0 Q=  0.0029 barn     
 -----------------------------------------------------------
 Solving for nuclear perturbation:
Forming RHS of the CP-SCF equations         ... 
Calc. nucleus orbit integrals (SHARK)       ... done

------------------------------------------------------------------------------
                           ORCA CP-SCF CALCULATION
------------------------------------------------------------------------------

Input orbitals are from        ... cc-pVDZ.gbw
Input Perturbation             ... cc-pVDZ.pin.tmp
Wavefunction output            ... cc-pVDZ.pout.tmp
Perturbation mode              ... Imaginary perturbation
Solver                         ... POPLE
Max. number of iterations      ... 64
Convergence tolerance          ... 1.000e-03
Integral handling              ... Direct
DFT GridXC                     ... 1
COSX GridX                     ... 1
COSX IntAccX                   ... 3.067
COSX Algorithm                 ... Auto
Number of perturbations        ... 3
Number of operators            ... 2
Orbital ranges used for CP-SCF:
 Operator 0:  Orbitals   0... 82  to  83...446
 Operator 1:  Orbitals   0... 79  to  80...446
Variables per perturbation     ... 59572
DFT calculation                         ... on
XC functional terms                     ... off
Hybrid DFT                              ... on
   Exchange mixing (SCF)                ...  0.200
   Exchange mixing (CP-SCF)             ...  0.200
   GGA exch. scaling(SCF)               ...  0.720
   GGA exch. scaling (CP-SCF)           ...  0.720
   GGA corr. scaling (SCF)              ...  0.810
   GGA corr. scaling (CP-SCF)           ...  0.810

CP-SCF GRID
-----------

General Integration Accuracy     IntAcc      ... 3.467
Radial Grid Type                 RadialGrid  ... OptM3 with GC (2021)
Angular Grid (max. ang.)         AngularGrid ... 1 (Lebedev-50)
Angular grid pruning method      GridPruning ... 4 (adaptive)
Weight generation scheme         WeightScheme... Becke
Basis function cutoff            BFCut       ... 1.0000e-10
Integration weight cutoff        WCut        ... 1.0000e-14
Angular grids for H and He will be reduced by one unit
Partially contracted basis set               ... off
Rotationally invariant grid construction     ... off

Total number of grid points                  ...    30933
Total number of batches                      ...      504
Average number of points per batch           ...       61
Average number of grid points per atom       ...      644

CP-SCF GRIDX
------------

General Integration Accuracy     IntAcc      ... 3.067
Radial Grid Type                 RadialGrid  ... OptM3 with GC (2021)
Angular Grid (max. ang.)         AngularGrid ... 1 (Lebedev-50)
Angular grid pruning method      GridPruning ... 4 (adaptive)
Weight generation scheme         WeightScheme... Becke
Basis function cutoff            BFCut       ... 1.0000e-10
Integration weight cutoff        WCut        ... 1.0000e-14
Angular grids for H and He will be reduced by one unit
Partially contracted basis set               ... on
Rotationally invariant grid construction     ... off

Total number of grid points                  ...    14529
Total number of batches                      ...      255
Average number of points per batch           ...       56
Average number of grid points per atom       ...      303

Memory available               ... 880.3 MB
Memory needed per perturbation ...  12.6 MB
Perturbations treated per batch... 3
Number of batches              ... 1
     CP-SCF ITERATION   0:   4.5525e-02 (   1.7 sec   0/  3 done)
     CP-SCF ITERATION   1:   1.9394e-03 (   1.8 sec   0/  3 done)
     CP-SCF ITERATION   2:   1.5269e-04 (   1.7 sec   3/  3 done)
                    *** THE CP-SCF HAS CONVERGED ***

Forming final perturbed densities           ... done
Transforming perturbed density to AO basis  ... done

 Raw HFC matrix (all values in MHz): 
 -----------------------------------
                -0.7975               0.1764               0.0004
                 0.1763              -0.6165               0.0009
                 0.0004               0.0009              -1.1062

 A(FC)          -0.8403              -0.8403              -0.8403
 A(SD)           0.3313              -0.0653              -0.2660
 A(ORB+DIA)      0.0002               0.0004               0.0000    A(PC) =   0.0002
 A(ORB)          0.0000               0.0003              -0.0000    A(PC) =   0.0001
 A(DIA)          0.0002               0.0000               0.0001    A(PC) =   0.0001
             ----------           ----------           ----------
 A(Tot)         -0.5088              -0.9052              -1.1062    A(iso)=   -0.8400
 Orientation: 
  X           0.5212587            0.8533986            0.0005039
  Y           0.8533972           -0.5212588            0.0015661
  Z           0.0015991           -0.0003863           -0.9999986

Notes:  (1) The A matrix conforms to the "SAI" spin Hamiltonian convention.
        (2) Tensor is right-handed.

 -----------------------------------------------------------
 Nucleus  46H : A:ISTP=    1 I=  0.5 P=533.5514 MHz/au**3
                Q:ISTP=    2 I=  1.0 Q=  0.0029 barn     
 -----------------------------------------------------------
 Solving for nuclear perturbation:
Forming RHS of the CP-SCF equations         ... 
Calc. nucleus orbit integrals (SHARK)       ... done

------------------------------------------------------------------------------
                           ORCA CP-SCF CALCULATION
------------------------------------------------------------------------------

Input orbitals are from        ... cc-pVDZ.gbw
Input Perturbation             ... cc-pVDZ.pin.tmp
Wavefunction output            ... cc-pVDZ.pout.tmp
Perturbation mode              ... Imaginary perturbation
Solver                         ... POPLE
Max. number of iterations      ... 64
Convergence tolerance          ... 1.000e-03
Integral handling              ... Direct
DFT GridXC                     ... 1
COSX GridX                     ... 1
COSX IntAccX                   ... 3.067
COSX Algorithm                 ... Auto
Number of perturbations        ... 3
Number of operators            ... 2
Orbital ranges used for CP-SCF:
 Operator 0:  Orbitals   0... 82  to  83...446
 Operator 1:  Orbitals   0... 79  to  80...446
Variables per perturbation     ... 59572
DFT calculation                         ... on
XC functional terms                     ... off
Hybrid DFT                              ... on
   Exchange mixing (SCF)                ...  0.200
   Exchange mixing (CP-SCF)             ...  0.200
   GGA exch. scaling(SCF)               ...  0.720
   GGA exch. scaling (CP-SCF)           ...  0.720
   GGA corr. scaling (SCF)              ...  0.810
   GGA corr. scaling (CP-SCF)           ...  0.810

CP-SCF GRID
-----------

General Integration Accuracy     IntAcc      ... 3.467
Radial Grid Type                 RadialGrid  ... OptM3 with GC (2021)
Angular Grid (max. ang.)         AngularGrid ... 1 (Lebedev-50)
Angular grid pruning method      GridPruning ... 4 (adaptive)
Weight generation scheme         WeightScheme... Becke
Basis function cutoff            BFCut       ... 1.0000e-10
Integration weight cutoff        WCut        ... 1.0000e-14
Angular grids for H and He will be reduced by one unit
Partially contracted basis set               ... off
Rotationally invariant grid construction     ... off

Total number of grid points                  ...    30933
Total number of batches                      ...      504
Average number of points per batch           ...       61
Average number of grid points per atom       ...      644

CP-SCF GRIDX
------------

General Integration Accuracy     IntAcc      ... 3.067
Radial Grid Type                 RadialGrid  ... OptM3 with GC (2021)
Angular Grid (max. ang.)         AngularGrid ... 1 (Lebedev-50)
Angular grid pruning method      GridPruning ... 4 (adaptive)
Weight generation scheme         WeightScheme... Becke
Basis function cutoff            BFCut       ... 1.0000e-10
Integration weight cutoff        WCut        ... 1.0000e-14
Angular grids for H and He will be reduced by one unit
Partially contracted basis set               ... on
Rotationally invariant grid construction     ... off

Total number of grid points                  ...    14529
Total number of batches                      ...      255
Average number of points per batch           ...       56
Average number of grid points per atom       ...      303

Memory available               ... 879.8 MB
Memory needed per perturbation ...  12.6 MB
Perturbations treated per batch... 3
Number of batches              ... 1
     CP-SCF ITERATION   0:   4.5653e-02 (   1.6 sec   0/  3 done)
     CP-SCF ITERATION   1:   1.9465e-03 (   1.8 sec   0/  3 done)
     CP-SCF ITERATION   2:   1.7301e-04 (   1.7 sec   3/  3 done)
                    *** THE CP-SCF HAS CONVERGED ***

Forming final perturbed densities           ... done
Transforming perturbed density to AO basis  ... done

 Raw HFC matrix (all values in MHz): 
 -----------------------------------
                -0.8432              -0.1458              -0.0000
                -0.1457              -0.5764               0.0009
                -0.0000               0.0009              -1.0991

 A(FC)          -0.8398              -0.8398              -0.8398
 A(SD)           0.3273              -0.0680              -0.2593
 A(ORB+DIA)      0.0002               0.0004               0.0000    A(PC) =   0.0002
 A(ORB)          0.0000               0.0004              -0.0000    A(PC) =   0.0001
 A(DIA)          0.0002               0.0000               0.0001    A(PC) =   0.0001
             ----------           ----------           ----------
 A(Tot)         -0.5122              -0.9074              -1.0991    A(iso)=   -0.8396
 Orientation: 
  X          -0.4030350            0.9151839            0.0010952
  Y           0.9151834            0.4030323            0.0020568
  Z           0.0014410            0.0018313           -0.9999973

Notes:  (1) The A matrix conforms to the "SAI" spin Hamiltonian convention.
        (2) Tensor is right-handed.

 -----------------------------------------------------------
 Nucleus  47H : A:ISTP=    1 I=  0.5 P=533.5514 MHz/au**3
                Q:ISTP=    2 I=  1.0 Q=  0.0029 barn     
 -----------------------------------------------------------
 Solving for nuclear perturbation:
Forming RHS of the CP-SCF equations         ... 
Calc. nucleus orbit integrals (SHARK)       ... done

------------------------------------------------------------------------------
                           ORCA CP-SCF CALCULATION
------------------------------------------------------------------------------

Input orbitals are from        ... cc-pVDZ.gbw
Input Perturbation             ... cc-pVDZ.pin.tmp
Wavefunction output            ... cc-pVDZ.pout.tmp
Perturbation mode              ... Imaginary perturbation
Solver                         ... POPLE
Max. number of iterations      ... 64
Convergence tolerance          ... 1.000e-03
Integral handling              ... Direct
DFT GridXC                     ... 1
COSX GridX                     ... 1
COSX IntAccX                   ... 3.067
COSX Algorithm                 ... Auto
Number of perturbations        ... 3
Number of operators            ... 2
Orbital ranges used for CP-SCF:
 Operator 0:  Orbitals   0... 82  to  83...446
 Operator 1:  Orbitals   0... 79  to  80...446
Variables per perturbation     ... 59572
DFT calculation                         ... on
XC functional terms                     ... off
Hybrid DFT                              ... on
   Exchange mixing (SCF)                ...  0.200
   Exchange mixing (CP-SCF)             ...  0.200
   GGA exch. scaling(SCF)               ...  0.720
   GGA exch. scaling (CP-SCF)           ...  0.720
   GGA corr. scaling (SCF)              ...  0.810
   GGA corr. scaling (CP-SCF)           ...  0.810

CP-SCF GRID
-----------

General Integration Accuracy     IntAcc      ... 3.467
Radial Grid Type                 RadialGrid  ... OptM3 with GC (2021)
Angular Grid (max. ang.)         AngularGrid ... 1 (Lebedev-50)
Angular grid pruning method      GridPruning ... 4 (adaptive)
Weight generation scheme         WeightScheme... Becke
Basis function cutoff            BFCut       ... 1.0000e-10
Integration weight cutoff        WCut        ... 1.0000e-14
Angular grids for H and He will be reduced by one unit
Partially contracted basis set               ... off
Rotationally invariant grid construction     ... off

Total number of grid points                  ...    30933
Total number of batches                      ...      504
Average number of points per batch           ...       61
Average number of grid points per atom       ...      644

CP-SCF GRIDX
------------

General Integration Accuracy     IntAcc      ... 3.067
Radial Grid Type                 RadialGrid  ... OptM3 with GC (2021)
Angular Grid (max. ang.)         AngularGrid ... 1 (Lebedev-50)
Angular grid pruning method      GridPruning ... 4 (adaptive)
Weight generation scheme         WeightScheme... Becke
Basis function cutoff            BFCut       ... 1.0000e-10
Integration weight cutoff        WCut        ... 1.0000e-14
Angular grids for H and He will be reduced by one unit
Partially contracted basis set               ... on
Rotationally invariant grid construction     ... off

Total number of grid points                  ...    14529
Total number of batches                      ...      255
Average number of points per batch           ...       56
Average number of grid points per atom       ...      303

Memory available               ... 879.3 MB
Memory needed per perturbation ...  12.6 MB
Perturbations treated per batch... 3
Number of batches              ... 1
     CP-SCF ITERATION   0:   4.1582e-02 (   1.7 sec   0/  3 done)
     CP-SCF ITERATION   1:   1.6864e-03 (   1.7 sec   2/  3 done)
     CP-SCF ITERATION   2:   7.6873e-05 (   1.1 sec   3/  3 done)
                    *** THE CP-SCF HAS CONVERGED ***

Forming final perturbed densities           ... done
Transforming perturbed density to AO basis  ... done

 Raw HFC matrix (all values in MHz): 
 -----------------------------------
                 0.6572               0.0697               0.0002
                 0.0697               0.2898               0.0001
                 0.0002               0.0001               0.2173

 A(FC)           0.3881               0.3881               0.3881
 A(SD)          -0.1708              -0.1112               0.2820
 A(ORB+DIA)      0.0001               0.0001              -0.0001    A(PC) =   0.0000
 A(ORB)         -0.0000               0.0000              -0.0001    A(PC) =  -0.0000
 A(DIA)          0.0001               0.0001               0.0000    A(PC) =   0.0001
             ----------           ----------           ----------
 A(Tot)          0.2173               0.2770               0.6699    A(iso)=    0.3881
 Orientation: 
  X          -0.0003401           -0.1803193           -0.9836081
  Y          -0.0008883            0.9836078           -0.1803189
  Z           0.9999995            0.0008124           -0.0004947

Notes:  (1) The A matrix conforms to the "SAI" spin Hamiltonian convention.
        (2) Tensor is right-handed.


--------------------------------------------------------------------------------
----------------------------------------------------------------------------
                           ORCA EULER ANGLE PROGRAM
----------------------------------------------------------------------------

Only g-tensor available        -->  using g-tensor as reference tensor

Reference tensor               ...  g

g-tensor ordering              ...  |g_min> --> |gx>
                                    |g_mid> --> |gy>
                                    |g_max> --> |gz>

A- and EFG-tensor ordering     ...  the axes |Ax>, |Qx>, |Ay>, etc. are assigned
                                    such that the Euler rotation is minimal. You
                                    can find the respective eigenvalues as Ax,
                                    EFGx, Ay, etc. in the tables below.
                                    The relation of |Ax>, |Ay>,  etc. to Amin, Amid, etc.
                                    (as printed in the ORCA EPR/NMR CALCULATION Output)
                                    is obtained in the detailed printout.

Euler rotation around          ...  z - y - z
   First rotation              -->  by alpha around z
   Second rotation             -->  by beta around y'
   Third rotation              -->  by gamma around z''
   Positive / Negative angle   -->  clockwise / counterclockwise rotation

Plot EFG-tensors                    (-)
Plot HFC-tensors                    (-)
Detailed Printout                   (-)

-------------------------------------------------------------------------
          Euler rotation of hyperfine tensor to g-tensor
-------------------------------------------------------------------------

-------------------------------------------------------------------
 Atom  |   Alpha    Beta    Gamma   |   Ax       Ay       Az 
       |          [degrees]         |           [MHz]         
-------------------------------------------------------------------
  8H        8.6      0.0      0.0       4.83     6.71     3.73
  9H       -8.2      0.0      0.0       0.74    -5.51    -8.30
 11H     -118.8     41.2    135.8      11.41     3.40     2.70
 12H       61.2     41.2    -44.3      11.42     3.40     2.69
 14H      167.6     12.2   -126.7       1.53    -0.55    -0.59
 15H      -11.3     12.2     52.2       1.53    -0.56    -0.59
 17H       48.7     15.5    -37.5       1.12    -0.45    -0.51
 18H     -131.3     15.5    142.6       1.12    -0.45    -0.51
 20H       37.2      9.6     -9.8       0.45    -0.19    -0.22
 21H     -143.1      9.5    170.5       0.45    -0.19    -0.22
 23H     -135.3     15.4    176.8      -2.99    -1.84    -3.18
 24H       45.1     15.3     -3.6      -2.98    -1.84    -3.18
 26H      -60.5     22.9     37.9       1.53    -0.50    -0.58
 27H      119.4     22.9   -141.9       1.53    -0.50    -0.58
 29H      128.0     12.7   -161.4       0.41    -0.19    -0.24
 30H      -51.7     12.6     18.3       0.41    -0.19    -0.24
 32H      152.9      8.2   -166.7       0.41    -0.20    -0.22
 33H      -26.6      8.2     12.8       0.41    -0.20    -0.22
 35H       16.6      0.0      0.0       0.36    -0.19    -0.20
 36H      -19.7      0.0      0.0       0.25    -0.12    -0.14
 43H       23.7      0.1    -18.0      -1.49    -0.25    -0.96
 44H       -6.4      0.0      0.0       0.28     0.66     0.22
 45H      -23.6      0.0      0.0      -0.51    -0.91    -1.11
 46H       31.6      0.0      0.0      -0.51    -0.91    -1.10
 47H       28.7      0.1    -10.5       0.28     0.67     0.22
-------------------------------------------------------------------


Maximum memory used throughout the entire EPRNMR-calculation: 210.6 MB

Timings for individual modules:

Sum of individual times         ...     4482.540 sec (=  74.709 min)
GTO integral calculation        ...        4.634 sec (=   0.077 min)   0.1 %
Spin-Orbit-Coupling Matrices    ...        8.910 sec (=   0.148 min)   0.2 %
SCF iterations                  ...       82.620 sec (=   1.377 min)   1.8 %
EPR/NMR calculation             ...     4386.376 sec (=  73.106 min)  97.9 %
                             ****ORCA TERMINATED NORMALLY****
TOTAL RUN TIME: 0 days 1 hours 14 minutes 46 seconds 563 msec
