
                                 *****************
                                 * O   R   C   A *
                                 *****************

                                            #,                                       
                                            ###                                      
                                            ####                                     
                                            #####                                    
                                            ######                                   
                                           ########,                                 
                                     ,,################,,,,,                         
                               ,,#################################,,                 
                          ,,##########################################,,             
                       ,#########################################, ''#####,          
                    ,#############################################,,   '####,        
                  ,##################################################,,,,####,       
                ,###########''''           ''''###############################       
              ,#####''   ,,,,##########,,,,          '''####'''          '####       
            ,##' ,,,,###########################,,,                        '##       
           ' ,,###''''                  '''############,,,                           
         ,,##''                                '''############,,,,        ,,,,,,###''
      ,#''                                            '''#######################'''  
     '                                                          ''''####''''         
             ,#######,   #######,   ,#######,      ##                                
            ,#'     '#,  ##    ##  ,#'     '#,    #''#        ######   ,####,        
            ##       ##  ##   ,#'  ##            #'  '#       #        #'  '#        
            ##       ##  #######   ##           ,######,      #####,   #    #        
            '#,     ,#'  ##    ##  '#,     ,#' ,#      #,         ##   #,  ,#        
             '#######'   ##     ##  '#######'  #'      '#     #####' # '####'        



                  #######################################################
                  #                        -***-                        #
                  #          Department of theory and spectroscopy      #
                  #    Directorship and core code : Frank Neese         #
                  #        Max Planck Institute fuer Kohlenforschung    #
                  #                Kaiser Wilhelm Platz 1               #
                  #                 D-45470 Muelheim/Ruhr               #
                  #                      Germany                        #
                  #                                                     #
                  #                  All rights reserved                #
                  #                        -***-                        #
                  #######################################################


                         Program Version 5.0.4 -  RELEASE  -


 With contributions from (in alphabetic order):
   Daniel Aravena         : Magnetic Suceptibility
   Michael Atanasov       : Ab Initio Ligand Field Theory (pilot matlab implementation)
   Alexander A. Auer      : GIAO ZORA, VPT2 properties, NMR spectrum
   Ute Becker             : Parallelization
   Giovanni Bistoni       : ED, misc. LED, open-shell LED, HFLD
   Martin Brehm           : Molecular dynamics
   Dmytro Bykov           : SCF Hessian
   Vijay G. Chilkuri      : MRCI spin determinant printing, contributions to CSF-ICE
   Dipayan Datta          : RHF DLPNO-CCSD density
   Achintya Kumar Dutta   : EOM-CC, STEOM-CC
   Dmitry Ganyushin       : Spin-Orbit,Spin-Spin,Magnetic field MRCI
   Miquel Garcia          : C-PCM and meta-GGA Hessian, CC/C-PCM, Gaussian charge scheme
   Yang Guo               : DLPNO-NEVPT2, F12-NEVPT2, CIM, IAO-localization
   Andreas Hansen         : Spin unrestricted coupled pair/coupled cluster methods
   Benjamin Helmich-Paris : MC-RPA, TRAH-SCF, COSX integrals
   Lee Huntington         : MR-EOM, pCC
   Robert Izsak           : Overlap fitted RIJCOSX, COSX-SCS-MP3, EOM
   Marcus Kettner         : VPT2
   Christian Kollmar      : KDIIS, OOCD, Brueckner-CCSD(T), CCSD density, CASPT2, CASPT2-K
   Simone Kossmann        : Meta GGA functionals, TD-DFT gradient, OOMP2, MP2 Hessian
   Martin Krupicka        : Initial AUTO-CI
   Lucas Lang             : DCDCAS
   Marvin Lechner         : AUTO-CI (C++ implementation), FIC-MRCC
   Dagmar Lenk            : GEPOL surface, SMD
   Dimitrios Liakos       : Extrapolation schemes; Compound Job, initial MDCI parallelization
   Dimitrios Manganas     : Further ROCIS development; embedding schemes
   Dimitrios Pantazis     : SARC Basis sets
   Anastasios Papadopoulos: AUTO-CI, single reference methods and gradients
   Taras Petrenko         : DFT Hessian,TD-DFT gradient, ASA, ECA, R-Raman, ABS, FL, XAS/XES, NRVS
   Peter Pinski           : DLPNO-MP2, DLPNO-MP2 Gradient
   Christoph Reimann      : Effective Core Potentials
   Marius Retegan         : Local ZFS, SOC
   Christoph Riplinger    : Optimizer, TS searches, QM/MM, DLPNO-CCSD(T), (RO)-DLPNO pert. Triples
   Tobias Risthaus        : Range-separated hybrids, TD-DFT gradient, RPA, STAB
   Michael Roemelt        : Original ROCIS implementation
   Masaaki Saitow         : Open-shell DLPNO-CCSD energy and density
   Barbara Sandhoefer     : DKH picture change effects
   Avijit Sen             : IP-ROCIS
   Kantharuban Sivalingam : CASSCF convergence, NEVPT2, FIC-MRCI
   Bernardo de Souza      : ESD, SOC TD-DFT
   Georgi Stoychev        : AutoAux, RI-MP2 NMR, DLPNO-MP2 response
   Willem Van den Heuvel  : Paramagnetic NMR
   Boris Wezisla          : Elementary symmetry handling
   Frank Wennmohs         : Technical directorship


 We gratefully acknowledge several colleagues who have allowed us to
 interface, adapt or use parts of their codes:
   Stefan Grimme, W. Hujo, H. Kruse, P. Pracht,  : VdW corrections, initial TS optimization,
                  C. Bannwarth, S. Ehlert          DFT functionals, gCP, sTDA/sTD-DF
   Ed Valeev, F. Pavosevic, A. Kumar             : LibInt (2-el integral package), F12 methods
   Garnet Chan, S. Sharma, J. Yang, R. Olivares  : DMRG
   Ulf Ekstrom                                   : XCFun DFT Library
   Mihaly Kallay                                 : mrcc  (arbitrary order and MRCC methods)
   Jiri Pittner, Ondrej Demel                    : Mk-CCSD
   Frank Weinhold                                : gennbo (NPA and NBO analysis)
   Christopher J. Cramer and Donald G. Truhlar   : smd solvation model
   Lars Goerigk                                  : TD-DFT with DH, B97 family of functionals
   V. Asgeirsson, H. Jonsson                     : NEB implementation
   FAccTs GmbH                                   : IRC, NEB, NEB-TS, DLPNO-Multilevel, CI-OPT
                                                   MM, QMMM, 2- and 3-layer-ONIOM, Crystal-QMMM,
                                                   LR-CPCM, SF, NACMEs, symmetry and pop. for TD-DFT,
                                                   nearIR, NL-DFT gradient (VV10), updates on ESD,
                                                   ML-optimized integration grids
   S Lehtola, MJT Oliveira, MAL Marques          : LibXC Library
   Liviu Ungur et al                             : ANISO software


 Your calculation uses the libint2 library for the computation of 2-el integrals
 For citations please refer to: http://libint.valeyev.net

 Your ORCA version has been built with support for libXC version: 5.1.0
 For citations please refer to: https://tddft.org/programs/libxc/

 This ORCA versions uses:
   CBLAS   interface :  Fast vector & matrix operations
   LAPACKE interface :  Fast linear algebra routines
   SCALAPACK package :  Parallel linear algebra routines
   Shared memory     :  Shared parallel matrices
   BLAS/LAPACK       :  OpenBLAS 0.3.15  USE64BITINT DYNAMIC_ARCH NO_AFFINITY SkylakeX SINGLE_THREADED
        Core in use  :  SkylakeX
   Copyright (c) 2011-2014, The OpenBLAS Project




***************************************
The coordinates will be read from file: opt.xyz
***************************************


================================================================================

----- Orbital basis set information -----
Your calculation utilizes the basis: cc-pVDZ 
       H, B-Ne : Obtained from the ccRepo (grant-hill.group.shef.ac.uk/ccrepo) Feb. 2017
                 T. H. Dunning, Jr., J. Chem. Phys. 90, 1007 (1989)
            He : Obtained from the ccRepo (grant-hill.group.shef.ac.uk/ccrepo) Feb. 2017
                 D. E. Woon, T. H. Dunning, Jr., J. Chem. Phys. 100, 2975 (1994)
  Li-Be, Na-Mg : Obtained from the ccRepo (grant-hill.group.shef.ac.uk/ccrepo) Feb. 2017
                 B. P. Prascher, D. E. Woon, K. A. Peterson, T. H. Dunning, Jr., A. K. Wilson, Theor. Chem. Acc. 128, 69 (2011)
         Al-Ar : Obtained from the ccRepo (grant-hill.group.shef.ac.uk/ccrepo) Feb. 2017
                 D. E. Woon, T. H. Dunning, Jr., J. Chem. Phys. 98, 1358 (1993)
            Ca : Obtained from the Peterson Research Group Website (tyr0.chem.wsu.edu/~kipeters) Feb. 2017
                 J. Koput, K. A. Peterson, J. Phys. Chem. 106, 9595 (2002)
         Sc-Zn : Obtained from the ccRepo (grant-hill.group.shef.ac.uk/ccrepo) Feb. 2017
                 N. B. Balabanov, K. A. Peterson, J. Chem. Phys. 123, 064107 (2005)
                 N. B. Balabanov, K. A. Peterson, J. Chem. Phys. 125, 074110 (2006)
         Ga-Kr : Obtained from the ccRepo (grant-hill.group.shef.ac.uk/ccrepo) Feb. 2017
                 A. K. Wilson, D. E. Woon, K. A. Peterson, T. H. Dunning, Jr., J. Chem. Phys. 110, 7667 (1999)

----- AuxJ basis set information -----
Your calculation utilizes the AutoAux generation procedure.
  G. L. Stoychev, A. A. Auer, F. Neese, J. Chem. Theory Comput. 13, 554 (2017)

----- AuxC basis set information -----
Your calculation utilizes the AutoAux generation procedure.
  G. L. Stoychev, A. A. Auer, F. Neese, J. Chem. Theory Comput. 13, 554 (2017)

----- AuxJK basis set information -----
Your calculation utilizes the AutoAux generation procedure.
  G. L. Stoychev, A. A. Auer, F. Neese, J. Chem. Theory Comput. 13, 554 (2017)

================================================================================
                                        WARNINGS
                       Please study these warnings very carefully!
================================================================================

WARNING: Old DensityContainer found on disk!
         Will remove this file - 
         If you want to keep old densities, please start your calculation with a different basename. 


WARNING: your system is open-shell and RHF/RKS was chosen
  ===> : WILL SWITCH to UHF/UKS


INFO   : the flag for use of the SHARK integral package has been found!

================================================================================
                                       INPUT FILE
================================================================================
NAME = cc-pVDZ_i.inp
|  1> ! B3LYP cc-pVDZ AUTOAUX
|  2> %pal nprocs 16 end
|  3> *XYZFile 0 2 opt.xyz
|  4> %EPRNMR
|  5>         GTENSOR   TRUE
|  6>         NUCLEI    = ALL H {SHIFT, AISO, ADIP, AORB}
|  7>         ORI       GIAO
|  8> END
|  9> 
| 10>                          ****END OF INPUT****
================================================================================

                       ****************************
                       * Single Point Calculation *
                       ****************************

---------------------------------
CARTESIAN COORDINATES (ANGSTROEM)
---------------------------------
  C     -2.775358    0.046208   -0.011751
  C      2.820255    0.009685   -0.009139
  C     -1.416126   -0.010274   -0.011347
  C     -0.684648   -1.267420   -0.014386
  C      0.690490   -1.196208   -0.013389
  C      1.407047    0.036197   -0.009702
  C      0.687689    1.279681   -0.006696
  C     -0.690449    1.243926   -0.007610
  H      1.277162   -2.115524   -0.015523
  H     -1.268852    2.166837   -0.005472
  C     -1.480792   -2.555886   -0.018568
  H     -2.154671   -2.540740   -0.897146
  H     -2.157395   -2.544715    0.857974
  C     -0.681275   -3.861204   -0.020309
  H     -0.017862   -3.890851   -0.904058
  H     -0.020683   -3.894869    0.865412
  C     -1.579450   -5.104210   -0.024628
  H     -2.246605   -5.074150    0.856659
  H     -2.243576   -5.070198   -0.908059
  C     -0.790051   -6.415615   -0.026228
  H     -0.143052   -6.494872    0.864454
  H     -0.139497   -6.490536   -0.914694
  C      1.465882    2.581608   -0.002726
  H      2.141040    2.571608    0.872700
  H      2.142655    2.575943   -0.876938
  C      0.653075    3.878460   -0.000281
  H     -0.008622    3.909115   -0.885508
  H     -0.010403    3.904750    0.883750
  C      1.540606    5.129343    0.003729
  H      2.205493    5.100499    0.886927
  H      2.207479    5.104735   -0.878099
  C      0.741236    6.434757    0.005976
  H      0.090513    6.504407    0.894697
  H      0.093010    6.509016   -0.884195
  C      4.046121   -0.034213   -0.010003
  H     -1.460807   -7.289936   -0.029701
  H      1.404972    7.314510    0.009190
  C      5.469175   -0.089851   -0.009729
  C      6.140470   -1.334126   -0.012366
  C      7.533422   -1.384522   -0.012085
  C      8.284577   -0.203110   -0.009213
  C      7.630744    1.034879   -0.006618
  C      6.238242    1.096428   -0.006877
  H      9.376146   -0.247118   -0.009009
  H      8.211876    1.960203   -0.004379
  H      5.552872   -2.254102   -0.014605
  H      5.726741    2.060809   -0.004870
  H      8.038460   -2.353485   -0.014131

----------------------------
CARTESIAN COORDINATES (A.U.)
----------------------------
  NO LB      ZA    FRAG     MASS         X           Y           Z
   0 C     6.0000    0    12.011   -5.244666    0.087321   -0.022207
   1 C     6.0000    0    12.011    5.329509    0.018301   -0.017270
   2 C     6.0000    0    12.011   -2.676089   -0.019416   -0.021442
   3 C     6.0000    0    12.011   -1.293797   -2.395076   -0.027185
   4 C     6.0000    0    12.011    1.304836   -2.260506   -0.025301
   5 C     6.0000    0    12.011    2.658933    0.068402   -0.018335
   6 C     6.0000    0    12.011    1.299543    2.418247   -0.012654
   7 C     6.0000    0    12.011   -1.304760    2.350680   -0.014381
   8 H     1.0000    0     1.008    2.413486   -3.997762   -0.029334
   9 H     1.0000    0     1.008   -2.397782    4.094729   -0.010341
  10 C     6.0000    0    12.011   -2.798290   -4.829924   -0.035089
  11 H     1.0000    0     1.008   -4.071738   -4.801303   -1.695361
  12 H     1.0000    0     1.008   -4.076886   -4.808815    1.621335
  13 C     6.0000    0    12.011   -1.287423   -7.296619   -0.038379
  14 H     1.0000    0     1.008   -0.033755   -7.352643   -1.708423
  15 H     1.0000    0     1.008   -0.039085   -7.360237    1.635391
  16 C     6.0000    0    12.011   -2.984727   -9.645560   -0.046540
  17 H     1.0000    0     1.008   -4.245468   -9.588753    1.618850
  18 H     1.0000    0     1.008   -4.239743   -9.581286   -1.715982
  19 C     6.0000    0    12.011   -1.492981  -12.123756   -0.049565
  20 H     1.0000    0     1.008   -0.270330  -12.273529    1.633581
  21 H     1.0000    0     1.008   -0.263612  -12.265336   -1.728521
  22 C     6.0000    0    12.011    2.770115    4.878533   -0.005151
  23 H     1.0000    0     1.008    4.045979    4.859636    1.649164
  24 H     1.0000    0     1.008    4.049030    4.867828   -1.657173
  25 C     6.0000    0    12.011    1.234134    7.329228   -0.000530
  26 H     1.0000    0     1.008   -0.016293    7.387157   -1.673368
  27 H     1.0000    0     1.008   -0.019659    7.378908    1.670046
  28 C     6.0000    0    12.011    2.911324    9.693053    0.007046
  29 H     1.0000    0     1.008    4.167777    9.638546    1.676049
  30 H     1.0000    0     1.008    4.171531    9.646551   -1.659366
  31 C     6.0000    0    12.011    1.400732   12.159929    0.011293
  32 H     1.0000    0     1.008    0.171045   12.291547    1.690732
  33 H     1.0000    0     1.008    0.175763   12.300257   -1.670887
  34 C     6.0000    0    12.011    7.646061   -0.064654   -0.018903
  35 H     1.0000    0     1.008   -2.760524  -13.775982   -0.056127
  36 H     1.0000    0     1.008    2.655013   13.822421    0.017366
  37 C     6.0000    0    12.011   10.335243   -0.169794   -0.018386
  38 C     6.0000    0    12.011   11.603807   -2.521134   -0.023368
  39 C     6.0000    0    12.011   14.236105   -2.616367   -0.022838
  40 C     6.0000    0    12.011   15.655582   -0.383822   -0.017411
  41 C     6.0000    0    12.011   14.420016    1.955637   -0.012506
  42 C     6.0000    0    12.011   11.788569    2.071948   -0.012996
  43 H     1.0000    0     1.008   17.718348   -0.466986   -0.017025
  44 H     1.0000    0     1.008   15.518196    3.704247   -0.008274
  45 H     1.0000    0     1.008   10.493407   -4.259635   -0.027600
  46 H     1.0000    0     1.008   10.821971    3.894365   -0.009204
  47 H     1.0000    0     1.008   15.190487   -4.447442   -0.026704

--------------------------------
INTERNAL COORDINATES (ANGSTROEM)
--------------------------------
 C      0   0   0     0.000000000000     0.00000000     0.00000000
 C      1   0   0     5.595732004957     0.00000000     0.00000000
 C      1   2   0     1.360405191013     2.00560026     0.00000000
 C      3   1   2     1.454469918689   122.57268791   179.87546019
 C      4   3   1     1.376980208531   117.22867989   180.01155142
 C      2   1   3     1.413456756580     0.70078342   180.04362844
 C      6   2   5     1.436571908484   121.12406587   180.00302186
 C      7   6   2     1.378601847162   118.56311133   179.99054662
 H      5   4   3     1.090564627606   119.57987629   179.99649821
 H      8   7   6     1.089182455298   120.58966669   180.00407885
 C      4   3   1     1.514598143512   118.09498938     0.00000000
 H     11   4   3     1.107357915994   108.08554859    56.53583569
 H     11   4   3     1.107358659164   108.08373428   303.58115156
 C     11   4   3     1.530714496630   116.80037928   180.05817528
 H     14  11   4     1.105444583233   109.70863920   301.77526421
 H     14  11   4     1.105448465363   109.70533933    58.22859475
 C     14  11   4     1.533558086370   112.66110580   180.00330784
 H     17  14  11     1.105742166080   109.21375501   302.33041719
 H     17  14  11     1.105743859162   109.21334405    57.68537949
 C     17  14  11     1.530665064032   113.10306867   180.00694348
 H     20  17  14     1.103723193693   111.28414541    59.89992599
 H     20  17  14     1.103723017427   111.28296697   300.14024706
 C      7   6   2     1.516777664683   119.08294731     0.00000000
 H     23   7   6     1.105580701721   107.91606339   303.71010560
 H     23   7   6     1.105577037297   107.91447122    56.23744248
 C     23   7   6     1.530518232004   117.05478261   179.97241633
 H     26  23   7     1.105627075376   109.87974588   301.69490823
 H     26  23   7     1.105624501298   109.88387152    58.29948684
 C     26  23   7     1.533764592831   112.56596694   179.99750909
 H     29  26  23     1.105868820719   109.19151540   302.31939451
 H     29  26  23     1.105867991045   109.19103182    57.66089109
 C     29  26  23     1.530720359307   113.16229135   179.99053427
 H     32  29  26     1.103682689923   111.27816991    59.84672670
 H     32  29  26     1.103682976140   111.27899091   300.11506728
 C      2   1   3     1.226652884749   178.32176436     2.01506262
 H     20  17  14     1.101980315981   111.45985788   180.02058279
 H     32  29  26     1.102053733118   111.48590918   179.98045027
 C     35   2   6     1.424140703761   179.80499042   341.01984994
 C     38  35   2     1.413812362503   120.58607539    15.40693246
 C     39  38  35     1.393863497676   120.41908479   180.00015779
 C     40  39  38     1.399991502332   120.37661057     0.00000000
 C     41  40  39     1.400042963895   119.71107387     0.00000000
 C     42  41  40     1.393861490907   120.37116468     0.00000000
 H     41  40  39     1.092455893739   120.13987717   180.00034672
 H     42  41  40     1.092677705168   120.02965548   180.00046773
 H     39  38  35     1.091618719799   119.08613018     0.00000000
 H     43  42  41     1.091636261109   120.47192886   180.00086835
 H     40  39  38     1.092683124259   119.60108407   179.99928286

---------------------------
INTERNAL COORDINATES (A.U.)
---------------------------
 C      0   0   0     0.000000000000     0.00000000     0.00000000
 C      1   0   0    10.574401008187     0.00000000     0.00000000
 C      1   2   0     2.570793242180     2.00560026     0.00000000
 C      3   1   2     2.748549816349   122.57268791   179.87546019
 C      4   3   1     2.602115485954   117.22867989   180.01155142
 C      2   1   3     2.671046172077     0.70078342   180.04362844
 C      6   2   5     2.714727478719   121.12406587   180.00302186
 C      7   6   2     2.605179938854   118.56311133   179.99054662
 H      5   4   3     2.060868477517   119.57987629   179.99649821
 H      8   7   6     2.058256550386   120.58966669   180.00407885
 C      4   3   1     2.862175694184   118.09498938     0.00000000
 H     11   4   3     2.092603193458   108.08554859    56.53583569
 H     11   4   3     2.092604597845   108.08373428   303.58115156
 C     11   4   3     2.892631187855   116.80037928   180.05817528
 H     14  11   4     2.088987518538   109.70863920   301.77526421
 H     14  11   4     2.088994854700   109.70533933    58.22859475
 C     14  11   4     2.898004793701   112.66110580   180.00330784
 H     17  14  11     2.089549868619   109.21375501   302.33041719
 H     17  14  11     2.089553068082   109.21334405    57.68537949
 C     17  14  11     2.892537773781   113.10306867   180.00694348
 H     20  17  14     2.085734563736   111.28414541    59.89992599
 H     20  17  14     2.085734230642   111.28296697   300.14024706
 C      7   6   2     2.866294392300   119.08294731     0.00000000
 H     23   7   6     2.089244745201   107.91606339   303.71010560
 H     23   7   6     2.089237820443   107.91447122    56.23744248
 C     23   7   6     2.892260301461   117.05478261   179.97241633
 H     26  23   7     2.089332378710   109.87974588   301.69490823
 H     26  23   7     2.089327514406   109.88387152    58.29948684
 C     26  23   7     2.898395034356   112.56596694   179.99750909
 H     29  26  23     2.089789211202   109.19151540   302.31939451
 H     29  26  23     2.089787643345   109.19103182    57.66089109
 C     29  26  23     2.892642266708   113.16229135   179.99053427
 H     32  29  26     2.085658022704   111.27816991    59.84672670
 H     32  29  26     2.085658563575   111.27899091   300.11506728
 C      2   1   3     2.318038013559   178.32176436     2.01506262
 H     20  17  14     2.082441002175   111.45985788   180.02058279
 H     32  29  26     2.082579740458   111.48590918   179.98045027
 C     35   2   6     2.691235906278   179.80499042   341.01984994
 C     38  35   2     2.671718169883   120.58607539    15.40693246
 C     39  38  35     2.634020278678   120.41908479   180.00015779
 C     40  39  38     2.645600529224   120.37661057     0.00000000
 C     41  40  39     2.645697777485   119.71107387     0.00000000
 C     42  41  40     2.634016486433   120.37116468     0.00000000
 H     41  40  39     2.064442452556   120.13987717   180.00034672
 H     42  41  40     2.064861615409   120.02965548   180.00046773
 H     39  38  35     2.062860423082   119.08613018     0.00000000
 H     43  42  41     2.062893571354   120.47192886   180.00086835
 H     40  39  38     2.064871856006   119.60108407   179.99928286

---------------------
BASIS SET INFORMATION
---------------------
There are 2 groups of distinct atoms

 Group   1 Type C   : 17s4p1d contracted to 3s2p1d pattern {881/31/1}
 Group   2 Type H   : 4s1p contracted to 2s1p pattern {31/1}

Atom   0C    basis set group =>   1
Atom   1C    basis set group =>   1
Atom   2C    basis set group =>   1
Atom   3C    basis set group =>   1
Atom   4C    basis set group =>   1
Atom   5C    basis set group =>   1
Atom   6C    basis set group =>   1
Atom   7C    basis set group =>   1
Atom   8H    basis set group =>   2
Atom   9H    basis set group =>   2
Atom  10C    basis set group =>   1
Atom  11H    basis set group =>   2
Atom  12H    basis set group =>   2
Atom  13C    basis set group =>   1
Atom  14H    basis set group =>   2
Atom  15H    basis set group =>   2
Atom  16C    basis set group =>   1
Atom  17H    basis set group =>   2
Atom  18H    basis set group =>   2
Atom  19C    basis set group =>   1
Atom  20H    basis set group =>   2
Atom  21H    basis set group =>   2
Atom  22C    basis set group =>   1
Atom  23H    basis set group =>   2
Atom  24H    basis set group =>   2
Atom  25C    basis set group =>   1
Atom  26H    basis set group =>   2
Atom  27H    basis set group =>   2
Atom  28C    basis set group =>   1
Atom  29H    basis set group =>   2
Atom  30H    basis set group =>   2
Atom  31C    basis set group =>   1
Atom  32H    basis set group =>   2
Atom  33H    basis set group =>   2
Atom  34C    basis set group =>   1
Atom  35H    basis set group =>   2
Atom  36H    basis set group =>   2
Atom  37C    basis set group =>   1
Atom  38C    basis set group =>   1
Atom  39C    basis set group =>   1
Atom  40C    basis set group =>   1
Atom  41C    basis set group =>   1
Atom  42C    basis set group =>   1
Atom  43H    basis set group =>   2
Atom  44H    basis set group =>   2
Atom  45H    basis set group =>   2
Atom  46H    basis set group =>   2
Atom  47H    basis set group =>   2
---------------------------------
AUXILIARY/J BASIS SET INFORMATION
---------------------------------
There are 2 groups of distinct atoms

 Group   1 Type C   : 14s11p10d2f contracted to 14s11p10d2f pattern {11111111111111/11111111111/1111111111/11}
 Group   2 Type H   : 9s2p1d contracted to 9s2p1d pattern {111111111/11/1}

Atom   0C    basis set group =>   1
Atom   1C    basis set group =>   1
Atom   2C    basis set group =>   1
Atom   3C    basis set group =>   1
Atom   4C    basis set group =>   1
Atom   5C    basis set group =>   1
Atom   6C    basis set group =>   1
Atom   7C    basis set group =>   1
Atom   8H    basis set group =>   2
Atom   9H    basis set group =>   2
Atom  10C    basis set group =>   1
Atom  11H    basis set group =>   2
Atom  12H    basis set group =>   2
Atom  13C    basis set group =>   1
Atom  14H    basis set group =>   2
Atom  15H    basis set group =>   2
Atom  16C    basis set group =>   1
Atom  17H    basis set group =>   2
Atom  18H    basis set group =>   2
Atom  19C    basis set group =>   1
Atom  20H    basis set group =>   2
Atom  21H    basis set group =>   2
Atom  22C    basis set group =>   1
Atom  23H    basis set group =>   2
Atom  24H    basis set group =>   2
Atom  25C    basis set group =>   1
Atom  26H    basis set group =>   2
Atom  27H    basis set group =>   2
Atom  28C    basis set group =>   1
Atom  29H    basis set group =>   2
Atom  30H    basis set group =>   2
Atom  31C    basis set group =>   1
Atom  32H    basis set group =>   2
Atom  33H    basis set group =>   2
Atom  34C    basis set group =>   1
Atom  35H    basis set group =>   2
Atom  36H    basis set group =>   2
Atom  37C    basis set group =>   1
Atom  38C    basis set group =>   1
Atom  39C    basis set group =>   1
Atom  40C    basis set group =>   1
Atom  41C    basis set group =>   1
Atom  42C    basis set group =>   1
Atom  43H    basis set group =>   2
Atom  44H    basis set group =>   2
Atom  45H    basis set group =>   2
Atom  46H    basis set group =>   2
Atom  47H    basis set group =>   2
---------------------------------
AUXILIARY/C BASIS SET INFORMATION
---------------------------------
There are 2 groups of distinct atoms

 Group   1 Type C   : 14s11p10d2f contracted to 14s11p10d2f pattern {11111111111111/11111111111/1111111111/11}
 Group   2 Type H   : 9s2p1d contracted to 9s2p1d pattern {111111111/11/1}

Atom   0C    basis set group =>   1
Atom   1C    basis set group =>   1
Atom   2C    basis set group =>   1
Atom   3C    basis set group =>   1
Atom   4C    basis set group =>   1
Atom   5C    basis set group =>   1
Atom   6C    basis set group =>   1
Atom   7C    basis set group =>   1
Atom   8H    basis set group =>   2
Atom   9H    basis set group =>   2
Atom  10C    basis set group =>   1
Atom  11H    basis set group =>   2
Atom  12H    basis set group =>   2
Atom  13C    basis set group =>   1
Atom  14H    basis set group =>   2
Atom  15H    basis set group =>   2
Atom  16C    basis set group =>   1
Atom  17H    basis set group =>   2
Atom  18H    basis set group =>   2
Atom  19C    basis set group =>   1
Atom  20H    basis set group =>   2
Atom  21H    basis set group =>   2
Atom  22C    basis set group =>   1
Atom  23H    basis set group =>   2
Atom  24H    basis set group =>   2
Atom  25C    basis set group =>   1
Atom  26H    basis set group =>   2
Atom  27H    basis set group =>   2
Atom  28C    basis set group =>   1
Atom  29H    basis set group =>   2
Atom  30H    basis set group =>   2
Atom  31C    basis set group =>   1
Atom  32H    basis set group =>   2
Atom  33H    basis set group =>   2
Atom  34C    basis set group =>   1
Atom  35H    basis set group =>   2
Atom  36H    basis set group =>   2
Atom  37C    basis set group =>   1
Atom  38C    basis set group =>   1
Atom  39C    basis set group =>   1
Atom  40C    basis set group =>   1
Atom  41C    basis set group =>   1
Atom  42C    basis set group =>   1
Atom  43H    basis set group =>   2
Atom  44H    basis set group =>   2
Atom  45H    basis set group =>   2
Atom  46H    basis set group =>   2
Atom  47H    basis set group =>   2
----------------------------------
AUXILIARY/JK BASIS SET INFORMATION
----------------------------------
There are 2 groups of distinct atoms

 Group   1 Type C   : 14s11p10d2f contracted to 14s11p10d2f pattern {11111111111111/11111111111/1111111111/11}
 Group   2 Type H   : 9s2p1d contracted to 9s2p1d pattern {111111111/11/1}

Atom   0C    basis set group =>   1
Atom   1C    basis set group =>   1
Atom   2C    basis set group =>   1
Atom   3C    basis set group =>   1
Atom   4C    basis set group =>   1
Atom   5C    basis set group =>   1
Atom   6C    basis set group =>   1
Atom   7C    basis set group =>   1
Atom   8H    basis set group =>   2
Atom   9H    basis set group =>   2
Atom  10C    basis set group =>   1
Atom  11H    basis set group =>   2
Atom  12H    basis set group =>   2
Atom  13C    basis set group =>   1
Atom  14H    basis set group =>   2
Atom  15H    basis set group =>   2
Atom  16C    basis set group =>   1
Atom  17H    basis set group =>   2
Atom  18H    basis set group =>   2
Atom  19C    basis set group =>   1
Atom  20H    basis set group =>   2
Atom  21H    basis set group =>   2
Atom  22C    basis set group =>   1
Atom  23H    basis set group =>   2
Atom  24H    basis set group =>   2
Atom  25C    basis set group =>   1
Atom  26H    basis set group =>   2
Atom  27H    basis set group =>   2
Atom  28C    basis set group =>   1
Atom  29H    basis set group =>   2
Atom  30H    basis set group =>   2
Atom  31C    basis set group =>   1
Atom  32H    basis set group =>   2
Atom  33H    basis set group =>   2
Atom  34C    basis set group =>   1
Atom  35H    basis set group =>   2
Atom  36H    basis set group =>   2
Atom  37C    basis set group =>   1
Atom  38C    basis set group =>   1
Atom  39C    basis set group =>   1
Atom  40C    basis set group =>   1
Atom  41C    basis set group =>   1
Atom  42C    basis set group =>   1
Atom  43H    basis set group =>   2
Atom  44H    basis set group =>   2
Atom  45H    basis set group =>   2
Atom  46H    basis set group =>   2
Atom  47H    basis set group =>   2

Checking for AutoStart:
The File: cc-pVDZ_i.gbw exists
Trying to determine its content:
     ... Fine, the file contains calculation information
     ... Fine, the calculation information was read
     ... Fine, the file contains a basis set
     ... Fine, the basis set was read
     ... Fine, the file contains a geometry
     ... Fine, the geometry was read
     ... Fine, the file contains a set of orbitals
     ... Fine, the orbitals can be read
     => possible old guess file was deleted
     => GBW file was renamed to GES file
     => GES file is set as startup file
     => Guess is set to MORead
     ... now leaving AutoStart



           ************************************************************
           *        Program running with 16 parallel MPI-processes    *
           *              working on a common directory               *
           ************************************************************
------------------------------------------------------------------------------
                           ORCA GTO INTEGRAL CALCULATION
                           -- RI-GTO INTEGRALS CHOSEN --
------------------------------------------------------------------------------
------------------------------------------------------------------------------
                   ___                                                        
                  /   \      - P O W E R E D   B Y -                         
                 /     \                                                     
                 |  |  |   _    _      __       _____    __    __             
                 |  |  |  | |  | |    /  \     |  _  \  |  |  /  |          
                  \  \/   | |  | |   /    \    | | | |  |  | /  /          
                 / \  \   | |__| |  /  /\  \   | |_| |  |  |/  /          
                |  |  |   |  __  | /  /__\  \  |    /   |      \           
                |  |  |   | |  | | |   __   |  |    \   |  |\   \          
                \     /   | |  | | |  |  |  |  | |\  \  |  | \   \       
                 \___/    |_|  |_| |__|  |__|  |_| \__\ |__|  \__/        
                                                                              
                      - O R C A' S   B I G   F R I E N D -                    
                                      &                                       
                       - I N T E G R A L  F E E D E R -                       
                                                                              
 v1 FN, 2020, v2 2021                                                         
------------------------------------------------------------------------------


Reading SHARK input file cc-pVDZ_i.SHARKINP.tmp ... ok
----------------------
SHARK INTEGRAL PACKAGE
----------------------

Number of atoms                             ...     48
Number of basis functions                   ...    585
Number of shells                            ...    351
Maximum angular momentum                    ...      2
Integral batch strategy                     ... SHARK/LIBINT Hybrid
RI-J (if used) integral strategy            ... SPLIT-RIJ (Revised 2003 algorithm where possible)
Printlevel                                  ...      1
Contraction scheme used                     ... PARTIAL GENERAL contraction
Coulomb Range Separation                    ... NOT USED
Exchange Range Separation                   ... NOT USED
Finite Nucleus Model                        ... NOT USED
Auxiliary Coulomb fitting basis             ... AVAILABLE
   # of basis functions in Aux-J            ...   3053
   # of shells in Aux-J                     ...   1151
   Maximum angular momentum in Aux-J        ...      3
Auxiliary J/K fitting basis                 ... AVAILABLE
   # of basis functions in Aux-JK           ...   3053
   # of shells in Aux-JK                    ...   1151
   Maximum angular momentum in Aux-JK       ...      3
Auxiliary Correlation fitting basis         ... AVAILABLE
   # of basis functions in Aux-C            ...   3053
   # of shells in Aux-C                     ...   1151
   Maximum angular momentum in Aux-C        ...      3
Auxiliary 'external' fitting basis          ... NOT available
Integral threshold                          ...     1.000000e-10
Primitive cut-off                           ...     1.000000e-11
Primitive pair pre-selection threshold      ...     1.000000e-11

Calculating pre-screening integrals         ... done (  0.0 sec) Dimension = 351
Calculating pre-screening integrals (ORCA)  ... done (  0.1 sec) Dimension = 213
Organizing shell pair data                  ... done (  0.2 sec)
Shell pair information
Total number of shell pairs                 ...     61776
Shell pairs after pre-screening             ...     24387
Total number of primitive shell pairs       ...    100272
Primitive shell pairs kept                  ...     33060
          la=0 lb=0:  10594 shell pairs
          la=1 lb=0:   8613 shell pairs
          la=1 lb=1:   1530 shell pairs
          la=2 lb=0:   2571 shell pairs
          la=2 lb=1:    927 shell pairs
          la=2 lb=2:    152 shell pairs

Calculating one electron integrals          ... done (  0.0 sec)
Calculating RI/J V-Matrix + Cholesky decomp.... done (  0.6 sec)
Calculating RI/JK V-Matrix + Cholesky decomp... done (  0.6 sec)
Calculating RI/C V-Matrix + Cholesky decomp.... done (  0.6 sec)
Calculating Nuclear repulsion               ... done (  0.0 sec) ENN=   1629.446539159833 Eh

SHARK setup successfully completed in   2.4 seconds

Maximum memory used throughout the entire GTOINT-calculation: 39.5 MB


           ************************************************************
           *        Program running with 16 parallel MPI-processes    *
           *              working on a common directory               *
           ************************************************************
-------------------------------------------------------------------------------
                                 ORCA SCF
-------------------------------------------------------------------------------

------------
SCF SETTINGS
------------
Hamiltonian:
 Density Functional     Method          .... DFT(GTOs)
 Exchange Functional    Exchange        .... B88
   X-Alpha parameter    XAlpha          ....  0.666667
   Becke's b parameter  XBeta           ....  0.004200
 Correlation Functional Correlation     .... LYP
 LDA part of GGA corr.  LDAOpt          .... VWN-5
 Gradients option       PostSCFGGA      .... off
 Hybrid DFT is turned on
   Fraction HF Exchange ScalHFX         ....  0.200000
   Scaling of DF-GGA-X  ScalDFX         ....  0.720000
   Scaling of DF-GGA-C  ScalDFC         ....  0.810000
   Scaling of DF-LDA-C  ScalLDAC        ....  1.000000
   Perturbative correction              ....  0.000000
   Density functional embedding theory  .... OFF
   NL short-range parameter             ....  4.800000
 RI-approximation to the Coulomb term is turned on
   Number of AuxJ basis functions       .... 3053
   RIJ-COSX (HFX calculated with COS-X)).... on


General Settings:
 Integral files         IntName         .... cc-pVDZ_i
 Hartree-Fock type      HFTyp           .... UHF
 Total Charge           Charge          ....    0
 Multiplicity           Mult            ....    2
 Number of Electrons    NEL             ....  163
 Basis Dimension        Dim             ....  447
 Nuclear Repulsion      ENuc            ....   1629.4465391598 Eh

Convergence Acceleration:
 DIIS                   CNVDIIS         .... on
   Start iteration      DIISMaxIt       ....    12
   Startup error        DIISStart       ....  0.200000
   # of expansion vecs  DIISMaxEq       ....     5
   Bias factor          DIISBfac        ....   1.050
   Max. coefficient     DIISMaxC        ....  10.000
 Trust-Rad. Augm. Hess. CNVTRAH         .... auto
   Auto Start mean grad. ratio tolernc. ....  1.125000
   Auto Start start iteration           ....     1
   Auto Start num. interpolation iter.  ....    10
   Max. Number of Micro iterations      ....    16
   Max. Number of Macro iterations      .... Maxiter - #DIIS iter
   Number of Davidson start vectors     ....     2
   Converg. threshold I  (grad. norm)   ....   5.000e-05
   Converg. threshold II (energy diff.) ....   1.000e-06
   Grad. Scal. Fac. for Micro threshold ....   0.100
   Minimum threshold for Micro iter.    ....   0.010
   NR start threshold (gradient norm)   ....   0.001
   Initial trust radius                 ....   0.400
   Minimum AH scaling param. (alpha)    ....   1.000
   Maximum AH scaling param. (alpha)    .... 1000.000
   Orbital update algorithm             .... Taylor
   White noise on init. David. guess    .... on
   Maximum white noise                  ....   0.010
   Quad. conv. algorithm                .... NR
 SOSCF                  CNVSOSCF        .... off
 Level Shifting         CNVShift        .... on
   Level shift para.    LevelShift      ....    0.2500
   Turn off err/grad.   ShiftErr        ....    0.0010
 Zerner damping         CNVZerner       .... off
 Static damping         CNVDamp         .... on
   Fraction old density DampFac         ....    0.7000
   Max. Damping (<1)    DampMax         ....    0.9800
   Min. Damping (>=0)   DampMin         ....    0.0000
   Turn off err/grad.   DampErr         ....    0.1000
 Fernandez-Rico         CNVRico         .... off

SCF Procedure:
 Maximum # iterations   MaxIter         ....   125
 SCF integral mode      SCFMode         .... Direct
   Integral package                     .... SHARK and LIBINT hybrid scheme
 Reset frequency        DirectResetFreq ....    20
 Integral Threshold     Thresh          ....  1.000e-10 Eh
 Primitive CutOff       TCut            ....  1.000e-11 Eh

Convergence Tolerance:
 Convergence Check Mode ConvCheckMode   .... Total+1el-Energy
 Convergence forced     ConvForced      .... 0
 Energy Change          TolE            ....  1.000e-06 Eh
 1-El. energy change                    ....  1.000e-03 Eh
 DIIS Error             TolErr          ....  1.000e-06


Diagonalization of the overlap matrix:
Smallest eigenvalue                        ... 5.274e-05
Time for diagonalization                   ...    0.038 sec
Threshold for overlap eigenvalues          ... 1.000e-08
Number of eigenvalues below threshold      ... 0
Time for construction of square roots      ...    0.042 sec
Total time needed                          ...    0.081 sec

---------------------
INITIAL GUESS: MOREAD
---------------------
Guess MOs are being read from file: cc-pVDZ_i.ges
Input geometry compatible with but different from current geometry
Input basis set matches current basis set (good)
MOs were renormalized
MOs were reorthogonalized (Cholesky)
                      ------------------
                      INITIAL GUESS DONE (   0.2 sec)
                      ------------------
-------------------
DFT GRID GENERATION
-------------------

General Integration Accuracy     IntAcc      ... 4.388
Radial Grid Type                 RadialGrid  ... OptM3 with GC (2021)
Angular Grid (max. ang.)         AngularGrid ... 4 (Lebedev-302)
Angular grid pruning method      GridPruning ... 4 (adaptive)
Weight generation scheme         WeightScheme... Becke
Basis function cutoff            BFCut       ... 1.0000e-10
Integration weight cutoff        WCut        ... 1.0000e-14
Angular grids for H and He will be reduced by one unit
Partially contracted basis set               ... off
Rotationally invariant grid construction     ... off

Total number of grid points                  ...   217077
Total number of batches                      ...     3415
Average number of points per batch           ...       63
Average number of grid points per atom       ...     4522
Time for grid setup =    1.361 sec

--------------------
COSX GRID GENERATION
--------------------

GRIDX 1
-------
General Integration Accuracy     IntAcc      ... 3.816
Radial Grid Type                 RadialGrid  ... OptM3 with GC (2021)
Angular Grid (max. ang.)         AngularGrid ... 1 (Lebedev-50)
Angular grid pruning method      GridPruning ... 4 (adaptive)
Weight generation scheme         WeightScheme... Becke
Basis function cutoff            BFCut       ... 1.0000e-10
Integration weight cutoff        WCut        ... 1.0000e-14
Angular grids for H and He will be reduced by one unit
Partially contracted basis set               ... on
Rotationally invariant grid construction     ... off

Total number of grid points                  ...    27664
Total number of batches                      ...      458
Average number of points per batch           ...       60
Average number of grid points per atom       ...      576
UseSFitting                                  ... on

GRIDX 2
-------
General Integration Accuracy     IntAcc      ... 4.020
Radial Grid Type                 RadialGrid  ... OptM3 with GC (2021)
Angular Grid (max. ang.)         AngularGrid ... 2 (Lebedev-110)
Angular grid pruning method      GridPruning ... 4 (adaptive)
Weight generation scheme         WeightScheme... Becke
Basis function cutoff            BFCut       ... 1.0000e-10
Integration weight cutoff        WCut        ... 1.0000e-14
Angular grids for H and He will be reduced by one unit
Partially contracted basis set               ... on
Rotationally invariant grid construction     ... off

Total number of grid points                  ...    58871
Total number of batches                      ...      945
Average number of points per batch           ...       62
Average number of grid points per atom       ...     1226
UseSFitting                                  ... on

GRIDX 3
-------
General Integration Accuracy     IntAcc      ... 4.338
Radial Grid Type                 RadialGrid  ... OptM3 with GC (2021)
Angular Grid (max. ang.)         AngularGrid ... 3 (Lebedev-194)
Angular grid pruning method      GridPruning ... 4 (adaptive)
Weight generation scheme         WeightScheme... Becke
Basis function cutoff            BFCut       ... 1.0000e-10
Integration weight cutoff        WCut        ... 1.0000e-14
Angular grids for H and He will be reduced by one unit
Partially contracted basis set               ... on
Rotationally invariant grid construction     ... off

Total number of grid points                  ...   128758
Total number of batches                      ...     2038
Average number of points per batch           ...       63
Average number of grid points per atom       ...     2682
UseSFitting                                  ... on

Time for X-Grid setup             =    2.405 sec

 re-compute Schwartz prescreening matrix in partically contracted basis (1) ...done (   0.119 sec)
--------------
SCF ITERATIONS
--------------
ITER       Energy         Delta-E        Max-DP      RMS-DP      [F,P]     Damp
               ***  Starting incremental Fock matrix formation  ***
  0   -890.6557336285   0.000000000000 0.03994994  0.00040382  0.0685078 0.7000
  1   -890.6924935253  -0.036759896755 0.03503311  0.00029462  0.0424278 0.7000
                               ***Turning on DIIS***
  2   -890.7087536546  -0.016260129358 0.08061645  0.00052803  0.0253103 0.0000
  3   -890.7293773917  -0.020623737044 0.03135709  0.00032948  0.0245520 0.0000
  4   -890.7393166561  -0.009939264372 0.02059690  0.00019450  0.0111720 0.0000
  5   -890.7415113295  -0.002194673453 0.00974117  0.00009392  0.0055810 0.0000
  6   -890.7423241980  -0.000812868443 0.00339441  0.00004294  0.0035615 0.0000
  7   -890.7426001877  -0.000275989739 0.00170773  0.00002285  0.0020429 0.0000
  8   -890.7427116580  -0.000111470315 0.00127820  0.00001608  0.0011840 0.0000
  9   -890.7427694435  -0.000057785455 0.00171749  0.00001929  0.0007256 0.0000
               *** Restarting incremental Fock matrix formation ***
                                   *** Resetting DIIS ***
 10   -890.7428113662  -0.000041922751 0.00059733  0.00000859  0.0003350 0.0000
 11   -890.7428106674   0.000000698792 0.00039657  0.00000465  0.0005920 0.0000
 12   -890.7428154938  -0.000004826422 0.00020631  0.00000179  0.0001904 0.0000
 13   -890.7428160179  -0.000000524006 0.00017502  0.00000164  0.0001304 0.0000
 14   -890.7428162638  -0.000000245933 0.00010013  0.00000084  0.0000631 0.0000
                 **** Energy Check signals convergence ****

               *****************************************************
               *                     SUCCESS                       *
               *           SCF CONVERGED AFTER  15 CYCLES          *
               *****************************************************

Old exchange energy                            =    -25.600891636 Eh
New exchange energy                            =    -25.600986125 Eh
Exchange energy change after final integration =     -0.000094490 Eh
Total energy after final integration           =   -890.742910781 Eh
Final COS-X integration done in                =     7.291 sec

----------------
TOTAL SCF ENERGY
----------------

Total Energy       :         -890.74291078 Eh          -24238.34686 eV

Components:
Nuclear Repulsion  :         1629.44653916 Eh           44339.49451 eV
Electronic Energy  :        -2520.18944994 Eh          -68577.84136 eV
One Electron Energy:        -4436.20053172 Eh         -120715.15351 eV
Two Electron Energy:         1916.01108178 Eh           52137.31215 eV
Max COSX asymmetry :            0.00000066 Eh               0.00002 eV

Virial components:
Potential Energy   :        -1775.43822809 Eh          -48312.13033 eV
Kinetic Energy     :          884.69531731 Eh           24073.78347 eV
Virial Ratio       :            2.00683579


DFT components:
N(Alpha)           :       82.000188481321 electrons
N(Beta)            :       81.000186120003 electrons
N(Total)           :      163.000374601324 electrons
E(X)               :     -101.523736856850 Eh       
E(C)               :       -6.327242621756 Eh       
E(XC)              :     -107.850979478605 Eh       
DFET-embed. en.    :        0.000000000000 Eh       

---------------
SCF CONVERGENCE
---------------

  Last Energy change         ...   -2.7391e-08  Tolerance :   1.0000e-06
  Last MAX-Density change    ...    0.0000e+00  Tolerance :   1.0000e-05
  Last RMS-Density change    ...    0.0000e+00  Tolerance :   1.0000e-06
  Last DIIS Error            ...    2.4053e-05  Tolerance :   1.0000e-06

             **** THE GBW FILE WAS UPDATED (cc-pVDZ_i.gbw) ****
             **** DENSITY cc-pVDZ_i.scfp WAS UPDATED ****
             **** ENERGY FILE WAS UPDATED (cc-pVDZ_i.en.tmp) ****
----------------------
UHF SPIN CONTAMINATION
----------------------

Warning: in a DFT calculation there is little theoretical justification to 
         calculate <S**2> as in Hartree-Fock theory. We will do it anyways
         but you should keep in mind that the values have only limited relevance

Expectation value of <S**2>     :     0.756041
Ideal value S*(S+1) for S=0.5   :     0.750000
Deviation                       :     0.006041

             **** THE GBW FILE WAS UPDATED (cc-pVDZ_i.gbw) ****
             **** DENSITY cc-pVDZ_i.scfp WAS UPDATED ****
----------------
ORBITAL ENERGIES
----------------
                 SPIN UP ORBITALS
  NO   OCC          E(Eh)            E(eV) 
   0   1.0000     -10.241606      -278.6883 
   1   1.0000     -10.232520      -278.4410 
   2   1.0000     -10.216999      -278.0187 
   3   1.0000     -10.214871      -277.9608 
   4   1.0000     -10.213493      -277.9233 
   5   1.0000     -10.213374      -277.9200 
   6   1.0000     -10.211699      -277.8745 
   7   1.0000     -10.210688      -277.8470 
   8   1.0000     -10.209667      -277.8192 
   9   1.0000     -10.209566      -277.8164 
  10   1.0000     -10.208507      -277.7876 
  11   1.0000     -10.206745      -277.7397 
  12   1.0000     -10.202561      -277.6258 
  13   1.0000     -10.194324      -277.4017 
  14   1.0000     -10.187769      -277.2233 
  15   1.0000     -10.187141      -277.2062 
  16   1.0000     -10.186344      -277.1845 
  17   1.0000     -10.182983      -277.0930 
  18   1.0000     -10.181808      -277.0611 
  19   1.0000     -10.178413      -276.9687 
  20   1.0000     -10.176786      -276.9244 
  21   1.0000     -10.176105      -276.9059 
  22   1.0000     -10.164405      -276.5875 
  23   1.0000      -0.882020       -24.0010 
  24   1.0000      -0.878144       -23.8955 
  25   1.0000      -0.823588       -22.4110 
  26   1.0000      -0.808489       -22.0001 
  27   1.0000      -0.796980       -21.6869 
  28   1.0000      -0.786651       -21.4059 
  29   1.0000      -0.772693       -21.0261 
  30   1.0000      -0.765927       -20.8419 
  31   1.0000      -0.741931       -20.1890 
  32   1.0000      -0.733234       -19.9523 
  33   1.0000      -0.705049       -19.1854 
  34   1.0000      -0.674939       -18.3660 
  35   1.0000      -0.656543       -17.8654 
  36   1.0000      -0.634916       -17.2770 
  37   1.0000      -0.625091       -17.0096 
  38   1.0000      -0.623691       -16.9715 
  39   1.0000      -0.597692       -16.2640 
  40   1.0000      -0.582415       -15.8483 
  41   1.0000      -0.566977       -15.4282 
  42   1.0000      -0.556300       -15.1377 
  43   1.0000      -0.534438       -14.5428 
  44   1.0000      -0.518894       -14.1198 
  45   1.0000      -0.494719       -13.4620 
  46   1.0000      -0.483462       -13.1557 
  47   1.0000      -0.476199       -12.9580 
  48   1.0000      -0.472820       -12.8661 
  49   1.0000      -0.471292       -12.8245 
  50   1.0000      -0.450467       -12.2578 
  51   1.0000      -0.440274       -11.9805 
  52   1.0000      -0.438615       -11.9353 
  53   1.0000      -0.429275       -11.6812 
  54   1.0000      -0.428444       -11.6586 
  55   1.0000      -0.426115       -11.5952 
  56   1.0000      -0.419000       -11.4016 
  57   1.0000      -0.414177       -11.2703 
  58   1.0000      -0.410189       -11.1618 
  59   1.0000      -0.398428       -10.8418 
  60   1.0000      -0.382502       -10.4084 
  61   1.0000      -0.376545       -10.2463 
  62   1.0000      -0.375213       -10.2101 
  63   1.0000      -0.369090       -10.0434 
  64   1.0000      -0.366408        -9.9705 
  65   1.0000      -0.364045        -9.9062 
  66   1.0000      -0.360269        -9.8034 
  67   1.0000      -0.348430        -9.4813 
  68   1.0000      -0.336990        -9.1700 
  69   1.0000      -0.332665        -9.0523 
  70   1.0000      -0.330705        -8.9989 
  71   1.0000      -0.329080        -8.9547 
  72   1.0000      -0.327209        -8.9038 
  73   1.0000      -0.324044        -8.8177 
  74   1.0000      -0.322606        -8.7785 
  75   1.0000      -0.288924        -7.8620 
  76   1.0000      -0.286445        -7.7946 
  77   1.0000      -0.273317        -7.4373 
  78   1.0000      -0.257343        -7.0027 
  79   1.0000      -0.242267        -6.5924 
  80   1.0000      -0.234071        -6.3694 
  81   1.0000      -0.157534        -4.2867 
  82   0.0000      -0.110373        -3.0034 
  83   0.0000      -0.041080        -1.1178 
  84   0.0000      -0.024584        -0.6690 
  85   0.0000      -0.007793        -0.2121 
  86   0.0000       0.026569         0.7230 
  87   0.0000       0.026773         0.7285 
  88   0.0000       0.043514         1.1841 
  89   0.0000       0.057883         1.5751 
  90   0.0000       0.061625         1.6769 
  91   0.0000       0.072744         1.9795 
  92   0.0000       0.078218         2.1284 
  93   0.0000       0.088420         2.4060 
  94   0.0000       0.090534         2.4635 
  95   0.0000       0.092574         2.5191 
  96   0.0000       0.093550         2.5456 
  97   0.0000       0.094759         2.5785 
  98   0.0000       0.098525         2.6810 
  99   0.0000       0.104676         2.8484 
 100   0.0000       0.121851         3.3157 
 101   0.0000       0.127553         3.4709 
 102   0.0000       0.131421         3.5761 
 103   0.0000       0.135194         3.6788 
 104   0.0000       0.142393         3.8747 
 105   0.0000       0.148449         4.0395 
 106   0.0000       0.148970         4.0537 
 107   0.0000       0.150064         4.0834 
 108   0.0000       0.156009         4.2452 
 109   0.0000       0.159099         4.3293 
 110   0.0000       0.159745         4.3469 
 111   0.0000       0.161867         4.4046 
 112   0.0000       0.169352         4.6083 
 113   0.0000       0.172108         4.6833 
 114   0.0000       0.180179         4.9029 
 115   0.0000       0.196824         5.3559 
 116   0.0000       0.196886         5.3575 
 117   0.0000       0.203282         5.5316 
 118   0.0000       0.209445         5.6993 
 119   0.0000       0.215019         5.8510 
 120   0.0000       0.218856         5.9554 
 121   0.0000       0.234550         6.3824 
 122   0.0000       0.239563         6.5188 
 123   0.0000       0.259326         7.0566 
 124   0.0000       0.265647         7.2286 
 125   0.0000       0.269402         7.3308 
 126   0.0000       0.272390         7.4121 
 127   0.0000       0.283613         7.7175 
 128   0.0000       0.297093         8.0843 
 129   0.0000       0.300838         8.1862 
 130   0.0000       0.328939         8.9509 
 131   0.0000       0.339227         9.2308 
 132   0.0000       0.351457         9.5636 
 133   0.0000       0.354323         9.6416 
 134   0.0000       0.366846         9.9824 
 135   0.0000       0.370795        10.0898 
 136   0.0000       0.399488        10.8706 
 137   0.0000       0.407361        11.0848 
 138   0.0000       0.411145        11.1878 
 139   0.0000       0.414044        11.2667 
 140   0.0000       0.414476        11.2785 
 141   0.0000       0.418409        11.3855 
 142   0.0000       0.419182        11.4065 
 143   0.0000       0.425334        11.5739 
 144   0.0000       0.436186        11.8692 
 145   0.0000       0.437072        11.8933 
 146   0.0000       0.445746        12.1294 
 147   0.0000       0.451016        12.2728 
 148   0.0000       0.457602        12.4520 
 149   0.0000       0.460463        12.5298 
 150   0.0000       0.468877        12.7588 
 151   0.0000       0.475926        12.9506 
 152   0.0000       0.478213        13.0128 
 153   0.0000       0.481813        13.1108 
 154   0.0000       0.487578        13.2677 
 155   0.0000       0.489725        13.3261 
 156   0.0000       0.494913        13.4673 
 157   0.0000       0.498620        13.5681 
 158   0.0000       0.501081        13.6351 
 159   0.0000       0.501293        13.6409 
 160   0.0000       0.504616        13.7313 
 161   0.0000       0.508353        13.8330 
 162   0.0000       0.513738        13.9795 
 163   0.0000       0.516163        14.0455 
 164   0.0000       0.524318        14.2674 
 165   0.0000       0.541225        14.7275 
 166   0.0000       0.541717        14.7409 
 167   0.0000       0.552535        15.0352 
 168   0.0000       0.565165        15.3789 
 169   0.0000       0.572390        15.5755 
 170   0.0000       0.581709        15.8291 
 171   0.0000       0.587597        15.9893 
 172   0.0000       0.589764        16.0483 
 173   0.0000       0.590417        16.0661 
 174   0.0000       0.595466        16.2034 
 175   0.0000       0.603104        16.4113 
 176   0.0000       0.609192        16.5769 
 177   0.0000       0.611931        16.6515 
 178   0.0000       0.617297        16.7975 
 179   0.0000       0.626650        17.0520 
 180   0.0000       0.631724        17.1901 
 181   0.0000       0.632308        17.2060 
 182   0.0000       0.633103        17.2276 
 183   0.0000       0.636015        17.3068 
 184   0.0000       0.641270        17.4498 
 185   0.0000       0.641459        17.4550 
 186   0.0000       0.652773        17.7629 
 187   0.0000       0.653624        17.7860 
 188   0.0000       0.656498        17.8642 
 189   0.0000       0.657993        17.9049 
 190   0.0000       0.659992        17.9593 
 191   0.0000       0.661000        17.9867 
 192   0.0000       0.664312        18.0769 
 193   0.0000       0.667064        18.1517 
 194   0.0000       0.670187        18.2367 
 195   0.0000       0.672141        18.2899 
 196   0.0000       0.672383        18.2965 
 197   0.0000       0.673677        18.3317 
 198   0.0000       0.682393        18.5689 
 199   0.0000       0.683724        18.6051 
 200   0.0000       0.693097        18.8601 
 201   0.0000       0.696207        18.9448 
 202   0.0000       0.700291        19.0559 
 203   0.0000       0.702184        19.1074 
 204   0.0000       0.709003        19.2929 
 205   0.0000       0.712499        19.3881 
 206   0.0000       0.713146        19.4057 
 207   0.0000       0.714464        19.4416 
 208   0.0000       0.732476        19.9317 
 209   0.0000       0.735678        20.0188 
 210   0.0000       0.743396        20.2288 
 211   0.0000       0.755099        20.5473 
 212   0.0000       0.759947        20.6792 
 213   0.0000       0.768123        20.9017 
 214   0.0000       0.782093        21.2818 
 215   0.0000       0.792908        21.5761 
 216   0.0000       0.809392        22.0247 
 217   0.0000       0.819379        22.2964 
 218   0.0000       0.828267        22.5383 
 219   0.0000       0.837441        22.7879 
 220   0.0000       0.838977        22.8297 
 221   0.0000       0.840500        22.8712 
 222   0.0000       0.851558        23.1721 
 223   0.0000       0.867535        23.6068 
 224   0.0000       0.874081        23.7849 
 225   0.0000       0.878308        23.9000 
 226   0.0000       0.886268        24.1166 
 227   0.0000       0.897455        24.4210 
 228   0.0000       0.905562        24.6416 
 229   0.0000       0.919705        25.0264 
 230   0.0000       0.925309        25.1789 
 231   0.0000       0.926556        25.2129 
 232   0.0000       0.940882        25.6027 
 233   0.0000       0.961780        26.1714 
 234   0.0000       0.962862        26.2008 
 235   0.0000       0.966899        26.3106 
 236   0.0000       0.984146        26.7800 
 237   0.0000       0.984603        26.7924 
 238   0.0000       0.991201        26.9719 
 239   0.0000       0.995068        27.0772 
 240   0.0000       1.016368        27.6568 
 241   0.0000       1.019857        27.7517 
 242   0.0000       1.024518        27.8786 
 243   0.0000       1.032676        28.1005 
 244   0.0000       1.043456        28.3939 
 245   0.0000       1.043513        28.3954 
 246   0.0000       1.050681        28.5905 
 247   0.0000       1.061505        28.8850 
 248   0.0000       1.073729        29.2177 
 249   0.0000       1.087324        29.5876 
 250   0.0000       1.101745        29.9800 
 251   0.0000       1.108348        30.1597 
 252   0.0000       1.133172        30.8352 
 253   0.0000       1.147291        31.2194 
 254   0.0000       1.164021        31.6746 
 255   0.0000       1.179829        32.1048 
 256   0.0000       1.187205        32.3055 
 257   0.0000       1.196901        32.5693 
 258   0.0000       1.203575        32.7509 
 259   0.0000       1.204004        32.7626 
 260   0.0000       1.210974        32.9523 
 261   0.0000       1.214956        33.0606 
 262   0.0000       1.217069        33.1181 
 263   0.0000       1.221964        33.2513 
 264   0.0000       1.224971        33.3331 
 265   0.0000       1.230861        33.4934 
 266   0.0000       1.235574        33.6217 
 267   0.0000       1.240357        33.7518 
 268   0.0000       1.269283        34.5389 
 269   0.0000       1.279996        34.8305 
 270   0.0000       1.290026        35.1034 
 271   0.0000       1.304952        35.5095 
 272   0.0000       1.319029        35.8926 
 273   0.0000       1.322444        35.9855 
 274   0.0000       1.326346        36.0917 
 275   0.0000       1.334446        36.3121 
 276   0.0000       1.348684        36.6996 
 277   0.0000       1.362042        37.0631 
 278   0.0000       1.376198        37.4483 
 279   0.0000       1.383058        37.6349 
 280   0.0000       1.399293        38.0767 
 281   0.0000       1.400711        38.1153 
 282   0.0000       1.424132        38.7526 
 283   0.0000       1.425795        38.7979 
 284   0.0000       1.435169        39.0529 
 285   0.0000       1.446499        39.3612 
 286   0.0000       1.456460        39.6323 
 287   0.0000       1.462868        39.8067 
 288   0.0000       1.463685        39.8289 
 289   0.0000       1.465784        39.8860 
 290   0.0000       1.473460        40.0949 
 291   0.0000       1.478838        40.2412 
 292   0.0000       1.484224        40.3878 
 293   0.0000       1.501919        40.8693 
 294   0.0000       1.505765        40.9740 
 295   0.0000       1.514637        41.2154 
 296   0.0000       1.521787        41.4099 
 297   0.0000       1.526569        41.5401 
 298   0.0000       1.544691        42.0332 
 299   0.0000       1.559927        42.4478 
 300   0.0000       1.577956        42.9384 
 301   0.0000       1.583353        43.0852 
 302   0.0000       1.586551        43.1722 
 303   0.0000       1.589224        43.2450 
 304   0.0000       1.599028        43.5118 
 305   0.0000       1.606734        43.7215 
 306   0.0000       1.607405        43.7397 
 307   0.0000       1.613616        43.9087 
 308   0.0000       1.620279        44.0900 
 309   0.0000       1.625810        44.2405 
 310   0.0000       1.628278        44.3077 
 311   0.0000       1.629847        44.3504 
 312   0.0000       1.630347        44.3640 
 313   0.0000       1.631436        44.3936 
 314   0.0000       1.635938        44.5161 
 315   0.0000       1.643007        44.7085 
 316   0.0000       1.645453        44.7751 
 317   0.0000       1.648092        44.8469 
 318   0.0000       1.652128        44.9567 
 319   0.0000       1.662037        45.2263 
 320   0.0000       1.668128        45.3921 
 321   0.0000       1.668518        45.4027 
 322   0.0000       1.673514        45.5386 
 323   0.0000       1.681608        45.7589 
 324   0.0000       1.686320        45.8871 
 325   0.0000       1.689456        45.9724 
 326   0.0000       1.693572        46.0845 
 327   0.0000       1.699065        46.2339 
 328   0.0000       1.701174        46.2913 
 329   0.0000       1.704314        46.3767 
 330   0.0000       1.708106        46.4799 
 331   0.0000       1.712451        46.5982 
 332   0.0000       1.717074        46.7240 
 333   0.0000       1.719270        46.7837 
 334   0.0000       1.727455        47.0064 
 335   0.0000       1.729755        47.0690 
 336   0.0000       1.750180        47.6248 
 337   0.0000       1.753139        47.7053 
 338   0.0000       1.757386        47.8209 
 339   0.0000       1.759402        47.8758 
 340   0.0000       1.764237        48.0073 
 341   0.0000       1.765852        48.0513 
 342   0.0000       1.776310        48.3359 
 343   0.0000       1.788592        48.6701 
 344   0.0000       1.793801        48.8118 
 345   0.0000       1.794317        48.8258 
 346   0.0000       1.794749        48.8376 
 347   0.0000       1.803522        49.0763 
 348   0.0000       1.813705        49.3534 
 349   0.0000       1.815793        49.4102 
 350   0.0000       1.820661        49.5427 
 351   0.0000       1.825573        49.6764 
 352   0.0000       1.831854        49.8473 
 353   0.0000       1.837531        50.0018 
 354   0.0000       1.839867        50.0653 
 355   0.0000       1.847593        50.2756 
 356   0.0000       1.866037        50.7775 
 357   0.0000       1.881692        51.2034 
 358   0.0000       1.882340        51.2211 
 359   0.0000       1.889864        51.4258 
 360   0.0000       1.903387        51.7938 
 361   0.0000       1.917751        52.1846 
 362   0.0000       1.923436        52.3394 
 363   0.0000       1.925591        52.3980 
 364   0.0000       1.932213        52.5782 
 365   0.0000       1.951263        53.0966 
 366   0.0000       1.955873        53.2220 
 367   0.0000       1.956245        53.2321 
 368   0.0000       1.958894        53.3042 
 369   0.0000       1.961147        53.3655 
 370   0.0000       1.973475        53.7010 
 371   0.0000       1.980749        53.8989 
 372   0.0000       1.990191        54.1559 
 373   0.0000       2.014822        54.8261 
 374   0.0000       2.019844        54.9627 
 375   0.0000       2.027837        55.1803 
 376   0.0000       2.047482        55.7148 
 377   0.0000       2.049525        55.7704 
 378   0.0000       2.068656        56.2910 
 379   0.0000       2.085727        56.7555 
 380   0.0000       2.099810        57.1387 
 381   0.0000       2.104335        57.2619 
 382   0.0000       2.112293        57.4784 
 383   0.0000       2.139868        58.2288 
 384   0.0000       2.156323        58.6765 
 385   0.0000       2.166001        58.9399 
 386   0.0000       2.175216        59.1906 
 387   0.0000       2.182272        59.3826 
 388   0.0000       2.183586        59.4184 
 389   0.0000       2.190996        59.6200 
 390   0.0000       2.209532        60.1244 
 391   0.0000       2.213090        60.2213 
 392   0.0000       2.220526        60.4236 
 393   0.0000       2.224480        60.5312 
 394   0.0000       2.239254        60.9332 
 395   0.0000       2.247324        61.1528 
 396   0.0000       2.267850        61.7113 
 397   0.0000       2.279752        62.0352 
 398   0.0000       2.292337        62.3777 
 399   0.0000       2.298533        62.5463 
 400   0.0000       2.313249        62.9467 
 401   0.0000       2.313651        62.9576 
 402   0.0000       2.318466        63.0887 
 403   0.0000       2.323118        63.2153 
 404   0.0000       2.341056        63.7034 
 405   0.0000       2.349857        63.9429 
 406   0.0000       2.364550        64.3427 
 407   0.0000       2.392345        65.0990 
 408   0.0000       2.400725        65.3270 
 409   0.0000       2.404789        65.4376 
 410   0.0000       2.406625        65.4876 
 411   0.0000       2.409851        65.5754 
 412   0.0000       2.412204        65.6394 
 413   0.0000       2.413868        65.6847 
 414   0.0000       2.419025        65.8250 
 415   0.0000       2.422443        65.9180 
 416   0.0000       2.435062        66.2614 
 417   0.0000       2.470838        67.2349 
 418   0.0000       2.480732        67.5041 
 419   0.0000       2.505383        68.1749 
 420   0.0000       2.512410        68.3662 
 421   0.0000       2.530033        68.8457 
 422   0.0000       2.534284        68.9614 
 423   0.0000       2.546161        69.2846 
 424   0.0000       2.578024        70.1516 
 425   0.0000       2.583640        70.3044 
 426   0.0000       2.596595        70.6569 
 427   0.0000       2.606632        70.9301 
 428   0.0000       2.612953        71.1021 
 429   0.0000       2.629512        71.5527 
 430   0.0000       2.675934        72.8159 
 431   0.0000       2.700821        73.4931 
 432   0.0000       2.708263        73.6956 
 433   0.0000       2.710198        73.7482 
 434   0.0000       2.712672        73.8156 
 435   0.0000       2.713928        73.8497 
 436   0.0000       2.722596        74.0856 
 437   0.0000       2.741048        74.5877 
 438   0.0000       2.757572        75.0374 
 439   0.0000       2.824459        76.8574 
 440   0.0000       2.826777        76.9205 
 441   0.0000       2.843337        77.3711 
 442   0.0000       2.866642        78.0053 
 443   0.0000       3.055165        83.1353 
 444   0.0000       3.075098        83.6777 
 445   0.0000       3.330935        90.6393 
 446   0.0000       3.567951        97.0889 

                 SPIN DOWN ORBITALS
  NO   OCC          E(Eh)            E(eV) 
   0   1.0000     -10.241890      -278.6960 
   1   1.0000     -10.232475      -278.4398 
   2   1.0000     -10.215888      -277.9884 
   3   1.0000     -10.215064      -277.9660 
   4   1.0000     -10.213545      -277.9247 
   5   1.0000     -10.213426      -277.9214 
   6   1.0000     -10.211754      -277.8760 
   7   1.0000     -10.210398      -277.8391 
   8   1.0000     -10.209642      -277.8185 
   9   1.0000     -10.209542      -277.8158 
  10   1.0000     -10.208408      -277.7849 
  11   1.0000     -10.205375      -277.7024 
  12   1.0000     -10.202447      -277.6227 
  13   1.0000     -10.194268      -277.4001 
  14   1.0000     -10.187635      -277.2196 
  15   1.0000     -10.187142      -277.2062 
  16   1.0000     -10.186343      -277.1845 
  17   1.0000     -10.182960      -277.0924 
  18   1.0000     -10.181804      -277.0610 
  19   1.0000     -10.178413      -276.9687 
  20   1.0000     -10.177668      -276.9484 
  21   1.0000     -10.176105      -276.9059 
  22   1.0000     -10.150584      -276.2114 
  23   1.0000      -0.881189       -23.9784 
  24   1.0000      -0.877684       -23.8830 
  25   1.0000      -0.822029       -22.3686 
  26   1.0000      -0.808053       -21.9882 
  27   1.0000      -0.796686       -21.6789 
  28   1.0000      -0.783820       -21.3288 
  29   1.0000      -0.771935       -21.0054 
  30   1.0000      -0.765975       -20.8432 
  31   1.0000      -0.738572       -20.0976 
  32   1.0000      -0.733012       -19.9463 
  33   1.0000      -0.704194       -19.1621 
  34   1.0000      -0.667447       -18.1622 
  35   1.0000      -0.655753       -17.8439 
  36   1.0000      -0.632695       -17.2165 
  37   1.0000      -0.624840       -17.0028 
  38   1.0000      -0.623722       -16.9723 
  39   1.0000      -0.595933       -16.2162 
  40   1.0000      -0.581802       -15.8316 
  41   1.0000      -0.566294       -15.4097 
  42   1.0000      -0.554594       -15.0913 
  43   1.0000      -0.524096       -14.2614 
  44   1.0000      -0.516838       -14.0639 
  45   1.0000      -0.494527       -13.4568 
  46   1.0000      -0.479343       -13.0436 
  47   1.0000      -0.476177       -12.9574 
  48   1.0000      -0.472516       -12.8578 
  49   1.0000      -0.471235       -12.8229 
  50   1.0000      -0.450448       -12.2573 
  51   1.0000      -0.438840       -11.9415 
  52   1.0000      -0.438583       -11.9345 
  53   1.0000      -0.428435       -11.6583 
  54   1.0000      -0.428035       -11.6474 
  55   1.0000      -0.425793       -11.5864 
  56   1.0000      -0.418897       -11.3988 
  57   1.0000      -0.413693       -11.2572 
  58   1.0000      -0.406936       -11.0733 
  59   1.0000      -0.398686       -10.8488 
  60   1.0000      -0.382583       -10.4106 
  61   1.0000      -0.376073       -10.2335 
  62   1.0000      -0.373584       -10.1657 
  63   1.0000      -0.368383       -10.0242 
  64   1.0000      -0.365581        -9.9480 
  65   1.0000      -0.362756        -9.8711 
  66   1.0000      -0.360110        -9.7991 
  67   1.0000      -0.348625        -9.4866 
  68   1.0000      -0.336897        -9.1674 
  69   1.0000      -0.332283        -9.0419 
  70   1.0000      -0.330345        -8.9891 
  71   1.0000      -0.328948        -8.9511 
  72   1.0000      -0.327228        -8.9043 
  73   1.0000      -0.322593        -8.7782 
  74   1.0000      -0.322536        -8.7767 
  75   1.0000      -0.287998        -7.8368 
  76   1.0000      -0.286377        -7.7927 
  77   1.0000      -0.273452        -7.4410 
  78   1.0000      -0.256690        -6.9849 
  79   1.0000      -0.232762        -6.3338 
  80   1.0000      -0.219092        -5.9618 
  81   0.0000      -0.104314        -2.8385 
  82   0.0000      -0.038519        -1.0482 
  83   0.0000      -0.024718        -0.6726 
  84   0.0000      -0.007168        -0.1951 
  85   0.0000      -0.003980        -0.1083 
  86   0.0000       0.027221         0.7407 
  87   0.0000       0.031087         0.8459 
  88   0.0000       0.043594         1.1862 
  89   0.0000       0.057922         1.5761 
  90   0.0000       0.061699         1.6789 
  91   0.0000       0.072771         1.9802 
  92   0.0000       0.078813         2.1446 
  93   0.0000       0.089037         2.4228 
  94   0.0000       0.091045         2.4774 
  95   0.0000       0.093213         2.5365 
  96   0.0000       0.093733         2.5506 
  97   0.0000       0.094797         2.5796 
  98   0.0000       0.099684         2.7125 
  99   0.0000       0.104670         2.8482 
 100   0.0000       0.122050         3.3212 
 101   0.0000       0.127764         3.4766 
 102   0.0000       0.131555         3.5798 
 103   0.0000       0.135263         3.6807 
 104   0.0000       0.143196         3.8966 
 105   0.0000       0.148477         4.0403 
 106   0.0000       0.148987         4.0541 
 107   0.0000       0.151898         4.1333 
 108   0.0000       0.156017         4.2454 
 109   0.0000       0.159426         4.3382 
 110   0.0000       0.159771         4.3476 
 111   0.0000       0.162034         4.4092 
 112   0.0000       0.169606         4.6152 
 113   0.0000       0.172784         4.7017 
 114   0.0000       0.180340         4.9073 
 115   0.0000       0.196521         5.3476 
 116   0.0000       0.196990         5.3604 
 117   0.0000       0.203735         5.5439 
 118   0.0000       0.209758         5.7078 
 119   0.0000       0.215704         5.8696 
 120   0.0000       0.219631         5.9765 
 121   0.0000       0.234857         6.3908 
 122   0.0000       0.240985         6.5575 
 123   0.0000       0.259776         7.0689 
 124   0.0000       0.265641         7.2285 
 125   0.0000       0.269965         7.3461 
 126   0.0000       0.272502         7.4151 
 127   0.0000       0.284273         7.7355 
 128   0.0000       0.297526         8.0961 
 129   0.0000       0.301786         8.2120 
 130   0.0000       0.330354         8.9894 
 131   0.0000       0.341586         9.2950 
 132   0.0000       0.354800         9.6546 
 133   0.0000       0.357108         9.7174 
 134   0.0000       0.370052        10.0696 
 135   0.0000       0.374201        10.1825 
 136   0.0000       0.400821        10.9069 
 137   0.0000       0.407477        11.0880 
 138   0.0000       0.411247        11.1906 
 139   0.0000       0.414545        11.2804 
 140   0.0000       0.418453        11.3867 
 141   0.0000       0.419063        11.4033 
 142   0.0000       0.422678        11.5016 
 143   0.0000       0.426169        11.5966 
 144   0.0000       0.436487        11.8774 
 145   0.0000       0.436866        11.8877 
 146   0.0000       0.448880        12.2146 
 147   0.0000       0.453288        12.3346 
 148   0.0000       0.457638        12.4530 
 149   0.0000       0.460613        12.5339 
 150   0.0000       0.469893        12.7864 
 151   0.0000       0.477205        12.9854 
 152   0.0000       0.478760        13.0277 
 153   0.0000       0.482572        13.1314 
 154   0.0000       0.489121        13.3097 
 155   0.0000       0.490135        13.3372 
 156   0.0000       0.495048        13.4710 
 157   0.0000       0.500320        13.6144 
 158   0.0000       0.501026        13.6336 
 159   0.0000       0.502763        13.6809 
 160   0.0000       0.505056        13.7433 
 161   0.0000       0.510328        13.8867 
 162   0.0000       0.516458        14.0535 
 163   0.0000       0.517827        14.0908 
 164   0.0000       0.525301        14.2942 
 165   0.0000       0.542024        14.7492 
 166   0.0000       0.546702        14.8765 
 167   0.0000       0.555827        15.1248 
 168   0.0000       0.566077        15.4037 
 169   0.0000       0.572336        15.5740 
 170   0.0000       0.585550        15.9336 
 171   0.0000       0.588032        16.0012 
 172   0.0000       0.592409        16.1203 
 173   0.0000       0.594602        16.1799 
 174   0.0000       0.596264        16.2252 
 175   0.0000       0.607258        16.5243 
 176   0.0000       0.612713        16.6728 
 177   0.0000       0.616854        16.7855 
 178   0.0000       0.617876        16.8133 
 179   0.0000       0.626882        17.0583 
 180   0.0000       0.632797        17.2193 
 181   0.0000       0.632823        17.2200 
 182   0.0000       0.635445        17.2913 
 183   0.0000       0.636322        17.3152 
[...]
                Q:ISTP=    2 I=  1.0 Q=  0.0029 barn     
 -----------------------------------------------------------
 Solving for nuclear perturbation:
Forming RHS of the CP-SCF equations         ... 
Calc. nucleus orbit integrals (SHARK)       ... done

------------------------------------------------------------------------------
                           ORCA CP-SCF CALCULATION
------------------------------------------------------------------------------

Input orbitals are from        ... cc-pVDZ_i.gbw
Input Perturbation             ... cc-pVDZ_i.pin.tmp
Wavefunction output            ... cc-pVDZ_i.pout.tmp
Perturbation mode              ... Imaginary perturbation
Solver                         ... POPLE
Max. number of iterations      ... 64
Convergence tolerance          ... 1.000e-03
Integral handling              ... Direct
DFT GridXC                     ... 1
COSX GridX                     ... 1
COSX IntAccX                   ... 3.067
COSX Algorithm                 ... Auto
Number of perturbations        ... 3
Number of operators            ... 2
Orbital ranges used for CP-SCF:
 Operator 0:  Orbitals   0... 81  to  82...446
 Operator 1:  Orbitals   0... 80  to  81...446
Variables per perturbation     ... 59576
DFT calculation                         ... on
XC functional terms                     ... off
Hybrid DFT                              ... on
   Exchange mixing (SCF)                ...  0.200
   Exchange mixing (CP-SCF)             ...  0.200
   GGA exch. scaling(SCF)               ...  0.720
   GGA exch. scaling (CP-SCF)           ...  0.720
   GGA corr. scaling (SCF)              ...  0.810
   GGA corr. scaling (CP-SCF)           ...  0.810

CP-SCF GRID
-----------

General Integration Accuracy     IntAcc      ... 3.467
Radial Grid Type                 RadialGrid  ... OptM3 with GC (2021)
Angular Grid (max. ang.)         AngularGrid ... 1 (Lebedev-50)
Angular grid pruning method      GridPruning ... 4 (adaptive)
Weight generation scheme         WeightScheme... Becke
Basis function cutoff            BFCut       ... 1.0000e-10
Integration weight cutoff        WCut        ... 1.0000e-14
Angular grids for H and He will be reduced by one unit
Partially contracted basis set               ... off
Rotationally invariant grid construction     ... off

Total number of grid points                  ...    30935
Total number of batches                      ...      505
Average number of points per batch           ...       61
Average number of grid points per atom       ...      644

CP-SCF GRIDX
------------

General Integration Accuracy     IntAcc      ... 3.067
Radial Grid Type                 RadialGrid  ... OptM3 with GC (2021)
Angular Grid (max. ang.)         AngularGrid ... 1 (Lebedev-50)
Angular grid pruning method      GridPruning ... 4 (adaptive)
Weight generation scheme         WeightScheme... Becke
Basis function cutoff            BFCut       ... 1.0000e-10
Integration weight cutoff        WCut        ... 1.0000e-14
Angular grids for H and He will be reduced by one unit
Partially contracted basis set               ... on
Rotationally invariant grid construction     ... off

Total number of grid points                  ...    14531
Total number of batches                      ...      257
Average number of points per batch           ...       56
Average number of grid points per atom       ...      303

Memory available               ... 880.4 MB
Memory needed per perturbation ...  12.6 MB
Perturbations treated per batch... 3
Number of batches              ... 1
     CP-SCF ITERATION   0:   4.5725e-02 (   1.7 sec   0/  3 done)
     CP-SCF ITERATION   1:   2.5917e-03 (   1.8 sec   0/  3 done)
     CP-SCF ITERATION   2:   8.8315e-03 (   1.8 sec   2/  3 done)
     CP-SCF ITERATION   3:   1.2181e-03 (   1.2 sec   2/  3 done)
     CP-SCF ITERATION   4:   1.1759e-04 (   1.2 sec   3/  3 done)
                    *** THE CP-SCF HAS CONVERGED ***

Forming final perturbed densities           ... done
Transforming perturbed density to AO basis  ... done

 Raw HFC matrix (all values in MHz): 
 -----------------------------------
                 0.5220              -0.1730              -0.0003
                -0.1730               0.0253              -0.0003
                -0.0003              -0.0003               0.1312

 A(FC)           0.2258               0.2258               0.2258
 A(SD)          -0.2549              -0.0947               0.3496
 A(ORB+DIA)      0.0001               0.0001               0.0009    A(PC) =   0.0004
 A(ORB)          0.0000              -0.0000               0.0009    A(PC) =   0.0003
 A(DIA)          0.0001               0.0001               0.0000    A(PC) =   0.0001
             ----------           ----------           ----------
 A(Tot)         -0.0290               0.1312               0.5763    A(iso)=    0.2261
 Orientation: 
  X           0.2995697           -0.0003578            0.9540743
  Y           0.9540713           -0.0024307           -0.2995697
  Z           0.0024263            0.9999970           -0.0003868

Notes:  (1) The A matrix conforms to the "SAI" spin Hamiltonian convention.
        (2) Tensor is right-handed.

 -----------------------------------------------------------
 Nucleus  46H : A:ISTP=    1 I=  0.5 P=533.5514 MHz/au**3
                Q:ISTP=    2 I=  1.0 Q=  0.0029 barn     
 -----------------------------------------------------------
 Solving for nuclear perturbation:
Forming RHS of the CP-SCF equations         ... 
Calc. nucleus orbit integrals (SHARK)       ... done

------------------------------------------------------------------------------
                           ORCA CP-SCF CALCULATION
------------------------------------------------------------------------------

Input orbitals are from        ... cc-pVDZ_i.gbw
Input Perturbation             ... cc-pVDZ_i.pin.tmp
Wavefunction output            ... cc-pVDZ_i.pout.tmp
Perturbation mode              ... Imaginary perturbation
Solver                         ... POPLE
Max. number of iterations      ... 64
Convergence tolerance          ... 1.000e-03
Integral handling              ... Direct
DFT GridXC                     ... 1
COSX GridX                     ... 1
COSX IntAccX                   ... 3.067
COSX Algorithm                 ... Auto
Number of perturbations        ... 3
Number of operators            ... 2
Orbital ranges used for CP-SCF:
 Operator 0:  Orbitals   0... 81  to  82...446
 Operator 1:  Orbitals   0... 80  to  81...446
Variables per perturbation     ... 59576
DFT calculation                         ... on
XC functional terms                     ... off
Hybrid DFT                              ... on
   Exchange mixing (SCF)                ...  0.200
   Exchange mixing (CP-SCF)             ...  0.200
   GGA exch. scaling(SCF)               ...  0.720
   GGA exch. scaling (CP-SCF)           ...  0.720
   GGA corr. scaling (SCF)              ...  0.810
   GGA corr. scaling (CP-SCF)           ...  0.810

CP-SCF GRID
-----------

General Integration Accuracy     IntAcc      ... 3.467
Radial Grid Type                 RadialGrid  ... OptM3 with GC (2021)
Angular Grid (max. ang.)         AngularGrid ... 1 (Lebedev-50)
Angular grid pruning method      GridPruning ... 4 (adaptive)
Weight generation scheme         WeightScheme... Becke
Basis function cutoff            BFCut       ... 1.0000e-10
Integration weight cutoff        WCut        ... 1.0000e-14
Angular grids for H and He will be reduced by one unit
Partially contracted basis set               ... off
Rotationally invariant grid construction     ... off

Total number of grid points                  ...    30935
Total number of batches                      ...      505
Average number of points per batch           ...       61
Average number of grid points per atom       ...      644

CP-SCF GRIDX
------------

General Integration Accuracy     IntAcc      ... 3.067
Radial Grid Type                 RadialGrid  ... OptM3 with GC (2021)
Angular Grid (max. ang.)         AngularGrid ... 1 (Lebedev-50)
Angular grid pruning method      GridPruning ... 4 (adaptive)
Weight generation scheme         WeightScheme... Becke
Basis function cutoff            BFCut       ... 1.0000e-10
Integration weight cutoff        WCut        ... 1.0000e-14
Angular grids for H and He will be reduced by one unit
Partially contracted basis set               ... on
Rotationally invariant grid construction     ... off

Total number of grid points                  ...    14531
Total number of batches                      ...      257
Average number of points per batch           ...       56
Average number of grid points per atom       ...      303

Memory available               ... 879.9 MB
Memory needed per perturbation ...  12.6 MB
Perturbations treated per batch... 3
Number of batches              ... 1
     CP-SCF ITERATION   0:   4.5823e-02 (   1.7 sec   0/  3 done)
     CP-SCF ITERATION   1:   3.0173e-03 (   1.8 sec   0/  3 done)
     CP-SCF ITERATION   2:   2.2610e-02 (   1.8 sec   2/  3 done)
     CP-SCF ITERATION   3:   1.1319e-03 (   1.2 sec   2/  3 done)
     CP-SCF ITERATION   4:   1.2042e-04 (   1.2 sec   3/  3 done)
                    *** THE CP-SCF HAS CONVERGED ***

Forming final perturbed densities           ... done
Transforming perturbed density to AO basis  ... done

 Raw HFC matrix (all values in MHz): 
 -----------------------------------
                 0.5312               0.1437               0.0005
                 0.1436               0.0128              -0.0004
                 0.0005              -0.0004               0.1359

 A(FC)           0.2262               0.2262               0.2262
 A(SD)          -0.2507              -0.0904               0.3411
 A(ORB+DIA)      0.0001               0.0001               0.0011    A(PC) =   0.0004
 A(ORB)          0.0001              -0.0000               0.0011    A(PC) =   0.0004
 A(DIA)          0.0001               0.0001               0.0000    A(PC) =   0.0001
             ----------           ----------           ----------
 A(Tot)         -0.0243               0.1359               0.5684    A(iso)=    0.2267
 Orientation: 
  X           0.2503864            0.0000255            0.9681460
  Y          -0.9681414            0.0030679            0.2503852
  Z          -0.0029638           -0.9999953            0.0007929

Notes:  (1) The A matrix conforms to the "SAI" spin Hamiltonian convention.
        (2) Tensor is right-handed.

 -----------------------------------------------------------
 Nucleus  47H : A:ISTP=    1 I=  0.5 P=533.5514 MHz/au**3
                Q:ISTP=    2 I=  1.0 Q=  0.0029 barn     
 -----------------------------------------------------------
 Solving for nuclear perturbation:
Forming RHS of the CP-SCF equations         ... 
Calc. nucleus orbit integrals (SHARK)       ... done

------------------------------------------------------------------------------
                           ORCA CP-SCF CALCULATION
------------------------------------------------------------------------------

Input orbitals are from        ... cc-pVDZ_i.gbw
Input Perturbation             ... cc-pVDZ_i.pin.tmp
Wavefunction output            ... cc-pVDZ_i.pout.tmp
Perturbation mode              ... Imaginary perturbation
Solver                         ... POPLE
Max. number of iterations      ... 64
Convergence tolerance          ... 1.000e-03
Integral handling              ... Direct
DFT GridXC                     ... 1
COSX GridX                     ... 1
COSX IntAccX                   ... 3.067
COSX Algorithm                 ... Auto
Number of perturbations        ... 3
Number of operators            ... 2
Orbital ranges used for CP-SCF:
 Operator 0:  Orbitals   0... 81  to  82...446
 Operator 1:  Orbitals   0... 80  to  81...446
Variables per perturbation     ... 59576
DFT calculation                         ... on
XC functional terms                     ... off
Hybrid DFT                              ... on
   Exchange mixing (SCF)                ...  0.200
   Exchange mixing (CP-SCF)             ...  0.200
   GGA exch. scaling(SCF)               ...  0.720
   GGA exch. scaling (CP-SCF)           ...  0.720
   GGA corr. scaling (SCF)              ...  0.810
   GGA corr. scaling (CP-SCF)           ...  0.810

CP-SCF GRID
-----------

General Integration Accuracy     IntAcc      ... 3.467
Radial Grid Type                 RadialGrid  ... OptM3 with GC (2021)
Angular Grid (max. ang.)         AngularGrid ... 1 (Lebedev-50)
Angular grid pruning method      GridPruning ... 4 (adaptive)
Weight generation scheme         WeightScheme... Becke
Basis function cutoff            BFCut       ... 1.0000e-10
Integration weight cutoff        WCut        ... 1.0000e-14
Angular grids for H and He will be reduced by one unit
Partially contracted basis set               ... off
Rotationally invariant grid construction     ... off

Total number of grid points                  ...    30935
Total number of batches                      ...      505
Average number of points per batch           ...       61
Average number of grid points per atom       ...      644

CP-SCF GRIDX
------------

General Integration Accuracy     IntAcc      ... 3.067
Radial Grid Type                 RadialGrid  ... OptM3 with GC (2021)
Angular Grid (max. ang.)         AngularGrid ... 1 (Lebedev-50)
Angular grid pruning method      GridPruning ... 4 (adaptive)
Weight generation scheme         WeightScheme... Becke
Basis function cutoff            BFCut       ... 1.0000e-10
Integration weight cutoff        WCut        ... 1.0000e-14
Angular grids for H and He will be reduced by one unit
Partially contracted basis set               ... on
Rotationally invariant grid construction     ... off

Total number of grid points                  ...    14531
Total number of batches                      ...      257
Average number of points per batch           ...       56
Average number of grid points per atom       ...      303

Memory available               ... 879.3 MB
Memory needed per perturbation ...  12.6 MB
Perturbations treated per batch... 3
Number of batches              ... 1
     CP-SCF ITERATION   0:   4.1677e-02 (   1.7 sec   0/  3 done)
     CP-SCF ITERATION   1:   1.7101e-03 (   1.7 sec   0/  3 done)
     CP-SCF ITERATION   2:   1.8519e-03 (   1.7 sec   2/  3 done)
     CP-SCF ITERATION   3:   5.5532e-04 (   1.1 sec   3/  3 done)
                    *** THE CP-SCF HAS CONVERGED ***

Forming final perturbed densities           ... done
Transforming perturbed density to AO basis  ... done

 Raw HFC matrix (all values in MHz): 
 -----------------------------------
                -0.0155              -0.0663              -0.0001
                -0.0664              -0.1368              -0.0001
                -0.0001              -0.0001              -0.1200

 A(FC)          -0.0910              -0.0910              -0.0910
 A(SD)           0.1043              -0.0291              -0.0752
 A(ORB+DIA)      0.0004               0.0001               0.0001    A(PC) =   0.0002
 A(ORB)          0.0004              -0.0000               0.0001    A(PC) =   0.0002
 A(DIA)          0.0000               0.0001               0.0001    A(PC) =   0.0000
             ----------           ----------           ----------
 A(Tot)          0.0137              -0.1200              -0.1661    A(iso)=   -0.0908
 Orientation: 
  X           0.9151751            0.0002173            0.4030565
  Y          -0.4030560            0.0021422            0.9151728
  Z          -0.0006646           -0.9999977            0.0020481

Notes:  (1) The A matrix conforms to the "SAI" spin Hamiltonian convention.
        (2) Tensor is right-handed.


--------------------------------------------------------------------------------
----------------------------------------------------------------------------
                           ORCA EULER ANGLE PROGRAM
----------------------------------------------------------------------------

Only g-tensor available        -->  using g-tensor as reference tensor

Reference tensor               ...  g

g-tensor ordering              ...  |g_min> --> |gx>
                                    |g_mid> --> |gy>
                                    |g_max> --> |gz>

A- and EFG-tensor ordering     ...  the axes |Ax>, |Qx>, |Ay>, etc. are assigned
                                    such that the Euler rotation is minimal. You
                                    can find the respective eigenvalues as Ax,
                                    EFGx, Ay, etc. in the tables below.
                                    The relation of |Ax>, |Ay>,  etc. to Amin, Amid, etc.
                                    (as printed in the ORCA EPR/NMR CALCULATION Output)
                                    is obtained in the detailed printout.

Euler rotation around          ...  z - y - z
   First rotation              -->  by alpha around z
   Second rotation             -->  by beta around y'
   Third rotation              -->  by gamma around z''
   Positive / Negative angle   -->  clockwise / counterclockwise rotation

Plot EFG-tensors                    (-)
Plot HFC-tensors                    (-)
Detailed Printout                   (-)

-------------------------------------------------------------------------
          Euler rotation of hyperfine tensor to g-tensor
-------------------------------------------------------------------------

-------------------------------------------------------------------
 Atom  |   Alpha    Beta    Gamma   |   Ax       Ay       Az 
       |          [degrees]         |           [MHz]         
-------------------------------------------------------------------
  8H       -0.1     21.7     -0.1       4.00     3.93     7.03
  9H        0.2     24.8     -0.3       8.71    -7.64    -3.77
 11H      121.0     40.2   -136.0       8.04    -2.89    -4.32
 12H     -120.8     40.4    135.5       8.03    -2.93    -4.36
 14H      171.6     39.0    174.6       1.96    -0.38    -0.35
 15H     -172.0     38.9   -174.2       1.95    -0.39    -0.36
 17H      120.1     18.1   -107.9       1.21    -0.65    -0.61
 18H     -120.1     18.2    107.6       1.21    -0.65    -0.61
 20H      170.6     25.8   -161.1       0.48    -0.24    -0.24
 21H     -171.3     25.8    161.7       0.48    -0.24    -0.24
 23H     -178.5     34.0    155.7      -0.37    -0.18     1.43
 24H      178.6     34.0   -156.0      -0.36    -0.18     1.43
 26H      -11.8     28.9     27.0       1.52    -0.88    -0.77
 27H       11.7     28.8    -27.1       1.52    -0.88    -0.77
 29H      -34.8     48.7     36.2       0.49    -0.23    -0.23
 30H       34.5     48.5    -36.1       0.49    -0.23    -0.23
 32H       43.6     25.3    -54.5       0.47    -0.24    -0.23
 33H      -43.6     25.3     54.3       0.47    -0.24    -0.23
 35H     -180.0     14.1    179.9       0.40    -0.22    -0.22
 36H        0.3     24.4     -0.4       0.28    -0.15    -0.15
 43H     -179.7      1.9    179.6       0.37     0.22     0.18
 44H     -180.0     26.3    179.9      -0.17    -0.12     0.01
 45H       -0.1     12.5     -0.0      -0.03     0.13     0.58
 46H      180.0     19.5    179.9      -0.02     0.14     0.57
 47H       -0.0     18.8     -0.0      -0.17    -0.12     0.01
-------------------------------------------------------------------


Maximum memory used throughout the entire EPRNMR-calculation: 210.9 MB

Timings for individual modules:

Sum of individual times         ...     4587.246 sec (=  76.454 min)
GTO integral calculation        ...        4.767 sec (=   0.079 min)   0.1 %
Spin-Orbit-Coupling Matrices    ...        9.134 sec (=   0.152 min)   0.2 %
SCF iterations                  ...       92.881 sec (=   1.548 min)   2.0 %
EPR/NMR calculation             ...     4480.465 sec (=  74.674 min)  97.7 %
                             ****ORCA TERMINATED NORMALLY****
TOTAL RUN TIME: 0 days 1 hours 16 minutes 31 seconds 604 msec
