
                                 *****************
                                 * O   R   C   A *
                                 *****************

                                            #,                                       
                                            ###                                      
                                            ####                                     
                                            #####                                    
                                            ######                                   
                                           ########,                                 
                                     ,,################,,,,,                         
                               ,,#################################,,                 
                          ,,##########################################,,             
                       ,#########################################, ''#####,          
                    ,#############################################,,   '####,        
                  ,##################################################,,,,####,       
                ,###########''''           ''''###############################       
              ,#####''   ,,,,##########,,,,          '''####'''          '####       
            ,##' ,,,,###########################,,,                        '##       
           ' ,,###''''                  '''############,,,                           
         ,,##''                                '''############,,,,        ,,,,,,###''
      ,#''                                            '''#######################'''  
     '                                                          ''''####''''         
             ,#######,   #######,   ,#######,      ##                                
            ,#'     '#,  ##    ##  ,#'     '#,    #''#        ######   ,####,        
            ##       ##  ##   ,#'  ##            #'  '#       #        #'  '#        
            ##       ##  #######   ##           ,######,      #####,   #    #        
            '#,     ,#'  ##    ##  '#,     ,#' ,#      #,         ##   #,  ,#        
             '#######'   ##     ##  '#######'  #'      '#     #####' # '####'        



                  #######################################################
                  #                        -***-                        #
                  #          Department of theory and spectroscopy      #
                  #    Directorship and core code : Frank Neese         #
                  #        Max Planck Institute fuer Kohlenforschung    #
                  #                Kaiser Wilhelm Platz 1               #
                  #                 D-45470 Muelheim/Ruhr               #
                  #                      Germany                        #
                  #                                                     #
                  #                  All rights reserved                #
                  #                        -***-                        #
                  #######################################################


                         Program Version 5.0.4 -  RELEASE  -


 With contributions from (in alphabetic order):
   Daniel Aravena         : Magnetic Suceptibility
   Michael Atanasov       : Ab Initio Ligand Field Theory (pilot matlab implementation)
   Alexander A. Auer      : GIAO ZORA, VPT2 properties, NMR spectrum
   Ute Becker             : Parallelization
   Giovanni Bistoni       : ED, misc. LED, open-shell LED, HFLD
   Martin Brehm           : Molecular dynamics
   Dmytro Bykov           : SCF Hessian
   Vijay G. Chilkuri      : MRCI spin determinant printing, contributions to CSF-ICE
   Dipayan Datta          : RHF DLPNO-CCSD density
   Achintya Kumar Dutta   : EOM-CC, STEOM-CC
   Dmitry Ganyushin       : Spin-Orbit,Spin-Spin,Magnetic field MRCI
   Miquel Garcia          : C-PCM and meta-GGA Hessian, CC/C-PCM, Gaussian charge scheme
   Yang Guo               : DLPNO-NEVPT2, F12-NEVPT2, CIM, IAO-localization
   Andreas Hansen         : Spin unrestricted coupled pair/coupled cluster methods
   Benjamin Helmich-Paris : MC-RPA, TRAH-SCF, COSX integrals
   Lee Huntington         : MR-EOM, pCC
   Robert Izsak           : Overlap fitted RIJCOSX, COSX-SCS-MP3, EOM
   Marcus Kettner         : VPT2
   Christian Kollmar      : KDIIS, OOCD, Brueckner-CCSD(T), CCSD density, CASPT2, CASPT2-K
   Simone Kossmann        : Meta GGA functionals, TD-DFT gradient, OOMP2, MP2 Hessian
   Martin Krupicka        : Initial AUTO-CI
   Lucas Lang             : DCDCAS
   Marvin Lechner         : AUTO-CI (C++ implementation), FIC-MRCC
   Dagmar Lenk            : GEPOL surface, SMD
   Dimitrios Liakos       : Extrapolation schemes; Compound Job, initial MDCI parallelization
   Dimitrios Manganas     : Further ROCIS development; embedding schemes
   Dimitrios Pantazis     : SARC Basis sets
   Anastasios Papadopoulos: AUTO-CI, single reference methods and gradients
   Taras Petrenko         : DFT Hessian,TD-DFT gradient, ASA, ECA, R-Raman, ABS, FL, XAS/XES, NRVS
   Peter Pinski           : DLPNO-MP2, DLPNO-MP2 Gradient
   Christoph Reimann      : Effective Core Potentials
   Marius Retegan         : Local ZFS, SOC
   Christoph Riplinger    : Optimizer, TS searches, QM/MM, DLPNO-CCSD(T), (RO)-DLPNO pert. Triples
   Tobias Risthaus        : Range-separated hybrids, TD-DFT gradient, RPA, STAB
   Michael Roemelt        : Original ROCIS implementation
   Masaaki Saitow         : Open-shell DLPNO-CCSD energy and density
   Barbara Sandhoefer     : DKH picture change effects
   Avijit Sen             : IP-ROCIS
   Kantharuban Sivalingam : CASSCF convergence, NEVPT2, FIC-MRCI
   Bernardo de Souza      : ESD, SOC TD-DFT
   Georgi Stoychev        : AutoAux, RI-MP2 NMR, DLPNO-MP2 response
   Willem Van den Heuvel  : Paramagnetic NMR
   Boris Wezisla          : Elementary symmetry handling
   Frank Wennmohs         : Technical directorship


 We gratefully acknowledge several colleagues who have allowed us to
 interface, adapt or use parts of their codes:
   Stefan Grimme, W. Hujo, H. Kruse, P. Pracht,  : VdW corrections, initial TS optimization,
                  C. Bannwarth, S. Ehlert          DFT functionals, gCP, sTDA/sTD-DF
   Ed Valeev, F. Pavosevic, A. Kumar             : LibInt (2-el integral package), F12 methods
   Garnet Chan, S. Sharma, J. Yang, R. Olivares  : DMRG
   Ulf Ekstrom                                   : XCFun DFT Library
   Mihaly Kallay                                 : mrcc  (arbitrary order and MRCC methods)
   Jiri Pittner, Ondrej Demel                    : Mk-CCSD
   Frank Weinhold                                : gennbo (NPA and NBO analysis)
   Christopher J. Cramer and Donald G. Truhlar   : smd solvation model
   Lars Goerigk                                  : TD-DFT with DH, B97 family of functionals
   V. Asgeirsson, H. Jonsson                     : NEB implementation
   FAccTs GmbH                                   : IRC, NEB, NEB-TS, DLPNO-Multilevel, CI-OPT
                                                   MM, QMMM, 2- and 3-layer-ONIOM, Crystal-QMMM,
                                                   LR-CPCM, SF, NACMEs, symmetry and pop. for TD-DFT,
                                                   nearIR, NL-DFT gradient (VV10), updates on ESD,
                                                   ML-optimized integration grids
   S Lehtola, MJT Oliveira, MAL Marques          : LibXC Library
   Liviu Ungur et al                             : ANISO software


 Your calculation uses the libint2 library for the computation of 2-el integrals
 For citations please refer to: http://libint.valeyev.net

 Your ORCA version has been built with support for libXC version: 5.1.0
 For citations please refer to: https://tddft.org/programs/libxc/

 This ORCA versions uses:
   CBLAS   interface :  Fast vector & matrix operations
   LAPACKE interface :  Fast linear algebra routines
   SCALAPACK package :  Parallel linear algebra routines
   Shared memory     :  Shared parallel matrices
   BLAS/LAPACK       :  OpenBLAS 0.3.15  USE64BITINT DYNAMIC_ARCH NO_AFFINITY SkylakeX SINGLE_THREADED
        Core in use  :  SkylakeX
   Copyright (c) 2011-2014, The OpenBLAS Project




***************************************
The coordinates will be read from file: opt.xyz
***************************************


================================================================================

----- Orbital basis set information -----
Your calculation utilizes the basis: cc-pVDZ 
       H, B-Ne : Obtained from the ccRepo (grant-hill.group.shef.ac.uk/ccrepo) Feb. 2017
                 T. H. Dunning, Jr., J. Chem. Phys. 90, 1007 (1989)
            He : Obtained from the ccRepo (grant-hill.group.shef.ac.uk/ccrepo) Feb. 2017
                 D. E. Woon, T. H. Dunning, Jr., J. Chem. Phys. 100, 2975 (1994)
  Li-Be, Na-Mg : Obtained from the ccRepo (grant-hill.group.shef.ac.uk/ccrepo) Feb. 2017
                 B. P. Prascher, D. E. Woon, K. A. Peterson, T. H. Dunning, Jr., A. K. Wilson, Theor. Chem. Acc. 128, 69 (2011)
         Al-Ar : Obtained from the ccRepo (grant-hill.group.shef.ac.uk/ccrepo) Feb. 2017
                 D. E. Woon, T. H. Dunning, Jr., J. Chem. Phys. 98, 1358 (1993)
            Ca : Obtained from the Peterson Research Group Website (tyr0.chem.wsu.edu/~kipeters) Feb. 2017
                 J. Koput, K. A. Peterson, J. Phys. Chem. 106, 9595 (2002)
         Sc-Zn : Obtained from the ccRepo (grant-hill.group.shef.ac.uk/ccrepo) Feb. 2017
                 N. B. Balabanov, K. A. Peterson, J. Chem. Phys. 123, 064107 (2005)
                 N. B. Balabanov, K. A. Peterson, J. Chem. Phys. 125, 074110 (2006)
         Ga-Kr : Obtained from the ccRepo (grant-hill.group.shef.ac.uk/ccrepo) Feb. 2017
                 A. K. Wilson, D. E. Woon, K. A. Peterson, T. H. Dunning, Jr., J. Chem. Phys. 110, 7667 (1999)

----- AuxJ basis set information -----
Your calculation utilizes the AutoAux generation procedure.
  G. L. Stoychev, A. A. Auer, F. Neese, J. Chem. Theory Comput. 13, 554 (2017)

----- AuxC basis set information -----
Your calculation utilizes the AutoAux generation procedure.
  G. L. Stoychev, A. A. Auer, F. Neese, J. Chem. Theory Comput. 13, 554 (2017)

----- AuxJK basis set information -----
Your calculation utilizes the AutoAux generation procedure.
  G. L. Stoychev, A. A. Auer, F. Neese, J. Chem. Theory Comput. 13, 554 (2017)

================================================================================
                                        WARNINGS
                       Please study these warnings very carefully!
================================================================================

WARNING: Old DensityContainer found on disk!
         Will remove this file - 
         If you want to keep old densities, please start your calculation with a different basename. 


WARNING: your system is open-shell and RHF/RKS was chosen
  ===> : WILL SWITCH to UHF/UKS


INFO   : the flag for use of the SHARK integral package has been found!

================================================================================
                                       INPUT FILE
================================================================================
NAME = cc-pVDZ.inp
|  1> ! B3LYP cc-pVDZ AUTOAUX
|  2> %pal nprocs 16 end
|  3> *XYZFile 0 2 opt.xyz
|  4> %EPRNMR
|  5>         GTENSOR   TRUE
|  6>         NUCLEI    = ALL H {SHIFT, AISO, ADIP, AORB}
|  7>         ORI       CenterOfElCharge
|  8> END
|  9> 
| 10>                          ****END OF INPUT****
================================================================================

                       ****************************
                       * Single Point Calculation *
                       ****************************

---------------------------------
CARTESIAN COORDINATES (ANGSTROEM)
---------------------------------
  C     -2.775358    0.046208   -0.011751
  C      2.820255    0.009685   -0.009139
  C     -1.416126   -0.010274   -0.011347
  C     -0.684648   -1.267420   -0.014386
  C      0.690490   -1.196208   -0.013389
  C      1.407047    0.036197   -0.009702
  C      0.687689    1.279681   -0.006696
  C     -0.690449    1.243926   -0.007610
  H      1.277162   -2.115524   -0.015523
  H     -1.268852    2.166837   -0.005472
  C     -1.480792   -2.555886   -0.018568
  H     -2.154671   -2.540740   -0.897146
  H     -2.157395   -2.544715    0.857974
  C     -0.681275   -3.861204   -0.020309
  H     -0.017862   -3.890851   -0.904058
  H     -0.020683   -3.894869    0.865412
  C     -1.579450   -5.104210   -0.024628
  H     -2.246605   -5.074150    0.856659
  H     -2.243576   -5.070198   -0.908059
  C     -0.790051   -6.415615   -0.026228
  H     -0.143052   -6.494872    0.864454
  H     -0.139497   -6.490536   -0.914694
  C      1.465882    2.581608   -0.002726
  H      2.141040    2.571608    0.872700
  H      2.142655    2.575943   -0.876938
  C      0.653075    3.878460   -0.000281
  H     -0.008622    3.909115   -0.885508
  H     -0.010403    3.904750    0.883750
  C      1.540606    5.129343    0.003729
  H      2.205493    5.100499    0.886927
  H      2.207479    5.104735   -0.878099
  C      0.741236    6.434757    0.005976
  H      0.090513    6.504407    0.894697
  H      0.093010    6.509016   -0.884195
  C      4.046121   -0.034213   -0.010003
  H     -1.460807   -7.289936   -0.029701
  H      1.404972    7.314510    0.009190
  C      5.469175   -0.089851   -0.009729
  C      6.140470   -1.334126   -0.012366
  C      7.533422   -1.384522   -0.012085
  C      8.284577   -0.203110   -0.009213
  C      7.630744    1.034879   -0.006618
  C      6.238242    1.096428   -0.006877
  H      9.376146   -0.247118   -0.009009
  H      8.211876    1.960203   -0.004379
  H      5.552872   -2.254102   -0.014605
  H      5.726741    2.060809   -0.004870
  H      8.038460   -2.353485   -0.014131

----------------------------
CARTESIAN COORDINATES (A.U.)
----------------------------
  NO LB      ZA    FRAG     MASS         X           Y           Z
   0 C     6.0000    0    12.011   -5.244666    0.087321   -0.022207
   1 C     6.0000    0    12.011    5.329509    0.018301   -0.017270
   2 C     6.0000    0    12.011   -2.676089   -0.019416   -0.021442
   3 C     6.0000    0    12.011   -1.293797   -2.395076   -0.027185
   4 C     6.0000    0    12.011    1.304836   -2.260506   -0.025301
   5 C     6.0000    0    12.011    2.658933    0.068402   -0.018335
   6 C     6.0000    0    12.011    1.299543    2.418247   -0.012654
   7 C     6.0000    0    12.011   -1.304760    2.350680   -0.014381
   8 H     1.0000    0     1.008    2.413486   -3.997762   -0.029334
   9 H     1.0000    0     1.008   -2.397782    4.094729   -0.010341
  10 C     6.0000    0    12.011   -2.798290   -4.829924   -0.035089
  11 H     1.0000    0     1.008   -4.071738   -4.801303   -1.695361
  12 H     1.0000    0     1.008   -4.076886   -4.808815    1.621335
  13 C     6.0000    0    12.011   -1.287423   -7.296619   -0.038379
  14 H     1.0000    0     1.008   -0.033755   -7.352643   -1.708423
  15 H     1.0000    0     1.008   -0.039085   -7.360237    1.635391
  16 C     6.0000    0    12.011   -2.984727   -9.645560   -0.046540
  17 H     1.0000    0     1.008   -4.245468   -9.588753    1.618850
  18 H     1.0000    0     1.008   -4.239743   -9.581286   -1.715982
  19 C     6.0000    0    12.011   -1.492981  -12.123756   -0.049565
  20 H     1.0000    0     1.008   -0.270330  -12.273529    1.633581
  21 H     1.0000    0     1.008   -0.263612  -12.265336   -1.728521
  22 C     6.0000    0    12.011    2.770115    4.878533   -0.005151
  23 H     1.0000    0     1.008    4.045979    4.859636    1.649164
  24 H     1.0000    0     1.008    4.049030    4.867828   -1.657173
  25 C     6.0000    0    12.011    1.234134    7.329228   -0.000530
  26 H     1.0000    0     1.008   -0.016293    7.387157   -1.673368
  27 H     1.0000    0     1.008   -0.019659    7.378908    1.670046
  28 C     6.0000    0    12.011    2.911324    9.693053    0.007046
  29 H     1.0000    0     1.008    4.167777    9.638546    1.676049
  30 H     1.0000    0     1.008    4.171531    9.646551   -1.659366
  31 C     6.0000    0    12.011    1.400732   12.159929    0.011293
  32 H     1.0000    0     1.008    0.171045   12.291547    1.690732
  33 H     1.0000    0     1.008    0.175763   12.300257   -1.670887
  34 C     6.0000    0    12.011    7.646061   -0.064654   -0.018903
  35 H     1.0000    0     1.008   -2.760524  -13.775982   -0.056127
  36 H     1.0000    0     1.008    2.655013   13.822421    0.017366
  37 C     6.0000    0    12.011   10.335243   -0.169794   -0.018386
  38 C     6.0000    0    12.011   11.603807   -2.521134   -0.023368
  39 C     6.0000    0    12.011   14.236105   -2.616367   -0.022838
  40 C     6.0000    0    12.011   15.655582   -0.383822   -0.017411
  41 C     6.0000    0    12.011   14.420016    1.955637   -0.012506
  42 C     6.0000    0    12.011   11.788569    2.071948   -0.012996
  43 H     1.0000    0     1.008   17.718348   -0.466986   -0.017025
  44 H     1.0000    0     1.008   15.518196    3.704247   -0.008274
  45 H     1.0000    0     1.008   10.493407   -4.259635   -0.027600
  46 H     1.0000    0     1.008   10.821971    3.894365   -0.009204
  47 H     1.0000    0     1.008   15.190487   -4.447442   -0.026704

--------------------------------
INTERNAL COORDINATES (ANGSTROEM)
--------------------------------
 C      0   0   0     0.000000000000     0.00000000     0.00000000
 C      1   0   0     5.595732004957     0.00000000     0.00000000
 C      1   2   0     1.360405191013     2.00560026     0.00000000
 C      3   1   2     1.454469918689   122.57268791   179.87546019
 C      4   3   1     1.376980208531   117.22867989   180.01155142
 C      2   1   3     1.413456756580     0.70078342   180.04362844
 C      6   2   5     1.436571908484   121.12406587   180.00302186
 C      7   6   2     1.378601847162   118.56311133   179.99054662
 H      5   4   3     1.090564627606   119.57987629   179.99649821
 H      8   7   6     1.089182455298   120.58966669   180.00407885
 C      4   3   1     1.514598143512   118.09498938     0.00000000
 H     11   4   3     1.107357915994   108.08554859    56.53583569
 H     11   4   3     1.107358659164   108.08373428   303.58115156
 C     11   4   3     1.530714496630   116.80037928   180.05817528
 H     14  11   4     1.105444583233   109.70863920   301.77526421
 H     14  11   4     1.105448465363   109.70533933    58.22859475
 C     14  11   4     1.533558086370   112.66110580   180.00330784
 H     17  14  11     1.105742166080   109.21375501   302.33041719
 H     17  14  11     1.105743859162   109.21334405    57.68537949
 C     17  14  11     1.530665064032   113.10306867   180.00694348
 H     20  17  14     1.103723193693   111.28414541    59.89992599
 H     20  17  14     1.103723017427   111.28296697   300.14024706
 C      7   6   2     1.516777664683   119.08294731     0.00000000
 H     23   7   6     1.105580701721   107.91606339   303.71010560
 H     23   7   6     1.105577037297   107.91447122    56.23744248
 C     23   7   6     1.530518232004   117.05478261   179.97241633
 H     26  23   7     1.105627075376   109.87974588   301.69490823
 H     26  23   7     1.105624501298   109.88387152    58.29948684
 C     26  23   7     1.533764592831   112.56596694   179.99750909
 H     29  26  23     1.105868820719   109.19151540   302.31939451
 H     29  26  23     1.105867991045   109.19103182    57.66089109
 C     29  26  23     1.530720359307   113.16229135   179.99053427
 H     32  29  26     1.103682689923   111.27816991    59.84672670
 H     32  29  26     1.103682976140   111.27899091   300.11506728
 C      2   1   3     1.226652884749   178.32176436     2.01506262
 H     20  17  14     1.101980315981   111.45985788   180.02058279
 H     32  29  26     1.102053733118   111.48590918   179.98045027
 C     35   2   6     1.424140703761   179.80499042   341.01984994
 C     38  35   2     1.413812362503   120.58607539    15.40693246
 C     39  38  35     1.393863497676   120.41908479   180.00015779
 C     40  39  38     1.399991502332   120.37661057     0.00000000
 C     41  40  39     1.400042963895   119.71107387     0.00000000
 C     42  41  40     1.393861490907   120.37116468     0.00000000
 H     41  40  39     1.092455893739   120.13987717   180.00034672
 H     42  41  40     1.092677705168   120.02965548   180.00046773
 H     39  38  35     1.091618719799   119.08613018     0.00000000
 H     43  42  41     1.091636261109   120.47192886   180.00086835
 H     40  39  38     1.092683124259   119.60108407   179.99928286

---------------------------
INTERNAL COORDINATES (A.U.)
---------------------------
 C      0   0   0     0.000000000000     0.00000000     0.00000000
 C      1   0   0    10.574401008187     0.00000000     0.00000000
 C      1   2   0     2.570793242180     2.00560026     0.00000000
 C      3   1   2     2.748549816349   122.57268791   179.87546019
 C      4   3   1     2.602115485954   117.22867989   180.01155142
 C      2   1   3     2.671046172077     0.70078342   180.04362844
 C      6   2   5     2.714727478719   121.12406587   180.00302186
 C      7   6   2     2.605179938854   118.56311133   179.99054662
 H      5   4   3     2.060868477517   119.57987629   179.99649821
 H      8   7   6     2.058256550386   120.58966669   180.00407885
 C      4   3   1     2.862175694184   118.09498938     0.00000000
 H     11   4   3     2.092603193458   108.08554859    56.53583569
 H     11   4   3     2.092604597845   108.08373428   303.58115156
 C     11   4   3     2.892631187855   116.80037928   180.05817528
 H     14  11   4     2.088987518538   109.70863920   301.77526421
 H     14  11   4     2.088994854700   109.70533933    58.22859475
 C     14  11   4     2.898004793701   112.66110580   180.00330784
 H     17  14  11     2.089549868619   109.21375501   302.33041719
 H     17  14  11     2.089553068082   109.21334405    57.68537949
 C     17  14  11     2.892537773781   113.10306867   180.00694348
 H     20  17  14     2.085734563736   111.28414541    59.89992599
 H     20  17  14     2.085734230642   111.28296697   300.14024706
 C      7   6   2     2.866294392300   119.08294731     0.00000000
 H     23   7   6     2.089244745201   107.91606339   303.71010560
 H     23   7   6     2.089237820443   107.91447122    56.23744248
 C     23   7   6     2.892260301461   117.05478261   179.97241633
 H     26  23   7     2.089332378710   109.87974588   301.69490823
 H     26  23   7     2.089327514406   109.88387152    58.29948684
 C     26  23   7     2.898395034356   112.56596694   179.99750909
 H     29  26  23     2.089789211202   109.19151540   302.31939451
 H     29  26  23     2.089787643345   109.19103182    57.66089109
 C     29  26  23     2.892642266708   113.16229135   179.99053427
 H     32  29  26     2.085658022704   111.27816991    59.84672670
 H     32  29  26     2.085658563575   111.27899091   300.11506728
 C      2   1   3     2.318038013559   178.32176436     2.01506262
 H     20  17  14     2.082441002175   111.45985788   180.02058279
 H     32  29  26     2.082579740458   111.48590918   179.98045027
 C     35   2   6     2.691235906278   179.80499042   341.01984994
 C     38  35   2     2.671718169883   120.58607539    15.40693246
 C     39  38  35     2.634020278678   120.41908479   180.00015779
 C     40  39  38     2.645600529224   120.37661057     0.00000000
 C     41  40  39     2.645697777485   119.71107387     0.00000000
 C     42  41  40     2.634016486433   120.37116468     0.00000000
 H     41  40  39     2.064442452556   120.13987717   180.00034672
 H     42  41  40     2.064861615409   120.02965548   180.00046773
 H     39  38  35     2.062860423082   119.08613018     0.00000000
 H     43  42  41     2.062893571354   120.47192886   180.00086835
 H     40  39  38     2.064871856006   119.60108407   179.99928286

---------------------
BASIS SET INFORMATION
---------------------
There are 2 groups of distinct atoms

 Group   1 Type C   : 17s4p1d contracted to 3s2p1d pattern {881/31/1}
 Group   2 Type H   : 4s1p contracted to 2s1p pattern {31/1}

Atom   0C    basis set group =>   1
Atom   1C    basis set group =>   1
Atom   2C    basis set group =>   1
Atom   3C    basis set group =>   1
Atom   4C    basis set group =>   1
Atom   5C    basis set group =>   1
Atom   6C    basis set group =>   1
Atom   7C    basis set group =>   1
Atom   8H    basis set group =>   2
Atom   9H    basis set group =>   2
Atom  10C    basis set group =>   1
Atom  11H    basis set group =>   2
Atom  12H    basis set group =>   2
Atom  13C    basis set group =>   1
Atom  14H    basis set group =>   2
Atom  15H    basis set group =>   2
Atom  16C    basis set group =>   1
Atom  17H    basis set group =>   2
Atom  18H    basis set group =>   2
Atom  19C    basis set group =>   1
Atom  20H    basis set group =>   2
Atom  21H    basis set group =>   2
Atom  22C    basis set group =>   1
Atom  23H    basis set group =>   2
Atom  24H    basis set group =>   2
Atom  25C    basis set group =>   1
Atom  26H    basis set group =>   2
Atom  27H    basis set group =>   2
Atom  28C    basis set group =>   1
Atom  29H    basis set group =>   2
Atom  30H    basis set group =>   2
Atom  31C    basis set group =>   1
Atom  32H    basis set group =>   2
Atom  33H    basis set group =>   2
Atom  34C    basis set group =>   1
Atom  35H    basis set group =>   2
Atom  36H    basis set group =>   2
Atom  37C    basis set group =>   1
Atom  38C    basis set group =>   1
Atom  39C    basis set group =>   1
Atom  40C    basis set group =>   1
Atom  41C    basis set group =>   1
Atom  42C    basis set group =>   1
Atom  43H    basis set group =>   2
Atom  44H    basis set group =>   2
Atom  45H    basis set group =>   2
Atom  46H    basis set group =>   2
Atom  47H    basis set group =>   2
---------------------------------
AUXILIARY/J BASIS SET INFORMATION
---------------------------------
There are 2 groups of distinct atoms

 Group   1 Type C   : 14s11p10d2f contracted to 14s11p10d2f pattern {11111111111111/11111111111/1111111111/11}
 Group   2 Type H   : 9s2p1d contracted to 9s2p1d pattern {111111111/11/1}

Atom   0C    basis set group =>   1
Atom   1C    basis set group =>   1
Atom   2C    basis set group =>   1
Atom   3C    basis set group =>   1
Atom   4C    basis set group =>   1
Atom   5C    basis set group =>   1
Atom   6C    basis set group =>   1
Atom   7C    basis set group =>   1
Atom   8H    basis set group =>   2
Atom   9H    basis set group =>   2
Atom  10C    basis set group =>   1
Atom  11H    basis set group =>   2
Atom  12H    basis set group =>   2
Atom  13C    basis set group =>   1
Atom  14H    basis set group =>   2
Atom  15H    basis set group =>   2
Atom  16C    basis set group =>   1
Atom  17H    basis set group =>   2
Atom  18H    basis set group =>   2
Atom  19C    basis set group =>   1
Atom  20H    basis set group =>   2
Atom  21H    basis set group =>   2
Atom  22C    basis set group =>   1
Atom  23H    basis set group =>   2
Atom  24H    basis set group =>   2
Atom  25C    basis set group =>   1
Atom  26H    basis set group =>   2
Atom  27H    basis set group =>   2
Atom  28C    basis set group =>   1
Atom  29H    basis set group =>   2
Atom  30H    basis set group =>   2
Atom  31C    basis set group =>   1
Atom  32H    basis set group =>   2
Atom  33H    basis set group =>   2
Atom  34C    basis set group =>   1
Atom  35H    basis set group =>   2
Atom  36H    basis set group =>   2
Atom  37C    basis set group =>   1
Atom  38C    basis set group =>   1
Atom  39C    basis set group =>   1
Atom  40C    basis set group =>   1
Atom  41C    basis set group =>   1
Atom  42C    basis set group =>   1
Atom  43H    basis set group =>   2
Atom  44H    basis set group =>   2
Atom  45H    basis set group =>   2
Atom  46H    basis set group =>   2
Atom  47H    basis set group =>   2
---------------------------------
AUXILIARY/C BASIS SET INFORMATION
---------------------------------
There are 2 groups of distinct atoms

 Group   1 Type C   : 14s11p10d2f contracted to 14s11p10d2f pattern {11111111111111/11111111111/1111111111/11}
 Group   2 Type H   : 9s2p1d contracted to 9s2p1d pattern {111111111/11/1}

Atom   0C    basis set group =>   1
Atom   1C    basis set group =>   1
Atom   2C    basis set group =>   1
Atom   3C    basis set group =>   1
Atom   4C    basis set group =>   1
Atom   5C    basis set group =>   1
Atom   6C    basis set group =>   1
Atom   7C    basis set group =>   1
Atom   8H    basis set group =>   2
Atom   9H    basis set group =>   2
Atom  10C    basis set group =>   1
Atom  11H    basis set group =>   2
Atom  12H    basis set group =>   2
Atom  13C    basis set group =>   1
Atom  14H    basis set group =>   2
Atom  15H    basis set group =>   2
Atom  16C    basis set group =>   1
Atom  17H    basis set group =>   2
Atom  18H    basis set group =>   2
Atom  19C    basis set group =>   1
Atom  20H    basis set group =>   2
Atom  21H    basis set group =>   2
Atom  22C    basis set group =>   1
Atom  23H    basis set group =>   2
Atom  24H    basis set group =>   2
Atom  25C    basis set group =>   1
Atom  26H    basis set group =>   2
Atom  27H    basis set group =>   2
Atom  28C    basis set group =>   1
Atom  29H    basis set group =>   2
Atom  30H    basis set group =>   2
Atom  31C    basis set group =>   1
Atom  32H    basis set group =>   2
Atom  33H    basis set group =>   2
Atom  34C    basis set group =>   1
Atom  35H    basis set group =>   2
Atom  36H    basis set group =>   2
Atom  37C    basis set group =>   1
Atom  38C    basis set group =>   1
Atom  39C    basis set group =>   1
Atom  40C    basis set group =>   1
Atom  41C    basis set group =>   1
Atom  42C    basis set group =>   1
Atom  43H    basis set group =>   2
Atom  44H    basis set group =>   2
Atom  45H    basis set group =>   2
Atom  46H    basis set group =>   2
Atom  47H    basis set group =>   2
----------------------------------
AUXILIARY/JK BASIS SET INFORMATION
----------------------------------
There are 2 groups of distinct atoms

 Group   1 Type C   : 14s11p10d2f contracted to 14s11p10d2f pattern {11111111111111/11111111111/1111111111/11}
 Group   2 Type H   : 9s2p1d contracted to 9s2p1d pattern {111111111/11/1}

Atom   0C    basis set group =>   1
Atom   1C    basis set group =>   1
Atom   2C    basis set group =>   1
Atom   3C    basis set group =>   1
Atom   4C    basis set group =>   1
Atom   5C    basis set group =>   1
Atom   6C    basis set group =>   1
Atom   7C    basis set group =>   1
Atom   8H    basis set group =>   2
Atom   9H    basis set group =>   2
Atom  10C    basis set group =>   1
Atom  11H    basis set group =>   2
Atom  12H    basis set group =>   2
Atom  13C    basis set group =>   1
Atom  14H    basis set group =>   2
Atom  15H    basis set group =>   2
Atom  16C    basis set group =>   1
Atom  17H    basis set group =>   2
Atom  18H    basis set group =>   2
Atom  19C    basis set group =>   1
Atom  20H    basis set group =>   2
Atom  21H    basis set group =>   2
Atom  22C    basis set group =>   1
Atom  23H    basis set group =>   2
Atom  24H    basis set group =>   2
Atom  25C    basis set group =>   1
Atom  26H    basis set group =>   2
Atom  27H    basis set group =>   2
Atom  28C    basis set group =>   1
Atom  29H    basis set group =>   2
Atom  30H    basis set group =>   2
Atom  31C    basis set group =>   1
Atom  32H    basis set group =>   2
Atom  33H    basis set group =>   2
Atom  34C    basis set group =>   1
Atom  35H    basis set group =>   2
Atom  36H    basis set group =>   2
Atom  37C    basis set group =>   1
Atom  38C    basis set group =>   1
Atom  39C    basis set group =>   1
Atom  40C    basis set group =>   1
Atom  41C    basis set group =>   1
Atom  42C    basis set group =>   1
Atom  43H    basis set group =>   2
Atom  44H    basis set group =>   2
Atom  45H    basis set group =>   2
Atom  46H    basis set group =>   2
Atom  47H    basis set group =>   2

Checking for AutoStart:
The File: cc-pVDZ.gbw exists
Trying to determine its content:
     ... Fine, the file contains calculation information
     ... Fine, the calculation information was read
     ... Fine, the file contains a basis set
     ... Fine, the basis set was read
     ... Fine, the file contains a geometry
     ... Fine, the geometry was read
     ... Fine, the file contains a set of orbitals
     ... Fine, the orbitals can be read
     => possible old guess file was deleted
     => GBW file was renamed to GES file
     => GES file is set as startup file
     => Guess is set to MORead
     ... now leaving AutoStart



           ************************************************************
           *        Program running with 16 parallel MPI-processes    *
           *              working on a common directory               *
           ************************************************************
------------------------------------------------------------------------------
                           ORCA GTO INTEGRAL CALCULATION
                           -- RI-GTO INTEGRALS CHOSEN --
------------------------------------------------------------------------------
------------------------------------------------------------------------------
                   ___                                                        
                  /   \      - P O W E R E D   B Y -                         
                 /     \                                                     
                 |  |  |   _    _      __       _____    __    __             
                 |  |  |  | |  | |    /  \     |  _  \  |  |  /  |          
                  \  \/   | |  | |   /    \    | | | |  |  | /  /          
                 / \  \   | |__| |  /  /\  \   | |_| |  |  |/  /          
                |  |  |   |  __  | /  /__\  \  |    /   |      \           
                |  |  |   | |  | | |   __   |  |    \   |  |\   \          
                \     /   | |  | | |  |  |  |  | |\  \  |  | \   \       
                 \___/    |_|  |_| |__|  |__|  |_| \__\ |__|  \__/        
                                                                              
                      - O R C A' S   B I G   F R I E N D -                    
                                      &                                       
                       - I N T E G R A L  F E E D E R -                       
                                                                              
 v1 FN, 2020, v2 2021                                                         
------------------------------------------------------------------------------


Reading SHARK input file cc-pVDZ.SHARKINP.tmp ... ok
----------------------
SHARK INTEGRAL PACKAGE
----------------------

Number of atoms                             ...     48
Number of basis functions                   ...    585
Number of shells                            ...    351
Maximum angular momentum                    ...      2
Integral batch strategy                     ... SHARK/LIBINT Hybrid
RI-J (if used) integral strategy            ... SPLIT-RIJ (Revised 2003 algorithm where possible)
Printlevel                                  ...      1
Contraction scheme used                     ... PARTIAL GENERAL contraction
Coulomb Range Separation                    ... NOT USED
Exchange Range Separation                   ... NOT USED
Finite Nucleus Model                        ... NOT USED
Auxiliary Coulomb fitting basis             ... AVAILABLE
   # of basis functions in Aux-J            ...   3053
   # of shells in Aux-J                     ...   1151
   Maximum angular momentum in Aux-J        ...      3
Auxiliary J/K fitting basis                 ... AVAILABLE
   # of basis functions in Aux-JK           ...   3053
   # of shells in Aux-JK                    ...   1151
   Maximum angular momentum in Aux-JK       ...      3
Auxiliary Correlation fitting basis         ... AVAILABLE
   # of basis functions in Aux-C            ...   3053
   # of shells in Aux-C                     ...   1151
   Maximum angular momentum in Aux-C        ...      3
Auxiliary 'external' fitting basis          ... NOT available
Integral threshold                          ...     1.000000e-10
Primitive cut-off                           ...     1.000000e-11
Primitive pair pre-selection threshold      ...     1.000000e-11

Calculating pre-screening integrals         ... done (  0.0 sec) Dimension = 351
Calculating pre-screening integrals (ORCA)  ... done (  0.1 sec) Dimension = 213
Organizing shell pair data                  ... done (  0.2 sec)
Shell pair information
Total number of shell pairs                 ...     61776
Shell pairs after pre-screening             ...     24387
Total number of primitive shell pairs       ...    100272
Primitive shell pairs kept                  ...     33060
          la=0 lb=0:  10594 shell pairs
          la=1 lb=0:   8613 shell pairs
          la=1 lb=1:   1530 shell pairs
          la=2 lb=0:   2571 shell pairs
          la=2 lb=1:    927 shell pairs
          la=2 lb=2:    152 shell pairs

Calculating one electron integrals          ... done (  0.0 sec)
Calculating RI/J V-Matrix + Cholesky decomp.... done (  0.7 sec)
Calculating RI/JK V-Matrix + Cholesky decomp... done (  0.7 sec)
Calculating RI/C V-Matrix + Cholesky decomp.... done (  0.6 sec)
Calculating Nuclear repulsion               ... done (  0.0 sec) ENN=   1629.446539159833 Eh

SHARK setup successfully completed in   3.0 seconds

Maximum memory used throughout the entire GTOINT-calculation: 39.5 MB


           ************************************************************
           *        Program running with 16 parallel MPI-processes    *
           *              working on a common directory               *
           ************************************************************
-------------------------------------------------------------------------------
                                 ORCA SCF
-------------------------------------------------------------------------------

------------
SCF SETTINGS
------------
Hamiltonian:
 Density Functional     Method          .... DFT(GTOs)
 Exchange Functional    Exchange        .... B88
   X-Alpha parameter    XAlpha          ....  0.666667
   Becke's b parameter  XBeta           ....  0.004200
 Correlation Functional Correlation     .... LYP
 LDA part of GGA corr.  LDAOpt          .... VWN-5
 Gradients option       PostSCFGGA      .... off
 Hybrid DFT is turned on
   Fraction HF Exchange ScalHFX         ....  0.200000
   Scaling of DF-GGA-X  ScalDFX         ....  0.720000
   Scaling of DF-GGA-C  ScalDFC         ....  0.810000
   Scaling of DF-LDA-C  ScalLDAC        ....  1.000000
   Perturbative correction              ....  0.000000
   Density functional embedding theory  .... OFF
   NL short-range parameter             ....  4.800000
 RI-approximation to the Coulomb term is turned on
   Number of AuxJ basis functions       .... 3053
   RIJ-COSX (HFX calculated with COS-X)).... on


General Settings:
 Integral files         IntName         .... cc-pVDZ
 Hartree-Fock type      HFTyp           .... UHF
 Total Charge           Charge          ....    0
 Multiplicity           Mult            ....    2
 Number of Electrons    NEL             ....  163
 Basis Dimension        Dim             ....  447
 Nuclear Repulsion      ENuc            ....   1629.4465391598 Eh

Convergence Acceleration:
 DIIS                   CNVDIIS         .... on
   Start iteration      DIISMaxIt       ....    12
   Startup error        DIISStart       ....  0.200000
   # of expansion vecs  DIISMaxEq       ....     5
   Bias factor          DIISBfac        ....   1.050
   Max. coefficient     DIISMaxC        ....  10.000
 Trust-Rad. Augm. Hess. CNVTRAH         .... auto
   Auto Start mean grad. ratio tolernc. ....  1.125000
   Auto Start start iteration           ....     1
   Auto Start num. interpolation iter.  ....    10
   Max. Number of Micro iterations      ....    16
   Max. Number of Macro iterations      .... Maxiter - #DIIS iter
   Number of Davidson start vectors     ....     2
   Converg. threshold I  (grad. norm)   ....   5.000e-05
   Converg. threshold II (energy diff.) ....   1.000e-06
   Grad. Scal. Fac. for Micro threshold ....   0.100
   Minimum threshold for Micro iter.    ....   0.010
   NR start threshold (gradient norm)   ....   0.001
   Initial trust radius                 ....   0.400
   Minimum AH scaling param. (alpha)    ....   1.000
   Maximum AH scaling param. (alpha)    .... 1000.000
   Orbital update algorithm             .... Taylor
   White noise on init. David. guess    .... on
   Maximum white noise                  ....   0.010
   Quad. conv. algorithm                .... NR
 SOSCF                  CNVSOSCF        .... off
 Level Shifting         CNVShift        .... on
   Level shift para.    LevelShift      ....    0.2500
   Turn off err/grad.   ShiftErr        ....    0.0010
 Zerner damping         CNVZerner       .... off
 Static damping         CNVDamp         .... on
   Fraction old density DampFac         ....    0.7000
   Max. Damping (<1)    DampMax         ....    0.9800
   Min. Damping (>=0)   DampMin         ....    0.0000
   Turn off err/grad.   DampErr         ....    0.1000
 Fernandez-Rico         CNVRico         .... off

SCF Procedure:
 Maximum # iterations   MaxIter         ....   125
 SCF integral mode      SCFMode         .... Direct
   Integral package                     .... SHARK and LIBINT hybrid scheme
 Reset frequency        DirectResetFreq ....    20
 Integral Threshold     Thresh          ....  1.000e-10 Eh
 Primitive CutOff       TCut            ....  1.000e-11 Eh

Convergence Tolerance:
 Convergence Check Mode ConvCheckMode   .... Total+1el-Energy
 Convergence forced     ConvForced      .... 0
 Energy Change          TolE            ....  1.000e-06 Eh
 1-El. energy change                    ....  1.000e-03 Eh
 DIIS Error             TolErr          ....  1.000e-06


Diagonalization of the overlap matrix:
Smallest eigenvalue                        ... 5.274e-05
Time for diagonalization                   ...    0.052 sec
Threshold for overlap eigenvalues          ... 1.000e-08
Number of eigenvalues below threshold      ... 0
Time for construction of square roots      ...    0.046 sec
Total time needed                          ...    0.099 sec

---------------------
INITIAL GUESS: MOREAD
---------------------
Guess MOs are being read from file: cc-pVDZ.ges
Input Geometry matches current geometry (good)
Input basis set matches current basis set (good)
MOs were renormalized
MOs were reorthogonalized (Cholesky)
                      ------------------
                      INITIAL GUESS DONE (   0.2 sec)
                      ------------------
-------------------
DFT GRID GENERATION
-------------------

General Integration Accuracy     IntAcc      ... 4.388
Radial Grid Type                 RadialGrid  ... OptM3 with GC (2021)
Angular Grid (max. ang.)         AngularGrid ... 4 (Lebedev-302)
Angular grid pruning method      GridPruning ... 4 (adaptive)
Weight generation scheme         WeightScheme... Becke
Basis function cutoff            BFCut       ... 1.0000e-10
Integration weight cutoff        WCut        ... 1.0000e-14
Angular grids for H and He will be reduced by one unit
Partially contracted basis set               ... off
Rotationally invariant grid construction     ... off

Total number of grid points                  ...   217077
Total number of batches                      ...     3415
Average number of points per batch           ...       63
Average number of grid points per atom       ...     4522
Time for grid setup =    1.321 sec

--------------------
COSX GRID GENERATION
--------------------

GRIDX 1
-------
General Integration Accuracy     IntAcc      ... 3.816
Radial Grid Type                 RadialGrid  ... OptM3 with GC (2021)
Angular Grid (max. ang.)         AngularGrid ... 1 (Lebedev-50)
Angular grid pruning method      GridPruning ... 4 (adaptive)
Weight generation scheme         WeightScheme... Becke
Basis function cutoff            BFCut       ... 1.0000e-10
Integration weight cutoff        WCut        ... 1.0000e-14
Angular grids for H and He will be reduced by one unit
Partially contracted basis set               ... on
Rotationally invariant grid construction     ... off

Total number of grid points                  ...    27664
Total number of batches                      ...      458
Average number of points per batch           ...       60
Average number of grid points per atom       ...      576
UseSFitting                                  ... on

GRIDX 2
-------
General Integration Accuracy     IntAcc      ... 4.020
Radial Grid Type                 RadialGrid  ... OptM3 with GC (2021)
Angular Grid (max. ang.)         AngularGrid ... 2 (Lebedev-110)
Angular grid pruning method      GridPruning ... 4 (adaptive)
Weight generation scheme         WeightScheme... Becke
Basis function cutoff            BFCut       ... 1.0000e-10
Integration weight cutoff        WCut        ... 1.0000e-14
Angular grids for H and He will be reduced by one unit
Partially contracted basis set               ... on
Rotationally invariant grid construction     ... off

Total number of grid points                  ...    58871
Total number of batches                      ...      945
Average number of points per batch           ...       62
Average number of grid points per atom       ...     1226
UseSFitting                                  ... on

GRIDX 3
-------
General Integration Accuracy     IntAcc      ... 4.338
Radial Grid Type                 RadialGrid  ... OptM3 with GC (2021)
Angular Grid (max. ang.)         AngularGrid ... 3 (Lebedev-194)
Angular grid pruning method      GridPruning ... 4 (adaptive)
Weight generation scheme         WeightScheme... Becke
Basis function cutoff            BFCut       ... 1.0000e-10
Integration weight cutoff        WCut        ... 1.0000e-14
Angular grids for H and He will be reduced by one unit
Partially contracted basis set               ... on
Rotationally invariant grid construction     ... off

Total number of grid points                  ...   128758
Total number of batches                      ...     2038
Average number of points per batch           ...       63
Average number of grid points per atom       ...     2682
UseSFitting                                  ... on

Time for X-Grid setup             =    2.361 sec

 re-compute Schwartz prescreening matrix in partically contracted basis (1) ...done (   0.119 sec)
--------------
SCF ITERATIONS
--------------
ITER       Energy         Delta-E        Max-DP      RMS-DP      [F,P]     Damp
               ***  Starting incremental Fock matrix formation  ***
  0   -890.7428163348   0.000000000000 0.00002267  0.00000023  0.0000241 0.7000
                 **** Energy Check signals convergence ****

               *****************************************************
               *                     SUCCESS                       *
               *           SCF CONVERGED AFTER   1 CYCLES          *
               *****************************************************

Old exchange energy                            =    -25.600894276 Eh
New exchange energy                            =    -25.600989898 Eh
Exchange energy change after final integration =     -0.000095622 Eh
Total energy after final integration           =   -890.742911972 Eh
Final COS-X integration done in                =     7.416 sec

----------------
TOTAL SCF ENERGY
----------------

Total Energy       :         -890.74291197 Eh          -24238.34689 eV

Components:
Nuclear Repulsion  :         1629.44653916 Eh           44339.49451 eV
Electronic Energy  :        -2520.18945113 Eh          -68577.84140 eV
One Electron Energy:        -4436.20016852 Eh         -120715.14362 eV
Two Electron Energy:         1916.01071739 Eh           52137.30223 eV
Max COSX asymmetry :            0.00000066 Eh               0.00002 eV

Virial components:
Potential Energy   :        -1775.43834928 Eh          -48312.13363 eV
Kinetic Energy     :          884.69543730 Eh           24073.78674 eV
Virial Ratio       :            2.00683566


DFT components:
N(Alpha)           :       82.000188480266 electrons
N(Beta)            :       81.000186120748 electrons
N(Total)           :      163.000374601013 electrons
E(X)               :     -101.523743046434 Eh       
E(C)               :       -6.327243085083 Eh       
E(XC)              :     -107.850986131517 Eh       
DFET-embed. en.    :        0.000000000000 Eh       

---------------
SCF CONVERGENCE
---------------

  Last Energy change         ...   -1.5046e-08  Tolerance :   1.0000e-06
  Last MAX-Density change    ...    7.4733e-06  Tolerance :   1.0000e-05
  Last RMS-Density change    ...    7.0788e-08  Tolerance :   1.0000e-06
  Last DIIS Error            ...    2.0415e-05  Tolerance :   1.0000e-06

             **** THE GBW FILE WAS UPDATED (cc-pVDZ.gbw) ****
             **** DENSITY cc-pVDZ.scfp WAS UPDATED ****
             **** ENERGY FILE WAS UPDATED (cc-pVDZ.en.tmp) ****
----------------------
UHF SPIN CONTAMINATION
----------------------

Warning: in a DFT calculation there is little theoretical justification to 
         calculate <S**2> as in Hartree-Fock theory. We will do it anyways
         but you should keep in mind that the values have only limited relevance

Expectation value of <S**2>     :     0.756032
Ideal value S*(S+1) for S=0.5   :     0.750000
Deviation                       :     0.006032

             **** THE GBW FILE WAS UPDATED (cc-pVDZ.gbw) ****
             **** DENSITY cc-pVDZ.scfp WAS UPDATED ****
----------------
ORBITAL ENERGIES
----------------
                 SPIN UP ORBITALS
  NO   OCC          E(Eh)            E(eV) 
   0   1.0000     -10.241494      -278.6852 
   1   1.0000     -10.232493      -278.4403 
   2   1.0000     -10.217048      -278.0200 
   3   1.0000     -10.214846      -277.9601 
   4   1.0000     -10.213500      -277.9235 
   5   1.0000     -10.213387      -277.9204 
   6   1.0000     -10.211743      -277.8757 
   7   1.0000     -10.210626      -277.8453 
   8   1.0000     -10.209694      -277.8199 
   9   1.0000     -10.209596      -277.8172 
  10   1.0000     -10.208437      -277.7857 
  11   1.0000     -10.206736      -277.7394 
  12   1.0000     -10.202541      -277.6253 
  13   1.0000     -10.194297      -277.4009 
  14   1.0000     -10.187796      -277.2240 
  15   1.0000     -10.187134      -277.2060 
  16   1.0000     -10.186339      -277.1844 
  17   1.0000     -10.182987      -277.0932 
  18   1.0000     -10.181811      -277.0612 
  19   1.0000     -10.178416      -276.9688 
  20   1.0000     -10.176876      -276.9269 
  21   1.0000     -10.176105      -276.9059 
  22   1.0000     -10.164466      -276.5892 
  23   1.0000      -0.882005       -24.0006 
  24   1.0000      -0.878147       -23.8956 
  25   1.0000      -0.823587       -22.4109 
  26   1.0000      -0.808471       -21.9996 
  27   1.0000      -0.796980       -21.6869 
  28   1.0000      -0.786654       -21.4059 
  29   1.0000      -0.772687       -21.0259 
  30   1.0000      -0.765938       -20.8422 
  31   1.0000      -0.741926       -20.1888 
  32   1.0000      -0.733226       -19.9521 
  33   1.0000      -0.705046       -19.1853 
  34   1.0000      -0.674934       -18.3659 
  35   1.0000      -0.656539       -17.8653 
  36   1.0000      -0.634916       -17.2769 
  37   1.0000      -0.625085       -17.0094 
  38   1.0000      -0.623696       -16.9716 
  39   1.0000      -0.597688       -16.2639 
  40   1.0000      -0.582413       -15.8483 
  41   1.0000      -0.566972       -15.4281 
  42   1.0000      -0.556299       -15.1377 
  43   1.0000      -0.534437       -14.5428 
  44   1.0000      -0.518878       -14.1194 
  45   1.0000      -0.494717       -13.4619 
  46   1.0000      -0.483458       -13.1556 
  47   1.0000      -0.476187       -12.9577 
  48   1.0000      -0.472828       -12.8663 
  49   1.0000      -0.471299       -12.8247 
  50   1.0000      -0.450472       -12.2580 
  51   1.0000      -0.440266       -11.9802 
  52   1.0000      -0.438622       -11.9355 
  53   1.0000      -0.429270       -11.6810 
  54   1.0000      -0.428432       -11.6582 
  55   1.0000      -0.426113       -11.5951 
  56   1.0000      -0.419006       -11.4017 
  57   1.0000      -0.414174       -11.2703 
  58   1.0000      -0.410182       -11.1616 
  59   1.0000      -0.398424       -10.8417 
  60   1.0000      -0.382493       -10.4082 
  61   1.0000      -0.376548       -10.2464 
  62   1.0000      -0.375216       -10.2102 
  63   1.0000      -0.369083       -10.0432 
  64   1.0000      -0.366412        -9.9706 
  65   1.0000      -0.364050        -9.9063 
  66   1.0000      -0.360270        -9.8034 
  67   1.0000      -0.348419        -9.4810 
  68   1.0000      -0.336983        -9.1698 
  69   1.0000      -0.332661        -9.0522 
  70   1.0000      -0.330706        -8.9990 
  71   1.0000      -0.329080        -8.9547 
  72   1.0000      -0.327203        -8.9036 
  73   1.0000      -0.324049        -8.8178 
  74   1.0000      -0.322609        -8.7786 
  75   1.0000      -0.288926        -7.8621 
  76   1.0000      -0.286411        -7.7936 
  77   1.0000      -0.273327        -7.4376 
  78   1.0000      -0.257335        -7.0024 
  79   1.0000      -0.242305        -6.5934 
  80   1.0000      -0.234061        -6.3691 
  81   1.0000      -0.157572        -4.2877 
  82   0.0000      -0.110373        -3.0034 
  83   0.0000      -0.041078        -1.1178 
  84   0.0000      -0.024592        -0.6692 
  85   0.0000      -0.007787        -0.2119 
  86   0.0000       0.026571         0.7230 
  87   0.0000       0.026808         0.7295 
  88   0.0000       0.043518         1.1842 
  89   0.0000       0.057888         1.5752 
  90   0.0000       0.061623         1.6768 
  91   0.0000       0.072749         1.9796 
  92   0.0000       0.078222         2.1285 
  93   0.0000       0.088424         2.4061 
  94   0.0000       0.090528         2.4634 
  95   0.0000       0.092577         2.5191 
  96   0.0000       0.093551         2.5457 
  97   0.0000       0.094757         2.5785 
  98   0.0000       0.098527         2.6811 
  99   0.0000       0.104678         2.8484 
 100   0.0000       0.121853         3.3158 
 101   0.0000       0.127555         3.4710 
 102   0.0000       0.131424         3.5762 
 103   0.0000       0.135195         3.6788 
 104   0.0000       0.142390         3.8746 
 105   0.0000       0.148456         4.0397 
 106   0.0000       0.148978         4.0539 
 107   0.0000       0.150057         4.0832 
 108   0.0000       0.156009         4.2452 
 109   0.0000       0.159106         4.3295 
 110   0.0000       0.159750         4.3470 
 111   0.0000       0.161864         4.4045 
 112   0.0000       0.169357         4.6084 
 113   0.0000       0.172111         4.6834 
 114   0.0000       0.180170         4.9027 
 115   0.0000       0.196842         5.3563 
 116   0.0000       0.196901         5.3579 
 117   0.0000       0.203294         5.5319 
 118   0.0000       0.209444         5.6992 
 119   0.0000       0.215026         5.8512 
 120   0.0000       0.218854         5.9553 
 121   0.0000       0.234552         6.3825 
 122   0.0000       0.239563         6.5188 
 123   0.0000       0.259342         7.0571 
 124   0.0000       0.265639         7.2284 
 125   0.0000       0.269397         7.3307 
 126   0.0000       0.272392         7.4122 
 127   0.0000       0.283618         7.7176 
 128   0.0000       0.297093         8.0843 
 129   0.0000       0.300841         8.1863 
 130   0.0000       0.328943         8.9510 
 131   0.0000       0.339242         9.2312 
 132   0.0000       0.351445         9.5633 
 133   0.0000       0.354333         9.6419 
 134   0.0000       0.366847         9.9824 
 135   0.0000       0.370798        10.0899 
 136   0.0000       0.399496        10.8708 
 137   0.0000       0.407369        11.0851 
 138   0.0000       0.411143        11.1878 
 139   0.0000       0.414047        11.2668 
 140   0.0000       0.414485        11.2787 
 141   0.0000       0.418406        11.3854 
 142   0.0000       0.419180        11.4065 
 143   0.0000       0.425339        11.5741 
 144   0.0000       0.436199        11.8696 
 145   0.0000       0.437079        11.8935 
 146   0.0000       0.445749        12.1294 
 147   0.0000       0.451014        12.2727 
 148   0.0000       0.457610        12.4522 
 149   0.0000       0.460462        12.5298 
 150   0.0000       0.468879        12.7589 
 151   0.0000       0.475930        12.9507 
 152   0.0000       0.478208        13.0127 
 153   0.0000       0.481820        13.1110 
 154   0.0000       0.487579        13.2677 
 155   0.0000       0.489717        13.3259 
 156   0.0000       0.494906        13.4671 
 157   0.0000       0.498618        13.5681 
 158   0.0000       0.501076        13.6350 
 159   0.0000       0.501289        13.6408 
 160   0.0000       0.504619        13.7314 
 161   0.0000       0.508351        13.8329 
 162   0.0000       0.513739        13.9796 
 163   0.0000       0.516166        14.0456 
 164   0.0000       0.524326        14.2676 
 165   0.0000       0.541222        14.7274 
 166   0.0000       0.541720        14.7410 
 167   0.0000       0.552532        15.0352 
 168   0.0000       0.565171        15.3791 
 169   0.0000       0.572386        15.5754 
 170   0.0000       0.581710        15.8291 
 171   0.0000       0.587604        15.9895 
 172   0.0000       0.589757        16.0481 
 173   0.0000       0.590411        16.0659 
 174   0.0000       0.595474        16.2037 
 175   0.0000       0.603094        16.4110 
 176   0.0000       0.609189        16.5769 
 177   0.0000       0.611934        16.6516 
 178   0.0000       0.617294        16.7974 
 179   0.0000       0.626644        17.0519 
 180   0.0000       0.631725        17.1901 
 181   0.0000       0.632312        17.2061 
 182   0.0000       0.633098        17.2275 
 183   0.0000       0.636012        17.3068 
 184   0.0000       0.641271        17.4499 
 185   0.0000       0.641461        17.4550 
 186   0.0000       0.652772        17.7628 
 187   0.0000       0.653628        17.7861 
 188   0.0000       0.656501        17.8643 
 189   0.0000       0.657991        17.9049 
 190   0.0000       0.659992        17.9593 
 191   0.0000       0.661000        17.9867 
 192   0.0000       0.664311        18.0768 
 193   0.0000       0.667067        18.1518 
 194   0.0000       0.670189        18.2368 
 195   0.0000       0.672143        18.2899 
 196   0.0000       0.672377        18.2963 
 197   0.0000       0.673678        18.3317 
 198   0.0000       0.682393        18.5689 
 199   0.0000       0.683728        18.6052 
 200   0.0000       0.693100        18.8602 
 201   0.0000       0.696206        18.9447 
 202   0.0000       0.700296        19.0560 
 203   0.0000       0.702188        19.1075 
 204   0.0000       0.709004        19.2930 
 205   0.0000       0.712495        19.3880 
 206   0.0000       0.713151        19.4058 
 207   0.0000       0.714471        19.4418 
 208   0.0000       0.732483        19.9319 
 209   0.0000       0.735683        20.0189 
 210   0.0000       0.743386        20.2286 
 211   0.0000       0.755098        20.5473 
 212   0.0000       0.759950        20.6793 
 213   0.0000       0.768128        20.9018 
 214   0.0000       0.782110        21.2823 
 215   0.0000       0.792915        21.5763 
 216   0.0000       0.809399        22.0249 
 217   0.0000       0.819383        22.2965 
 218   0.0000       0.828269        22.5383 
 219   0.0000       0.837444        22.7880 
 220   0.0000       0.838978        22.8297 
 221   0.0000       0.840497        22.8711 
 222   0.0000       0.851554        23.1720 
 223   0.0000       0.867544        23.6071 
 224   0.0000       0.874088        23.7851 
 225   0.0000       0.878312        23.9001 
 226   0.0000       0.886265        24.1165 
 227   0.0000       0.897451        24.4209 
 228   0.0000       0.905561        24.6416 
 229   0.0000       0.919706        25.0265 
 230   0.0000       0.925317        25.1791 
 231   0.0000       0.926563        25.2131 
 232   0.0000       0.940888        25.6029 
 233   0.0000       0.961790        26.1716 
 234   0.0000       0.962877        26.2012 
 235   0.0000       0.966904        26.3108 
 236   0.0000       0.984156        26.7802 
 237   0.0000       0.984602        26.7924 
 238   0.0000       0.991202        26.9720 
 239   0.0000       0.995072        27.0773 
 240   0.0000       1.016365        27.6567 
 241   0.0000       1.019855        27.7517 
 242   0.0000       1.024520        27.8786 
 243   0.0000       1.032678        28.1006 
 244   0.0000       1.043456        28.3939 
 245   0.0000       1.043508        28.3953 
 246   0.0000       1.050687        28.5907 
 247   0.0000       1.061490        28.8846 
 248   0.0000       1.073736        29.2178 
 249   0.0000       1.087342        29.5881 
 250   0.0000       1.101754        29.9802 
 251   0.0000       1.108359        30.1600 
 252   0.0000       1.133185        30.8355 
 253   0.0000       1.147293        31.2194 
 254   0.0000       1.164026        31.6748 
 255   0.0000       1.179847        32.1053 
 256   0.0000       1.187221        32.3059 
 257   0.0000       1.196896        32.5692 
 258   0.0000       1.203582        32.7511 
 259   0.0000       1.203997        32.7624 
 260   0.0000       1.210978        32.9524 
 261   0.0000       1.214961        33.0608 
 262   0.0000       1.217070        33.1182 
 263   0.0000       1.221967        33.2514 
 264   0.0000       1.224973        33.3332 
 265   0.0000       1.230841        33.4929 
 266   0.0000       1.235572        33.6216 
 267   0.0000       1.240350        33.7516 
 268   0.0000       1.269282        34.5389 
 269   0.0000       1.279997        34.8305 
 270   0.0000       1.290026        35.1034 
 271   0.0000       1.304948        35.5095 
 272   0.0000       1.319046        35.8931 
 273   0.0000       1.322444        35.9855 
 274   0.0000       1.326344        36.0916 
 275   0.0000       1.334447        36.3121 
 276   0.0000       1.348695        36.6998 
 277   0.0000       1.362047        37.0632 
 278   0.0000       1.376223        37.4489 
 279   0.0000       1.383062        37.6350 
 280   0.0000       1.399304        38.0770 
 281   0.0000       1.400724        38.1156 
 282   0.0000       1.424133        38.7526 
 283   0.0000       1.425796        38.7979 
 284   0.0000       1.435174        39.0531 
 285   0.0000       1.446504        39.3614 
 286   0.0000       1.456456        39.6322 
 287   0.0000       1.462872        39.8068 
 288   0.0000       1.463682        39.8288 
 289   0.0000       1.465785        39.8861 
 290   0.0000       1.473468        40.0951 
 291   0.0000       1.478831        40.2410 
 292   0.0000       1.484214        40.3875 
 293   0.0000       1.501917        40.8692 
 294   0.0000       1.505762        40.9739 
 295   0.0000       1.514639        41.2154 
 296   0.0000       1.521806        41.4104 
 297   0.0000       1.526572        41.5401 
 298   0.0000       1.544703        42.0335 
 299   0.0000       1.559938        42.4481 
 300   0.0000       1.577957        42.9384 
 301   0.0000       1.583346        43.0850 
 302   0.0000       1.586544        43.1721 
 303   0.0000       1.589231        43.2452 
 304   0.0000       1.599029        43.5118 
 305   0.0000       1.606734        43.7214 
 306   0.0000       1.607402        43.7396 
 307   0.0000       1.613615        43.9087 
 308   0.0000       1.620279        44.0900 
 309   0.0000       1.625816        44.2407 
 310   0.0000       1.628280        44.3078 
 311   0.0000       1.629843        44.3503 
 312   0.0000       1.630345        44.3639 
 313   0.0000       1.631437        44.3937 
 314   0.0000       1.635937        44.5161 
 315   0.0000       1.643010        44.7086 
 316   0.0000       1.645460        44.7752 
 317   0.0000       1.648093        44.8469 
 318   0.0000       1.652122        44.9565 
 319   0.0000       1.662041        45.2264 
 320   0.0000       1.668126        45.3920 
 321   0.0000       1.668521        45.4028 
 322   0.0000       1.673518        45.5387 
 323   0.0000       1.681613        45.7590 
 324   0.0000       1.686327        45.8873 
 325   0.0000       1.689463        45.9726 
 326   0.0000       1.693573        46.0845 
 327   0.0000       1.699068        46.2340 
 328   0.0000       1.701171        46.2912 
 329   0.0000       1.704330        46.3772 
 330   0.0000       1.708107        46.4800 
 331   0.0000       1.712456        46.5983 
 332   0.0000       1.717083        46.7242 
 333   0.0000       1.719268        46.7837 
 334   0.0000       1.727457        47.0065 
 335   0.0000       1.729755        47.0690 
 336   0.0000       1.750180        47.6248 
 337   0.0000       1.753136        47.7052 
 338   0.0000       1.757387        47.8209 
 339   0.0000       1.759400        47.8757 
 340   0.0000       1.764238        48.0074 
 341   0.0000       1.765853        48.0513 
 342   0.0000       1.776311        48.3359 
 343   0.0000       1.788586        48.6699 
 344   0.0000       1.793804        48.8119 
 345   0.0000       1.794322        48.8260 
 346   0.0000       1.794751        48.8377 
 347   0.0000       1.803523        49.0763 
 348   0.0000       1.813696        49.3532 
 349   0.0000       1.815796        49.4103 
 350   0.0000       1.820655        49.5425 
 351   0.0000       1.825564        49.6761 
 352   0.0000       1.831857        49.8474 
 353   0.0000       1.837522        50.0015 
 354   0.0000       1.839866        50.0653 
 355   0.0000       1.847598        50.2757 
 356   0.0000       1.866038        50.7775 
 357   0.0000       1.881699        51.2036 
 358   0.0000       1.882343        51.2212 
 359   0.0000       1.889862        51.4258 
 360   0.0000       1.903384        51.7937 
 361   0.0000       1.917752        52.1847 
 362   0.0000       1.923439        52.3394 
 363   0.0000       1.925593        52.3980 
 364   0.0000       1.932211        52.5781 
 365   0.0000       1.951260        53.0965 
 366   0.0000       1.955876        53.2221 
 367   0.0000       1.956248        53.2322 
 368   0.0000       1.958890        53.3041 
 369   0.0000       1.961150        53.3656 
 370   0.0000       1.973477        53.7010 
 371   0.0000       1.980746        53.8988 
 372   0.0000       1.990173        54.1554 
 373   0.0000       2.014821        54.8261 
 374   0.0000       2.019853        54.9630 
 375   0.0000       2.027833        55.1802 
 376   0.0000       2.047478        55.7147 
 377   0.0000       2.049536        55.7707 
 378   0.0000       2.068663        56.2912 
 379   0.0000       2.085727        56.7555 
 380   0.0000       2.099805        57.1386 
 381   0.0000       2.104340        57.2620 
 382   0.0000       2.112295        57.4785 
 383   0.0000       2.139862        58.2286 
 384   0.0000       2.156333        58.6768 
 385   0.0000       2.166006        58.9400 
 386   0.0000       2.175215        59.1906 
 387   0.0000       2.182274        59.3827 
 388   0.0000       2.183588        59.4185 
 389   0.0000       2.190999        59.6201 
 390   0.0000       2.209535        60.1245 
 391   0.0000       2.213101        60.2215 
 392   0.0000       2.220528        60.4236 
 393   0.0000       2.224485        60.5313 
 394   0.0000       2.239245        60.9329 
 395   0.0000       2.247323        61.1528 
 396   0.0000       2.267854        61.7114 
 397   0.0000       2.279748        62.0351 
 398   0.0000       2.292342        62.3778 
 399   0.0000       2.298540        62.5465 
 400   0.0000       2.313244        62.9466 
 401   0.0000       2.313654        62.9577 
 402   0.0000       2.318469        63.0887 
 403   0.0000       2.323123        63.2154 
 404   0.0000       2.341061        63.7035 
 405   0.0000       2.349850        63.9427 
 406   0.0000       2.364546        64.3426 
 407   0.0000       2.392346        65.0990 
 408   0.0000       2.400727        65.3271 
 409   0.0000       2.404785        65.4375 
 410   0.0000       2.406623        65.4875 
 411   0.0000       2.409857        65.5755 
 412   0.0000       2.412205        65.6394 
 413   0.0000       2.413869        65.6847 
 414   0.0000       2.419023        65.8250 
 415   0.0000       2.422456        65.9184 
 416   0.0000       2.435067        66.2615 
 417   0.0000       2.470841        67.2350 
 418   0.0000       2.480728        67.5040 
 419   0.0000       2.505407        68.1756 
 420   0.0000       2.512415        68.3663 
 421   0.0000       2.530027        68.8455 
 422   0.0000       2.534297        68.9617 
 423   0.0000       2.546162        69.2846 
 424   0.0000       2.578026        70.1517 
 425   0.0000       2.583645        70.3046 
 426   0.0000       2.596595        70.6570 
 427   0.0000       2.606634        70.9301 
 428   0.0000       2.612956        71.1021 
 429   0.0000       2.629515        71.5527 
 430   0.0000       2.675934        72.8159 
 431   0.0000       2.700826        73.4932 
 432   0.0000       2.708269        73.6958 
 433   0.0000       2.710200        73.7483 
 434   0.0000       2.712669        73.8155 
 435   0.0000       2.713925        73.8497 
 436   0.0000       2.722598        74.0857 
 437   0.0000       2.741028        74.5872 
 438   0.0000       2.757562        75.0371 
 439   0.0000       2.824468        76.8577 
 440   0.0000       2.826775        76.9205 
 441   0.0000       2.843343        77.3713 
 442   0.0000       2.866639        78.0052 
 443   0.0000       3.055211        83.1365 
 444   0.0000       3.075146        83.6790 
 445   0.0000       3.330942        90.6395 
 446   0.0000       3.567944        97.0887 

                 SPIN DOWN ORBITALS
  NO   OCC          E(Eh)            E(eV) 
   0   1.0000     -10.241774      -278.6928 
   1   1.0000     -10.232449      -278.4391 
   2   1.0000     -10.215935      -277.9897 
   3   1.0000     -10.215037      -277.9653 
   4   1.0000     -10.213553      -277.9249 
   5   1.0000     -10.213439      -277.9218 
   6   1.0000     -10.211798      -277.8772 
   7   1.0000     -10.210336      -277.8374 
   8   1.0000     -10.209668      -277.8192 
   9   1.0000     -10.209571      -277.8166 
  10   1.0000     -10.208339      -277.7830 
  11   1.0000     -10.205368      -277.7022 
  12   1.0000     -10.202427      -277.6221 
  13   1.0000     -10.194242      -277.3994 
  14   1.0000     -10.187662      -277.2204 
  15   1.0000     -10.187134      -277.2060 
  16   1.0000     -10.186339      -277.1844 
  17   1.0000     -10.182964      -277.0925 
  18   1.0000     -10.181807      -277.0611 
  19   1.0000     -10.178416      -276.9688 
  20   1.0000     -10.177758      -276.9509 
  21   1.0000     -10.176105      -276.9059 
  22   1.0000     -10.150649      -276.2132 
  23   1.0000      -0.881176       -23.9780 
  24   1.0000      -0.877681       -23.8829 
  25   1.0000      -0.822029       -22.3685 
  26   1.0000      -0.808034       -21.9877 
  27   1.0000      -0.796685       -21.6789 
  28   1.0000      -0.783821       -21.3289 
  29   1.0000      -0.771928       -21.0052 
  30   1.0000      -0.765985       -20.8435 
  31   1.0000      -0.738569       -20.0975 
  32   1.0000      -0.733003       -19.9460 
  33   1.0000      -0.704191       -19.1620 
  34   1.0000      -0.667444       -18.1621 
  35   1.0000      -0.655748       -17.8438 
  36   1.0000      -0.632695       -17.2165 
  37   1.0000      -0.624835       -17.0026 
  38   1.0000      -0.623727       -16.9725 
  39   1.0000      -0.595926       -16.2160 
  40   1.0000      -0.581802       -15.8316 
  41   1.0000      -0.566288       -15.4095 
  42   1.0000      -0.554593       -15.0912 
  43   1.0000      -0.524088       -14.2612 
  44   1.0000      -0.516834       -14.0638 
  45   1.0000      -0.494525       -13.4567 
  46   1.0000      -0.479339       -13.0435 
  47   1.0000      -0.476166       -12.9571 
  48   1.0000      -0.472523       -12.8580 
  49   1.0000      -0.471241       -12.8231 
  50   1.0000      -0.450453       -12.2574 
  51   1.0000      -0.438836       -11.9413 
  52   1.0000      -0.438587       -11.9346 
  53   1.0000      -0.428422       -11.6579 
  54   1.0000      -0.428032       -11.6473 
  55   1.0000      -0.425791       -11.5864 
  56   1.0000      -0.418902       -11.3989 
  57   1.0000      -0.413690       -11.2571 
  58   1.0000      -0.406932       -11.0732 
  59   1.0000      -0.398679       -10.8486 
  60   1.0000      -0.382571       -10.4103 
  61   1.0000      -0.376081       -10.2337 
  62   1.0000      -0.373583       -10.1657 
  63   1.0000      -0.368380       -10.0241 
  64   1.0000      -0.365584        -9.9480 
  65   1.0000      -0.362757        -9.8711 
  66   1.0000      -0.360111        -9.7991 
  67   1.0000      -0.348612        -9.4862 
  68   1.0000      -0.336890        -9.1672 
  69   1.0000      -0.332279        -9.0418 
  70   1.0000      -0.330345        -8.9892 
  71   1.0000      -0.328948        -8.9511 
  72   1.0000      -0.327222        -8.9042 
  73   1.0000      -0.322595        -8.7783 
  74   1.0000      -0.322542        -8.7768 
  75   1.0000      -0.287999        -7.8368 
  76   1.0000      -0.286342        -7.7918 
  77   1.0000      -0.273460        -7.4412 
  78   1.0000      -0.256684        -6.9847 
  79   1.0000      -0.232755        -6.3336 
  80   1.0000      -0.219136        -5.9630 
  81   0.0000      -0.104315        -2.8386 
  82   0.0000      -0.038522        -1.0482 
  83   0.0000      -0.024724        -0.6728 
  84   0.0000      -0.007161        -0.1949 
  85   0.0000      -0.004017        -0.1093 
  86   0.0000       0.027255         0.7417 
  87   0.0000       0.031087         0.8459 
  88   0.0000       0.043597         1.1863 
  89   0.0000       0.057927         1.5763 
  90   0.0000       0.061696         1.6788 
  91   0.0000       0.072776         1.9803 
  92   0.0000       0.078818         2.1447 
  93   0.0000       0.089041         2.4229 
  94   0.0000       0.091040         2.4773 
  95   0.0000       0.093215         2.5365 
  96   0.0000       0.093734         2.5506 
  97   0.0000       0.094795         2.5795 
  98   0.0000       0.099684         2.7125 
  99   0.0000       0.104671         2.8482 
 100   0.0000       0.122052         3.3212 
 101   0.0000       0.127766         3.4767 
 102   0.0000       0.131559         3.5799 
 103   0.0000       0.135264         3.6807 
 104   0.0000       0.143191         3.8964 
 105   0.0000       0.148485         4.0405 
 106   0.0000       0.148995         4.0544 
 107   0.0000       0.151890         4.1331 
 108   0.0000       0.156018         4.2455 
 109   0.0000       0.159434         4.3384 
 110   0.0000       0.159776         4.3477 
 111   0.0000       0.162031         4.4091 
 112   0.0000       0.169609         4.6153 
 113   0.0000       0.172788         4.7018 
 114   0.0000       0.180331         4.9070 
 115   0.0000       0.196545         5.3483 
 116   0.0000       0.197007         5.3608 
 117   0.0000       0.203747         5.5442 
 118   0.0000       0.209757         5.7078 
 119   0.0000       0.215711         5.8698 
 120   0.0000       0.219629         5.9764 
 121   0.0000       0.234859         6.3908 
 122   0.0000       0.240984         6.5575 
 123   0.0000       0.259793         7.0693 
 124   0.0000       0.265634         7.2283 
 125   0.0000       0.269961         7.3460 
 126   0.0000       0.272505         7.4152 
 127   0.0000       0.284278         7.7356 
 128   0.0000       0.297526         8.0961 
 129   0.0000       0.301791         8.2121 
 130   0.0000       0.330358         8.9895 
 131   0.0000       0.341606         9.2956 
 132   0.0000       0.354806         9.6548 
 133   0.0000       0.357105         9.7173 
 134   0.0000       0.370050        10.0696 
 135   0.0000       0.374206        10.1827 
 136   0.0000       0.400828        10.9071 
 137   0.0000       0.407484        11.0882 
 138   0.0000       0.411245        11.1905 
 139   0.0000       0.414554        11.2806 
 140   0.0000       0.418449        11.3866 
 141   0.0000       0.419066        11.4034 
 142   0.0000       0.422680        11.5017 
 143   0.0000       0.426176        11.5969 
 144   0.0000       0.436499        11.8777 
 145   0.0000       0.436876        11.8880 
 146   0.0000       0.448882        12.2147 
 147   0.0000       0.453288        12.3346 
 148   0.0000       0.457646        12.4532 
 149   0.0000       0.460613        12.5339 
 150   0.0000       0.469895        12.7865 
 151   0.0000       0.477211        12.9856 
 152   0.0000       0.478757        13.0276 
 153   0.0000       0.482580        13.1317 
 154   0.0000       0.489120        13.3096 
 155   0.0000       0.490128        13.3371 
 156   0.0000       0.495041        13.4708 
 157   0.0000       0.500315        13.6143 
 158   0.0000       0.501022        13.6335 
 159   0.0000       0.502764        13.6809 
 160   0.0000       0.505058        13.7433 
 161   0.0000       0.510327        13.8867 
 162   0.0000       0.516459        14.0536 
 163   0.0000       0.517828        14.0908 
 164   0.0000       0.525309        14.2944 
 165   0.0000       0.542027        14.7493 
 166   0.0000       0.546699        14.8764 
 167   0.0000       0.555821        15.1247 
 168   0.0000       0.566081        15.4039 
 169   0.0000       0.572332        15.5739 
 170   0.0000       0.585555        15.9338 
 171   0.0000       0.588039        16.0014 
 172   0.0000       0.592400        16.1200 
 173   0.0000       0.594592        16.1797 
 174   0.0000       0.596273        16.2254 
 175   0.0000       0.607253        16.5242 
 176   0.0000       0.612714        16.6728 
 177   0.0000       0.616849        16.7853 
 178   0.0000       0.617870        16.8131 
 179   0.0000       0.626876        17.0582 
 180   0.0000       0.632801        17.2194 
 181   0.0000       0.632827        17.2201 
 182   0.0000       0.635444        17.2913 
 183   0.0000       0.636319        17.3151 
 184   0.0000       0.641356        17.4522 
 185   0.0000       0.646844        17.6015 
 186   0.0000       0.653703        17.7881 
 187   0.0000       0.653747        17.7894 
 188   0.0000       0.657598        17.8942 
 189   0.0000       0.658384        17.9156 
 190   0.0000       0.660273        17.9669 
 191   0.0000       0.661285        17.9945 
 192   0.0000       0.666129        18.1263 
 193   0.0000       0.667069        18.1519 
 194   0.0000       0.670312        18.2401 
 195   0.0000       0.672270        18.2934 
 196   0.0000       0.672448        18.2982 
 197   0.0000       0.675443        18.3797 
 198   0.0000       0.683891        18.6096 
 199   0.0000       0.684762        18.6333 
 200   0.0000       0.695117        18.9151 
 201   0.0000       0.696649        18.9568 
 202   0.0000       0.700528        19.0623 
 203   0.0000       0.703767        19.1505 
 204   0.0000       0.711777        19.3684 
 205   0.0000       0.713511        19.4156 
 206   0.0000       0.713529        19.4161 
 207   0.0000       0.714677        19.4474 
 208   0.0000       0.732468        19.9315 
 209   0.0000       0.735908        20.0251 
 210   0.0000       0.747757        20.3475 
 211   0.0000       0.754755        20.5379 
 212   0.0000       0.762962        20.7613 
 213   0.0000       0.769998        20.9527 
[...]
                Q:ISTP=    2 I=  1.0 Q=  0.0029 barn     
 -----------------------------------------------------------
 Solving for nuclear perturbation:
Forming RHS of the CP-SCF equations         ... 
Calc. nucleus orbit integrals (SHARK)       ... done

------------------------------------------------------------------------------
                           ORCA CP-SCF CALCULATION
------------------------------------------------------------------------------

Input orbitals are from        ... cc-pVDZ.gbw
Input Perturbation             ... cc-pVDZ.pin.tmp
Wavefunction output            ... cc-pVDZ.pout.tmp
Perturbation mode              ... Imaginary perturbation
Solver                         ... POPLE
Max. number of iterations      ... 64
Convergence tolerance          ... 1.000e-03
Integral handling              ... Direct
DFT GridXC                     ... 1
COSX GridX                     ... 1
COSX IntAccX                   ... 3.067
COSX Algorithm                 ... Auto
Number of perturbations        ... 3
Number of operators            ... 2
Orbital ranges used for CP-SCF:
 Operator 0:  Orbitals   0... 81  to  82...446
 Operator 1:  Orbitals   0... 80  to  81...446
Variables per perturbation     ... 59576
DFT calculation                         ... on
XC functional terms                     ... off
Hybrid DFT                              ... on
   Exchange mixing (SCF)                ...  0.200
   Exchange mixing (CP-SCF)             ...  0.200
   GGA exch. scaling(SCF)               ...  0.720
   GGA exch. scaling (CP-SCF)           ...  0.720
   GGA corr. scaling (SCF)              ...  0.810
   GGA corr. scaling (CP-SCF)           ...  0.810

CP-SCF GRID
-----------

General Integration Accuracy     IntAcc      ... 3.467
Radial Grid Type                 RadialGrid  ... OptM3 with GC (2021)
Angular Grid (max. ang.)         AngularGrid ... 1 (Lebedev-50)
Angular grid pruning method      GridPruning ... 4 (adaptive)
Weight generation scheme         WeightScheme... Becke
Basis function cutoff            BFCut       ... 1.0000e-10
Integration weight cutoff        WCut        ... 1.0000e-14
Angular grids for H and He will be reduced by one unit
Partially contracted basis set               ... off
Rotationally invariant grid construction     ... off

Total number of grid points                  ...    30935
Total number of batches                      ...      505
Average number of points per batch           ...       61
Average number of grid points per atom       ...      644

CP-SCF GRIDX
------------

General Integration Accuracy     IntAcc      ... 3.067
Radial Grid Type                 RadialGrid  ... OptM3 with GC (2021)
Angular Grid (max. ang.)         AngularGrid ... 1 (Lebedev-50)
Angular grid pruning method      GridPruning ... 4 (adaptive)
Weight generation scheme         WeightScheme... Becke
Basis function cutoff            BFCut       ... 1.0000e-10
Integration weight cutoff        WCut        ... 1.0000e-14
Angular grids for H and He will be reduced by one unit
Partially contracted basis set               ... on
Rotationally invariant grid construction     ... off

Total number of grid points                  ...    14531
Total number of batches                      ...      257
Average number of points per batch           ...       56
Average number of grid points per atom       ...      303

Memory available               ... 880.6 MB
Memory needed per perturbation ...  12.6 MB
Perturbations treated per batch... 3
Number of batches              ... 1
     CP-SCF ITERATION   0:   4.5725e-02 (   1.7 sec   0/  3 done)
     CP-SCF ITERATION   1:   2.5876e-03 (   2.0 sec   0/  3 done)
     CP-SCF ITERATION   2:   8.7282e-03 (   1.7 sec   2/  3 done)
     CP-SCF ITERATION   3:   1.2259e-03 (   1.2 sec   2/  3 done)
     CP-SCF ITERATION   4:   1.1831e-04 (   1.1 sec   3/  3 done)
                    *** THE CP-SCF HAS CONVERGED ***

Forming final perturbed densities           ... done
Transforming perturbed density to AO basis  ... done

 Raw HFC matrix (all values in MHz): 
 -----------------------------------
                 0.5238              -0.1733              -0.0003
                -0.1733               0.0270              -0.0003
                -0.0003              -0.0003               0.1329

 A(FC)           0.2276               0.2276               0.2276
 A(SD)          -0.2551              -0.0947               0.3498
 A(ORB+DIA)      0.0001               0.0001               0.0009    A(PC) =   0.0004
 A(ORB)          0.0000              -0.0000               0.0009    A(PC) =   0.0003
 A(DIA)          0.0001               0.0001               0.0000    A(PC) =   0.0001
             ----------           ----------           ----------
 A(Tot)         -0.0274               0.1329               0.5783    A(iso)=    0.2279
 Orientation: 
  X           0.2998580           -0.0003605            0.9539838
  Y           0.9539807           -0.0024379           -0.2998580
  Z           0.0024338            0.9999970           -0.0003871

Notes:  (1) The A matrix conforms to the "SAI" spin Hamiltonian convention.
        (2) Tensor is right-handed.

 -----------------------------------------------------------
 Nucleus  46H : A:ISTP=    1 I=  0.5 P=533.5514 MHz/au**3
                Q:ISTP=    2 I=  1.0 Q=  0.0029 barn     
 -----------------------------------------------------------
 Solving for nuclear perturbation:
Forming RHS of the CP-SCF equations         ... 
Calc. nucleus orbit integrals (SHARK)       ... done

------------------------------------------------------------------------------
                           ORCA CP-SCF CALCULATION
------------------------------------------------------------------------------

Input orbitals are from        ... cc-pVDZ.gbw
Input Perturbation             ... cc-pVDZ.pin.tmp
Wavefunction output            ... cc-pVDZ.pout.tmp
Perturbation mode              ... Imaginary perturbation
Solver                         ... POPLE
Max. number of iterations      ... 64
Convergence tolerance          ... 1.000e-03
Integral handling              ... Direct
DFT GridXC                     ... 1
COSX GridX                     ... 1
COSX IntAccX                   ... 3.067
COSX Algorithm                 ... Auto
Number of perturbations        ... 3
Number of operators            ... 2
Orbital ranges used for CP-SCF:
 Operator 0:  Orbitals   0... 81  to  82...446
 Operator 1:  Orbitals   0... 80  to  81...446
Variables per perturbation     ... 59576
DFT calculation                         ... on
XC functional terms                     ... off
Hybrid DFT                              ... on
   Exchange mixing (SCF)                ...  0.200
   Exchange mixing (CP-SCF)             ...  0.200
   GGA exch. scaling(SCF)               ...  0.720
   GGA exch. scaling (CP-SCF)           ...  0.720
   GGA corr. scaling (SCF)              ...  0.810
   GGA corr. scaling (CP-SCF)           ...  0.810

CP-SCF GRID
-----------

General Integration Accuracy     IntAcc      ... 3.467
Radial Grid Type                 RadialGrid  ... OptM3 with GC (2021)
Angular Grid (max. ang.)         AngularGrid ... 1 (Lebedev-50)
Angular grid pruning method      GridPruning ... 4 (adaptive)
Weight generation scheme         WeightScheme... Becke
Basis function cutoff            BFCut       ... 1.0000e-10
Integration weight cutoff        WCut        ... 1.0000e-14
Angular grids for H and He will be reduced by one unit
Partially contracted basis set               ... off
Rotationally invariant grid construction     ... off

Total number of grid points                  ...    30935
Total number of batches                      ...      505
Average number of points per batch           ...       61
Average number of grid points per atom       ...      644

CP-SCF GRIDX
------------

General Integration Accuracy     IntAcc      ... 3.067
Radial Grid Type                 RadialGrid  ... OptM3 with GC (2021)
Angular Grid (max. ang.)         AngularGrid ... 1 (Lebedev-50)
Angular grid pruning method      GridPruning ... 4 (adaptive)
Weight generation scheme         WeightScheme... Becke
Basis function cutoff            BFCut       ... 1.0000e-10
Integration weight cutoff        WCut        ... 1.0000e-14
Angular grids for H and He will be reduced by one unit
Partially contracted basis set               ... on
Rotationally invariant grid construction     ... off

Total number of grid points                  ...    14531
Total number of batches                      ...      257
Average number of points per batch           ...       56
Average number of grid points per atom       ...      303

Memory available               ... 880.1 MB
Memory needed per perturbation ...  12.6 MB
Perturbations treated per batch... 3
Number of batches              ... 1
     CP-SCF ITERATION   0:   4.5824e-02 (   1.8 sec   0/  3 done)
     CP-SCF ITERATION   1:   3.0118e-03 (   1.8 sec   0/  3 done)
     CP-SCF ITERATION   2:   2.2038e-02 (   1.9 sec   2/  3 done)
     CP-SCF ITERATION   3:   1.1390e-03 (   1.2 sec   2/  3 done)
     CP-SCF ITERATION   4:   1.2113e-04 (   1.2 sec   3/  3 done)
                    *** THE CP-SCF HAS CONVERGED ***

Forming final perturbed densities           ... done
Transforming perturbed density to AO basis  ... done

 Raw HFC matrix (all values in MHz): 
 -----------------------------------
                 0.5332               0.1440               0.0005
                 0.1439               0.0145              -0.0004
                 0.0005              -0.0004               0.1378

 A(FC)           0.2280               0.2280               0.2280
 A(SD)          -0.2510              -0.0904               0.3413
 A(ORB+DIA)      0.0001               0.0001               0.0011    A(PC) =   0.0004
 A(ORB)          0.0001              -0.0000               0.0011    A(PC) =   0.0004
 A(DIA)          0.0001               0.0001               0.0000    A(PC) =   0.0001
             ----------           ----------           ----------
 A(Tot)         -0.0228               0.1378               0.5704    A(iso)=    0.2285
 Orientation: 
  X           0.2506654            0.0000192            0.9680738
  Y          -0.9680691            0.0031076            0.2506642
  Z          -0.0030036           -0.9999952            0.0007976

Notes:  (1) The A matrix conforms to the "SAI" spin Hamiltonian convention.
        (2) Tensor is right-handed.

 -----------------------------------------------------------
 Nucleus  47H : A:ISTP=    1 I=  0.5 P=533.5514 MHz/au**3
                Q:ISTP=    2 I=  1.0 Q=  0.0029 barn     
 -----------------------------------------------------------
 Solving for nuclear perturbation:
Forming RHS of the CP-SCF equations         ... 
Calc. nucleus orbit integrals (SHARK)       ... done

------------------------------------------------------------------------------
                           ORCA CP-SCF CALCULATION
------------------------------------------------------------------------------

Input orbitals are from        ... cc-pVDZ.gbw
Input Perturbation             ... cc-pVDZ.pin.tmp
Wavefunction output            ... cc-pVDZ.pout.tmp
Perturbation mode              ... Imaginary perturbation
Solver                         ... POPLE
Max. number of iterations      ... 64
Convergence tolerance          ... 1.000e-03
Integral handling              ... Direct
DFT GridXC                     ... 1
COSX GridX                     ... 1
COSX IntAccX                   ... 3.067
COSX Algorithm                 ... Auto
Number of perturbations        ... 3
Number of operators            ... 2
Orbital ranges used for CP-SCF:
 Operator 0:  Orbitals   0... 81  to  82...446
 Operator 1:  Orbitals   0... 80  to  81...446
Variables per perturbation     ... 59576
DFT calculation                         ... on
XC functional terms                     ... off
Hybrid DFT                              ... on
   Exchange mixing (SCF)                ...  0.200
   Exchange mixing (CP-SCF)             ...  0.200
   GGA exch. scaling(SCF)               ...  0.720
   GGA exch. scaling (CP-SCF)           ...  0.720
   GGA corr. scaling (SCF)              ...  0.810
   GGA corr. scaling (CP-SCF)           ...  0.810

CP-SCF GRID
-----------

General Integration Accuracy     IntAcc      ... 3.467
Radial Grid Type                 RadialGrid  ... OptM3 with GC (2021)
Angular Grid (max. ang.)         AngularGrid ... 1 (Lebedev-50)
Angular grid pruning method      GridPruning ... 4 (adaptive)
Weight generation scheme         WeightScheme... Becke
Basis function cutoff            BFCut       ... 1.0000e-10
Integration weight cutoff        WCut        ... 1.0000e-14
Angular grids for H and He will be reduced by one unit
Partially contracted basis set               ... off
Rotationally invariant grid construction     ... off

Total number of grid points                  ...    30935
Total number of batches                      ...      505
Average number of points per batch           ...       61
Average number of grid points per atom       ...      644

CP-SCF GRIDX
------------

General Integration Accuracy     IntAcc      ... 3.067
Radial Grid Type                 RadialGrid  ... OptM3 with GC (2021)
Angular Grid (max. ang.)         AngularGrid ... 1 (Lebedev-50)
Angular grid pruning method      GridPruning ... 4 (adaptive)
Weight generation scheme         WeightScheme... Becke
Basis function cutoff            BFCut       ... 1.0000e-10
Integration weight cutoff        WCut        ... 1.0000e-14
Angular grids for H and He will be reduced by one unit
Partially contracted basis set               ... on
Rotationally invariant grid construction     ... off

Total number of grid points                  ...    14531
Total number of batches                      ...      257
Average number of points per batch           ...       56
Average number of grid points per atom       ...      303

Memory available               ... 879.6 MB
Memory needed per perturbation ...  12.6 MB
Perturbations treated per batch... 3
Number of batches              ... 1
     CP-SCF ITERATION   0:   4.1677e-02 (   1.9 sec   0/  3 done)
     CP-SCF ITERATION   1:   1.7101e-03 (   1.8 sec   0/  3 done)
     CP-SCF ITERATION   2:   1.8422e-03 (   1.8 sec   2/  3 done)
     CP-SCF ITERATION   3:   5.5881e-04 (   1.2 sec   3/  3 done)
                    *** THE CP-SCF HAS CONVERGED ***

Forming final perturbed densities           ... done
Transforming perturbed density to AO basis  ... done

 Raw HFC matrix (all values in MHz): 
 -----------------------------------
                -0.0189              -0.0667              -0.0001
                -0.0668              -0.1396              -0.0000
                -0.0001              -0.0000              -0.1234

 A(FC)          -0.0942              -0.0942              -0.0942
 A(SD)           0.1045              -0.0293              -0.0752
 A(ORB+DIA)      0.0004               0.0001               0.0001    A(PC) =   0.0002
 A(ORB)          0.0004              -0.0000               0.0001    A(PC) =   0.0002
 A(DIA)          0.0000               0.0001               0.0001    A(PC) =   0.0000
             ----------           ----------           ----------
 A(Tot)          0.0108              -0.1234              -0.1693    A(iso)=   -0.0940
 Orientation: 
  X           0.9140929            0.0002162            0.4055049
  Y          -0.4055044            0.0021441            0.9140906
  Z          -0.0006718           -0.9999977            0.0020476

Notes:  (1) The A matrix conforms to the "SAI" spin Hamiltonian convention.
        (2) Tensor is right-handed.


--------------------------------------------------------------------------------
----------------------------------------------------------------------------
                           ORCA EULER ANGLE PROGRAM
----------------------------------------------------------------------------

Only g-tensor available        -->  using g-tensor as reference tensor

Reference tensor               ...  g

g-tensor ordering              ...  |g_min> --> |gx>
                                    |g_mid> --> |gy>
                                    |g_max> --> |gz>

A- and EFG-tensor ordering     ...  the axes |Ax>, |Qx>, |Ay>, etc. are assigned
                                    such that the Euler rotation is minimal. You
                                    can find the respective eigenvalues as Ax,
                                    EFGx, Ay, etc. in the tables below.
                                    The relation of |Ax>, |Ay>,  etc. to Amin, Amid, etc.
                                    (as printed in the ORCA EPR/NMR CALCULATION Output)
                                    is obtained in the detailed printout.

Euler rotation around          ...  z - y - z
   First rotation              -->  by alpha around z
   Second rotation             -->  by beta around y'
   Third rotation              -->  by gamma around z''
   Positive / Negative angle   -->  clockwise / counterclockwise rotation

Plot EFG-tensors                    (-)
Plot HFC-tensors                    (-)
Detailed Printout                   (-)

-------------------------------------------------------------------------
          Euler rotation of hyperfine tensor to g-tensor
-------------------------------------------------------------------------

-------------------------------------------------------------------
 Atom  |   Alpha    Beta    Gamma   |   Ax       Ay       Az 
       |          [degrees]         |           [MHz]         
-------------------------------------------------------------------
  8H       -0.1     22.1     -0.1       4.00     3.93     7.03
  9H        0.2     25.3     -0.3       8.72    -7.63    -3.76
 11H      120.5     39.9   -135.6       8.04    -2.88    -4.31
 12H     -120.4     40.1    135.1       8.04    -2.92    -4.36
 14H      171.7     38.6    174.5       1.96    -0.38    -0.35
 15H     -172.1     38.5   -174.1       1.95    -0.39    -0.36
 17H      118.9     18.0   -106.7       1.21    -0.65    -0.61
 18H     -118.9     18.1    106.4       1.21    -0.65    -0.61
 20H      170.4     25.4   -160.9       0.48    -0.24    -0.24
 21H     -171.0     25.4    161.4       0.48    -0.24    -0.24
 23H     -178.2     33.6    155.4      -0.37    -0.18     1.43
 24H      178.3     33.6   -155.7      -0.36    -0.18     1.43
 26H      -11.5     29.2     26.6       1.52    -0.88    -0.77
 27H       11.4     29.2    -26.8       1.52    -0.88    -0.77
 29H      -34.7     49.2     36.3       0.49    -0.23    -0.23
 30H       34.4     49.0    -36.2       0.49    -0.23    -0.23
 32H       42.8     25.5    -53.8       0.47    -0.24    -0.23
 33H      -42.8     25.5     53.6       0.47    -0.24    -0.23
 35H     -180.0     13.7    179.9       0.40    -0.22    -0.22
 36H        0.2     24.8     -0.3       0.28    -0.15    -0.15
 43H     -179.6      1.5    179.5       0.37     0.22     0.18
 44H     -180.0     26.0    179.9      -0.17    -0.12     0.01
 45H       -0.1     12.9     -0.0      -0.03     0.13     0.58
 46H      180.0     19.1    179.9      -0.02     0.14     0.57
 47H       -0.0     19.4     -0.1      -0.17    -0.12     0.01
-------------------------------------------------------------------


Maximum memory used throughout the entire EPRNMR-calculation: 210.7 MB

Timings for individual modules:

Sum of individual times         ...     4488.527 sec (=  74.809 min)
GTO integral calculation        ...        5.536 sec (=   0.092 min)   0.1 %
Spin-Orbit-Coupling Matrices    ...        9.067 sec (=   0.151 min)   0.2 %
SCF iterations                  ...       29.706 sec (=   0.495 min)   0.7 %
EPR/NMR calculation             ...     4444.218 sec (=  74.070 min)  99.0 %
                             ****ORCA TERMINATED NORMALLY****
TOTAL RUN TIME: 0 days 1 hours 14 minutes 53 seconds 55 msec
