
                                 *****************
                                 * O   R   C   A *
                                 *****************

                                            #,                                       
                                            ###                                      
                                            ####                                     
                                            #####                                    
                                            ######                                   
                                           ########,                                 
                                     ,,################,,,,,                         
                               ,,#################################,,                 
                          ,,##########################################,,             
                       ,#########################################, ''#####,          
                    ,#############################################,,   '####,        
                  ,##################################################,,,,####,       
                ,###########''''           ''''###############################       
              ,#####''   ,,,,##########,,,,          '''####'''          '####       
            ,##' ,,,,###########################,,,                        '##       
           ' ,,###''''                  '''############,,,                           
         ,,##''                                '''############,,,,        ,,,,,,###''
      ,#''                                            '''#######################'''  
     '                                                          ''''####''''         
             ,#######,   #######,   ,#######,      ##                                
            ,#'     '#,  ##    ##  ,#'     '#,    #''#        ######   ,####,        
            ##       ##  ##   ,#'  ##            #'  '#       #        #'  '#        
            ##       ##  #######   ##           ,######,      #####,   #    #        
            '#,     ,#'  ##    ##  '#,     ,#' ,#      #,         ##   #,  ,#        
             '#######'   ##     ##  '#######'  #'      '#     #####' # '####'        



                  #######################################################
                  #                        -***-                        #
                  #          Department of theory and spectroscopy      #
                  #    Directorship and core code : Frank Neese         #
                  #        Max Planck Institute fuer Kohlenforschung    #
                  #                Kaiser Wilhelm Platz 1               #
                  #                 D-45470 Muelheim/Ruhr               #
                  #                      Germany                        #
                  #                                                     #
                  #                  All rights reserved                #
                  #                        -***-                        #
                  #######################################################


                         Program Version 5.0.4 -  RELEASE  -


 With contributions from (in alphabetic order):
   Daniel Aravena         : Magnetic Suceptibility
   Michael Atanasov       : Ab Initio Ligand Field Theory (pilot matlab implementation)
   Alexander A. Auer      : GIAO ZORA, VPT2 properties, NMR spectrum
   Ute Becker             : Parallelization
   Giovanni Bistoni       : ED, misc. LED, open-shell LED, HFLD
   Martin Brehm           : Molecular dynamics
   Dmytro Bykov           : SCF Hessian
   Vijay G. Chilkuri      : MRCI spin determinant printing, contributions to CSF-ICE
   Dipayan Datta          : RHF DLPNO-CCSD density
   Achintya Kumar Dutta   : EOM-CC, STEOM-CC
   Dmitry Ganyushin       : Spin-Orbit,Spin-Spin,Magnetic field MRCI
   Miquel Garcia          : C-PCM and meta-GGA Hessian, CC/C-PCM, Gaussian charge scheme
   Yang Guo               : DLPNO-NEVPT2, F12-NEVPT2, CIM, IAO-localization
   Andreas Hansen         : Spin unrestricted coupled pair/coupled cluster methods
   Benjamin Helmich-Paris : MC-RPA, TRAH-SCF, COSX integrals
   Lee Huntington         : MR-EOM, pCC
   Robert Izsak           : Overlap fitted RIJCOSX, COSX-SCS-MP3, EOM
   Marcus Kettner         : VPT2
   Christian Kollmar      : KDIIS, OOCD, Brueckner-CCSD(T), CCSD density, CASPT2, CASPT2-K
   Simone Kossmann        : Meta GGA functionals, TD-DFT gradient, OOMP2, MP2 Hessian
   Martin Krupicka        : Initial AUTO-CI
   Lucas Lang             : DCDCAS
   Marvin Lechner         : AUTO-CI (C++ implementation), FIC-MRCC
   Dagmar Lenk            : GEPOL surface, SMD
   Dimitrios Liakos       : Extrapolation schemes; Compound Job, initial MDCI parallelization
   Dimitrios Manganas     : Further ROCIS development; embedding schemes
   Dimitrios Pantazis     : SARC Basis sets
   Anastasios Papadopoulos: AUTO-CI, single reference methods and gradients
   Taras Petrenko         : DFT Hessian,TD-DFT gradient, ASA, ECA, R-Raman, ABS, FL, XAS/XES, NRVS
   Peter Pinski           : DLPNO-MP2, DLPNO-MP2 Gradient
   Christoph Reimann      : Effective Core Potentials
   Marius Retegan         : Local ZFS, SOC
   Christoph Riplinger    : Optimizer, TS searches, QM/MM, DLPNO-CCSD(T), (RO)-DLPNO pert. Triples
   Tobias Risthaus        : Range-separated hybrids, TD-DFT gradient, RPA, STAB
   Michael Roemelt        : Original ROCIS implementation
   Masaaki Saitow         : Open-shell DLPNO-CCSD energy and density
   Barbara Sandhoefer     : DKH picture change effects
   Avijit Sen             : IP-ROCIS
   Kantharuban Sivalingam : CASSCF convergence, NEVPT2, FIC-MRCI
   Bernardo de Souza      : ESD, SOC TD-DFT
   Georgi Stoychev        : AutoAux, RI-MP2 NMR, DLPNO-MP2 response
   Willem Van den Heuvel  : Paramagnetic NMR
   Boris Wezisla          : Elementary symmetry handling
   Frank Wennmohs         : Technical directorship


 We gratefully acknowledge several colleagues who have allowed us to
 interface, adapt or use parts of their codes:
   Stefan Grimme, W. Hujo, H. Kruse, P. Pracht,  : VdW corrections, initial TS optimization,
                  C. Bannwarth, S. Ehlert          DFT functionals, gCP, sTDA/sTD-DF
   Ed Valeev, F. Pavosevic, A. Kumar             : LibInt (2-el integral package), F12 methods
   Garnet Chan, S. Sharma, J. Yang, R. Olivares  : DMRG
   Ulf Ekstrom                                   : XCFun DFT Library
   Mihaly Kallay                                 : mrcc  (arbitrary order and MRCC methods)
   Jiri Pittner, Ondrej Demel                    : Mk-CCSD
   Frank Weinhold                                : gennbo (NPA and NBO analysis)
   Christopher J. Cramer and Donald G. Truhlar   : smd solvation model
   Lars Goerigk                                  : TD-DFT with DH, B97 family of functionals
   V. Asgeirsson, H. Jonsson                     : NEB implementation
   FAccTs GmbH                                   : IRC, NEB, NEB-TS, DLPNO-Multilevel, CI-OPT
                                                   MM, QMMM, 2- and 3-layer-ONIOM, Crystal-QMMM,
                                                   LR-CPCM, SF, NACMEs, symmetry and pop. for TD-DFT,
                                                   nearIR, NL-DFT gradient (VV10), updates on ESD,
                                                   ML-optimized integration grids
   S Lehtola, MJT Oliveira, MAL Marques          : LibXC Library
   Liviu Ungur et al                             : ANISO software


 Your calculation uses the libint2 library for the computation of 2-el integrals
 For citations please refer to: http://libint.valeyev.net

 Your ORCA version has been built with support for libXC version: 5.1.0
 For citations please refer to: https://tddft.org/programs/libxc/

 This ORCA versions uses:
   CBLAS   interface :  Fast vector & matrix operations
   LAPACKE interface :  Fast linear algebra routines
   SCALAPACK package :  Parallel linear algebra routines
   Shared memory     :  Shared parallel matrices
   BLAS/LAPACK       :  OpenBLAS 0.3.15  USE64BITINT DYNAMIC_ARCH NO_AFFINITY SkylakeX SINGLE_THREADED
        Core in use  :  SkylakeX
   Copyright (c) 2011-2014, The OpenBLAS Project




***************************************
The coordinates will be read from file: opt.xyz
***************************************


================================================================================

----- Orbital basis set information -----
Your calculation utilizes the basis: EPR-II
   V. Barone, in Recent Advances in Density Functional Methods, Part 1 (ed. D. P. Chong), World Scientific, Singapore, 1995, p. 287.

----- AuxJ basis set information -----
Your calculation utilizes the AutoAux generation procedure.
  G. L. Stoychev, A. A. Auer, F. Neese, J. Chem. Theory Comput. 13, 554 (2017)

----- AuxC basis set information -----
Your calculation utilizes the AutoAux generation procedure.
  G. L. Stoychev, A. A. Auer, F. Neese, J. Chem. Theory Comput. 13, 554 (2017)

----- AuxJK basis set information -----
Your calculation utilizes the AutoAux generation procedure.
  G. L. Stoychev, A. A. Auer, F. Neese, J. Chem. Theory Comput. 13, 554 (2017)

================================================================================
                                        WARNINGS
                       Please study these warnings very carefully!
================================================================================

WARNING: Old DensityContainer found on disk!
         Will remove this file - 
         If you want to keep old densities, please start your calculation with a different basename. 


WARNING: your system is open-shell and RHF/RKS was chosen
  ===> : WILL SWITCH to UHF/UKS


INFO   : the flag for use of the SHARK integral package has been found!

================================================================================
                                       INPUT FILE
================================================================================
NAME = EPRII.inp
|  1> ! B3LYP EPR-II AUTOAUX
|  2> %pal nprocs 16 end
|  3> *XYZFile 0 2 opt.xyz
|  4> %EPRNMR
|  5>         GTENSOR   TRUE
|  6>         NUCLEI    = ALL H {SHIFT, AISO, ADIP, AORB}
|  7>         ORI       CenterOfElCharge
|  8> END
|  9> 
| 10>                          ****END OF INPUT****
================================================================================

                       ****************************
                       * Single Point Calculation *
                       ****************************

---------------------------------
CARTESIAN COORDINATES (ANGSTROEM)
---------------------------------
  C     -2.775358    0.046208   -0.011751
  C      2.820255    0.009685   -0.009139
  C     -1.416126   -0.010274   -0.011347
  C     -0.684648   -1.267420   -0.014386
  C      0.690490   -1.196208   -0.013389
  C      1.407047    0.036197   -0.009702
  C      0.687689    1.279681   -0.006696
  C     -0.690449    1.243926   -0.007610
  H      1.277162   -2.115524   -0.015523
  H     -1.268852    2.166837   -0.005472
  C     -1.480792   -2.555886   -0.018568
  H     -2.154671   -2.540740   -0.897146
  H     -2.157395   -2.544715    0.857974
  C     -0.681275   -3.861204   -0.020309
  H     -0.017862   -3.890851   -0.904058
  H     -0.020683   -3.894869    0.865412
  C     -1.579450   -5.104210   -0.024628
  H     -2.246605   -5.074150    0.856659
  H     -2.243576   -5.070198   -0.908059
  C     -0.790051   -6.415615   -0.026228
  H     -0.143052   -6.494872    0.864454
  H     -0.139497   -6.490536   -0.914694
  C      1.465882    2.581608   -0.002726
  H      2.141040    2.571608    0.872700
  H      2.142655    2.575943   -0.876938
  C      0.653075    3.878460   -0.000281
  H     -0.008622    3.909115   -0.885508
  H     -0.010403    3.904750    0.883750
  C      1.540606    5.129343    0.003729
  H      2.205493    5.100499    0.886927
  H      2.207479    5.104735   -0.878099
  C      0.741236    6.434757    0.005976
  H      0.090513    6.504407    0.894697
  H      0.093010    6.509016   -0.884195
  C      4.046121   -0.034213   -0.010003
  H     -1.460807   -7.289936   -0.029701
  H      1.404972    7.314510    0.009190
  C      5.469175   -0.089851   -0.009729
  C      6.140470   -1.334126   -0.012366
  C      7.533422   -1.384522   -0.012085
  C      8.284577   -0.203110   -0.009213
  C      7.630744    1.034879   -0.006618
  C      6.238242    1.096428   -0.006877
  H      9.376146   -0.247118   -0.009009
  H      8.211876    1.960203   -0.004379
  H      5.552872   -2.254102   -0.014605
  H      5.726741    2.060809   -0.004870
  H      8.038460   -2.353485   -0.014131

----------------------------
CARTESIAN COORDINATES (A.U.)
----------------------------
  NO LB      ZA    FRAG     MASS         X           Y           Z
   0 C     6.0000    0    12.011   -5.244666    0.087321   -0.022207
   1 C     6.0000    0    12.011    5.329509    0.018301   -0.017270
   2 C     6.0000    0    12.011   -2.676089   -0.019416   -0.021442
   3 C     6.0000    0    12.011   -1.293797   -2.395076   -0.027185
   4 C     6.0000    0    12.011    1.304836   -2.260506   -0.025301
   5 C     6.0000    0    12.011    2.658933    0.068402   -0.018335
   6 C     6.0000    0    12.011    1.299543    2.418247   -0.012654
   7 C     6.0000    0    12.011   -1.304760    2.350680   -0.014381
   8 H     1.0000    0     1.008    2.413486   -3.997762   -0.029334
   9 H     1.0000    0     1.008   -2.397782    4.094729   -0.010341
  10 C     6.0000    0    12.011   -2.798290   -4.829924   -0.035089
  11 H     1.0000    0     1.008   -4.071738   -4.801303   -1.695361
  12 H     1.0000    0     1.008   -4.076886   -4.808815    1.621335
  13 C     6.0000    0    12.011   -1.287423   -7.296619   -0.038379
  14 H     1.0000    0     1.008   -0.033755   -7.352643   -1.708423
  15 H     1.0000    0     1.008   -0.039085   -7.360237    1.635391
  16 C     6.0000    0    12.011   -2.984727   -9.645560   -0.046540
  17 H     1.0000    0     1.008   -4.245468   -9.588753    1.618850
  18 H     1.0000    0     1.008   -4.239743   -9.581286   -1.715982
  19 C     6.0000    0    12.011   -1.492981  -12.123756   -0.049565
  20 H     1.0000    0     1.008   -0.270330  -12.273529    1.633581
  21 H     1.0000    0     1.008   -0.263612  -12.265336   -1.728521
  22 C     6.0000    0    12.011    2.770115    4.878533   -0.005151
  23 H     1.0000    0     1.008    4.045979    4.859636    1.649164
  24 H     1.0000    0     1.008    4.049030    4.867828   -1.657173
  25 C     6.0000    0    12.011    1.234134    7.329228   -0.000530
  26 H     1.0000    0     1.008   -0.016293    7.387157   -1.673368
  27 H     1.0000    0     1.008   -0.019659    7.378908    1.670046
  28 C     6.0000    0    12.011    2.911324    9.693053    0.007046
  29 H     1.0000    0     1.008    4.167777    9.638546    1.676049
  30 H     1.0000    0     1.008    4.171531    9.646551   -1.659366
  31 C     6.0000    0    12.011    1.400732   12.159929    0.011293
  32 H     1.0000    0     1.008    0.171045   12.291547    1.690732
  33 H     1.0000    0     1.008    0.175763   12.300257   -1.670887
  34 C     6.0000    0    12.011    7.646061   -0.064654   -0.018903
  35 H     1.0000    0     1.008   -2.760524  -13.775982   -0.056127
  36 H     1.0000    0     1.008    2.655013   13.822421    0.017366
  37 C     6.0000    0    12.011   10.335243   -0.169794   -0.018386
  38 C     6.0000    0    12.011   11.603807   -2.521134   -0.023368
  39 C     6.0000    0    12.011   14.236105   -2.616367   -0.022838
  40 C     6.0000    0    12.011   15.655582   -0.383822   -0.017411
  41 C     6.0000    0    12.011   14.420016    1.955637   -0.012506
  42 C     6.0000    0    12.011   11.788569    2.071948   -0.012996
  43 H     1.0000    0     1.008   17.718348   -0.466986   -0.017025
  44 H     1.0000    0     1.008   15.518196    3.704247   -0.008274
  45 H     1.0000    0     1.008   10.493407   -4.259635   -0.027600
  46 H     1.0000    0     1.008   10.821971    3.894365   -0.009204
  47 H     1.0000    0     1.008   15.190487   -4.447442   -0.026704

--------------------------------
INTERNAL COORDINATES (ANGSTROEM)
--------------------------------
 C      0   0   0     0.000000000000     0.00000000     0.00000000
 C      1   0   0     5.595732004957     0.00000000     0.00000000
 C      1   2   0     1.360405191013     2.00560026     0.00000000
 C      3   1   2     1.454469918689   122.57268791   179.87546019
 C      4   3   1     1.376980208531   117.22867989   180.01155142
 C      2   1   3     1.413456756580     0.70078342   180.04362844
 C      6   2   5     1.436571908484   121.12406587   180.00302186
 C      7   6   2     1.378601847162   118.56311133   179.99054662
 H      5   4   3     1.090564627606   119.57987629   179.99649821
 H      8   7   6     1.089182455298   120.58966669   180.00407885
 C      4   3   1     1.514598143512   118.09498938     0.00000000
 H     11   4   3     1.107357915994   108.08554859    56.53583569
 H     11   4   3     1.107358659164   108.08373428   303.58115156
 C     11   4   3     1.530714496630   116.80037928   180.05817528
 H     14  11   4     1.105444583233   109.70863920   301.77526421
 H     14  11   4     1.105448465363   109.70533933    58.22859475
 C     14  11   4     1.533558086370   112.66110580   180.00330784
 H     17  14  11     1.105742166080   109.21375501   302.33041719
 H     17  14  11     1.105743859162   109.21334405    57.68537949
 C     17  14  11     1.530665064032   113.10306867   180.00694348
 H     20  17  14     1.103723193693   111.28414541    59.89992599
 H     20  17  14     1.103723017427   111.28296697   300.14024706
 C      7   6   2     1.516777664683   119.08294731     0.00000000
 H     23   7   6     1.105580701721   107.91606339   303.71010560
 H     23   7   6     1.105577037297   107.91447122    56.23744248
 C     23   7   6     1.530518232004   117.05478261   179.97241633
 H     26  23   7     1.105627075376   109.87974588   301.69490823
 H     26  23   7     1.105624501298   109.88387152    58.29948684
 C     26  23   7     1.533764592831   112.56596694   179.99750909
 H     29  26  23     1.105868820719   109.19151540   302.31939451
 H     29  26  23     1.105867991045   109.19103182    57.66089109
 C     29  26  23     1.530720359307   113.16229135   179.99053427
 H     32  29  26     1.103682689923   111.27816991    59.84672670
 H     32  29  26     1.103682976140   111.27899091   300.11506728
 C      2   1   3     1.226652884749   178.32176436     2.01506262
 H     20  17  14     1.101980315981   111.45985788   180.02058279
 H     32  29  26     1.102053733118   111.48590918   179.98045027
 C     35   2   6     1.424140703761   179.80499042   341.01984994
 C     38  35   2     1.413812362503   120.58607539    15.40693246
 C     39  38  35     1.393863497676   120.41908479   180.00015779
 C     40  39  38     1.399991502332   120.37661057     0.00000000
 C     41  40  39     1.400042963895   119.71107387     0.00000000
 C     42  41  40     1.393861490907   120.37116468     0.00000000
 H     41  40  39     1.092455893739   120.13987717   180.00034672
 H     42  41  40     1.092677705168   120.02965548   180.00046773
 H     39  38  35     1.091618719799   119.08613018     0.00000000
 H     43  42  41     1.091636261109   120.47192886   180.00086835
 H     40  39  38     1.092683124259   119.60108407   179.99928286

---------------------------
INTERNAL COORDINATES (A.U.)
---------------------------
 C      0   0   0     0.000000000000     0.00000000     0.00000000
 C      1   0   0    10.574401008187     0.00000000     0.00000000
 C      1   2   0     2.570793242180     2.00560026     0.00000000
 C      3   1   2     2.748549816349   122.57268791   179.87546019
 C      4   3   1     2.602115485954   117.22867989   180.01155142
 C      2   1   3     2.671046172077     0.70078342   180.04362844
 C      6   2   5     2.714727478719   121.12406587   180.00302186
 C      7   6   2     2.605179938854   118.56311133   179.99054662
 H      5   4   3     2.060868477517   119.57987629   179.99649821
 H      8   7   6     2.058256550386   120.58966669   180.00407885
 C      4   3   1     2.862175694184   118.09498938     0.00000000
 H     11   4   3     2.092603193458   108.08554859    56.53583569
 H     11   4   3     2.092604597845   108.08373428   303.58115156
 C     11   4   3     2.892631187855   116.80037928   180.05817528
 H     14  11   4     2.088987518538   109.70863920   301.77526421
 H     14  11   4     2.088994854700   109.70533933    58.22859475
 C     14  11   4     2.898004793701   112.66110580   180.00330784
 H     17  14  11     2.089549868619   109.21375501   302.33041719
 H     17  14  11     2.089553068082   109.21334405    57.68537949
 C     17  14  11     2.892537773781   113.10306867   180.00694348
 H     20  17  14     2.085734563736   111.28414541    59.89992599
 H     20  17  14     2.085734230642   111.28296697   300.14024706
 C      7   6   2     2.866294392300   119.08294731     0.00000000
 H     23   7   6     2.089244745201   107.91606339   303.71010560
 H     23   7   6     2.089237820443   107.91447122    56.23744248
 C     23   7   6     2.892260301461   117.05478261   179.97241633
 H     26  23   7     2.089332378710   109.87974588   301.69490823
 H     26  23   7     2.089327514406   109.88387152    58.29948684
 C     26  23   7     2.898395034356   112.56596694   179.99750909
 H     29  26  23     2.089789211202   109.19151540   302.31939451
 H     29  26  23     2.089787643345   109.19103182    57.66089109
 C     29  26  23     2.892642266708   113.16229135   179.99053427
 H     32  29  26     2.085658022704   111.27816991    59.84672670
 H     32  29  26     2.085658563575   111.27899091   300.11506728
 C      2   1   3     2.318038013559   178.32176436     2.01506262
 H     20  17  14     2.082441002175   111.45985788   180.02058279
 H     32  29  26     2.082579740458   111.48590918   179.98045027
 C     35   2   6     2.691235906278   179.80499042   341.01984994
 C     38  35   2     2.671718169883   120.58607539    15.40693246
 C     39  38  35     2.634020278678   120.41908479   180.00015779
 C     40  39  38     2.645600529224   120.37661057     0.00000000
 C     41  40  39     2.645697777485   119.71107387     0.00000000
 C     42  41  40     2.634016486433   120.37116468     0.00000000
 H     41  40  39     2.064442452556   120.13987717   180.00034672
 H     42  41  40     2.064861615409   120.02965548   180.00046773
 H     39  38  35     2.062860423082   119.08613018     0.00000000
 H     43  42  41     2.062893571354   120.47192886   180.00086835
 H     40  39  38     2.064871856006   119.60108407   179.99928286

---------------------
BASIS SET INFORMATION
---------------------
There are 2 groups of distinct atoms

 Group   1 Type C   : 10s5p1d contracted to 6s2p1d pattern {511111/41/1}
 Group   2 Type H   : 6s1p contracted to 4s1p pattern {3111/1}

Atom   0C    basis set group =>   1
Atom   1C    basis set group =>   1
Atom   2C    basis set group =>   1
Atom   3C    basis set group =>   1
Atom   4C    basis set group =>   1
Atom   5C    basis set group =>   1
Atom   6C    basis set group =>   1
Atom   7C    basis set group =>   1
Atom   8H    basis set group =>   2
Atom   9H    basis set group =>   2
Atom  10C    basis set group =>   1
Atom  11H    basis set group =>   2
Atom  12H    basis set group =>   2
Atom  13C    basis set group =>   1
Atom  14H    basis set group =>   2
Atom  15H    basis set group =>   2
Atom  16C    basis set group =>   1
Atom  17H    basis set group =>   2
Atom  18H    basis set group =>   2
Atom  19C    basis set group =>   1
Atom  20H    basis set group =>   2
Atom  21H    basis set group =>   2
Atom  22C    basis set group =>   1
Atom  23H    basis set group =>   2
Atom  24H    basis set group =>   2
Atom  25C    basis set group =>   1
Atom  26H    basis set group =>   2
Atom  27H    basis set group =>   2
Atom  28C    basis set group =>   1
Atom  29H    basis set group =>   2
Atom  30H    basis set group =>   2
Atom  31C    basis set group =>   1
Atom  32H    basis set group =>   2
Atom  33H    basis set group =>   2
Atom  34C    basis set group =>   1
Atom  35H    basis set group =>   2
Atom  36H    basis set group =>   2
Atom  37C    basis set group =>   1
Atom  38C    basis set group =>   1
Atom  39C    basis set group =>   1
Atom  40C    basis set group =>   1
Atom  41C    basis set group =>   1
Atom  42C    basis set group =>   1
Atom  43H    basis set group =>   2
Atom  44H    basis set group =>   2
Atom  45H    basis set group =>   2
Atom  46H    basis set group =>   2
Atom  47H    basis set group =>   2
---------------------------------
AUXILIARY/J BASIS SET INFORMATION
---------------------------------
There are 2 groups of distinct atoms

 Group   1 Type C   : 17s13p12d2f contracted to 17s13p12d2f pattern {11111111111111111/1111111111111/111111111111/11}
 Group   2 Type H   : 15s6p1d contracted to 15s6p1d pattern {111111111111111/111111/1}

Atom   0C    basis set group =>   1
Atom   1C    basis set group =>   1
Atom   2C    basis set group =>   1
Atom   3C    basis set group =>   1
Atom   4C    basis set group =>   1
Atom   5C    basis set group =>   1
Atom   6C    basis set group =>   1
Atom   7C    basis set group =>   1
Atom   8H    basis set group =>   2
Atom   9H    basis set group =>   2
Atom  10C    basis set group =>   1
Atom  11H    basis set group =>   2
Atom  12H    basis set group =>   2
Atom  13C    basis set group =>   1
Atom  14H    basis set group =>   2
Atom  15H    basis set group =>   2
Atom  16C    basis set group =>   1
Atom  17H    basis set group =>   2
Atom  18H    basis set group =>   2
Atom  19C    basis set group =>   1
Atom  20H    basis set group =>   2
Atom  21H    basis set group =>   2
Atom  22C    basis set group =>   1
Atom  23H    basis set group =>   2
Atom  24H    basis set group =>   2
Atom  25C    basis set group =>   1
Atom  26H    basis set group =>   2
Atom  27H    basis set group =>   2
Atom  28C    basis set group =>   1
Atom  29H    basis set group =>   2
Atom  30H    basis set group =>   2
Atom  31C    basis set group =>   1
Atom  32H    basis set group =>   2
Atom  33H    basis set group =>   2
Atom  34C    basis set group =>   1
Atom  35H    basis set group =>   2
Atom  36H    basis set group =>   2
Atom  37C    basis set group =>   1
Atom  38C    basis set group =>   1
Atom  39C    basis set group =>   1
Atom  40C    basis set group =>   1
Atom  41C    basis set group =>   1
Atom  42C    basis set group =>   1
Atom  43H    basis set group =>   2
Atom  44H    basis set group =>   2
Atom  45H    basis set group =>   2
Atom  46H    basis set group =>   2
Atom  47H    basis set group =>   2
---------------------------------
AUXILIARY/C BASIS SET INFORMATION
---------------------------------
There are 2 groups of distinct atoms

 Group   1 Type C   : 17s13p12d2f contracted to 17s13p12d2f pattern {11111111111111111/1111111111111/111111111111/11}
 Group   2 Type H   : 15s6p1d contracted to 15s6p1d pattern {111111111111111/111111/1}

Atom   0C    basis set group =>   1
Atom   1C    basis set group =>   1
Atom   2C    basis set group =>   1
Atom   3C    basis set group =>   1
Atom   4C    basis set group =>   1
Atom   5C    basis set group =>   1
Atom   6C    basis set group =>   1
Atom   7C    basis set group =>   1
Atom   8H    basis set group =>   2
Atom   9H    basis set group =>   2
Atom  10C    basis set group =>   1
Atom  11H    basis set group =>   2
Atom  12H    basis set group =>   2
Atom  13C    basis set group =>   1
Atom  14H    basis set group =>   2
Atom  15H    basis set group =>   2
Atom  16C    basis set group =>   1
Atom  17H    basis set group =>   2
Atom  18H    basis set group =>   2
Atom  19C    basis set group =>   1
Atom  20H    basis set group =>   2
Atom  21H    basis set group =>   2
Atom  22C    basis set group =>   1
Atom  23H    basis set group =>   2
Atom  24H    basis set group =>   2
Atom  25C    basis set group =>   1
Atom  26H    basis set group =>   2
Atom  27H    basis set group =>   2
Atom  28C    basis set group =>   1
Atom  29H    basis set group =>   2
Atom  30H    basis set group =>   2
Atom  31C    basis set group =>   1
Atom  32H    basis set group =>   2
Atom  33H    basis set group =>   2
Atom  34C    basis set group =>   1
Atom  35H    basis set group =>   2
Atom  36H    basis set group =>   2
Atom  37C    basis set group =>   1
Atom  38C    basis set group =>   1
Atom  39C    basis set group =>   1
Atom  40C    basis set group =>   1
Atom  41C    basis set group =>   1
Atom  42C    basis set group =>   1
Atom  43H    basis set group =>   2
Atom  44H    basis set group =>   2
Atom  45H    basis set group =>   2
Atom  46H    basis set group =>   2
Atom  47H    basis set group =>   2
----------------------------------
AUXILIARY/JK BASIS SET INFORMATION
----------------------------------
There are 2 groups of distinct atoms

 Group   1 Type C   : 17s13p12d2f contracted to 17s13p12d2f pattern {11111111111111111/1111111111111/111111111111/11}
 Group   2 Type H   : 15s6p1d contracted to 15s6p1d pattern {111111111111111/111111/1}

Atom   0C    basis set group =>   1
Atom   1C    basis set group =>   1
Atom   2C    basis set group =>   1
Atom   3C    basis set group =>   1
Atom   4C    basis set group =>   1
Atom   5C    basis set group =>   1
Atom   6C    basis set group =>   1
Atom   7C    basis set group =>   1
Atom   8H    basis set group =>   2
Atom   9H    basis set group =>   2
Atom  10C    basis set group =>   1
Atom  11H    basis set group =>   2
Atom  12H    basis set group =>   2
Atom  13C    basis set group =>   1
Atom  14H    basis set group =>   2
Atom  15H    basis set group =>   2
Atom  16C    basis set group =>   1
Atom  17H    basis set group =>   2
Atom  18H    basis set group =>   2
Atom  19C    basis set group =>   1
Atom  20H    basis set group =>   2
Atom  21H    basis set group =>   2
Atom  22C    basis set group =>   1
Atom  23H    basis set group =>   2
Atom  24H    basis set group =>   2
Atom  25C    basis set group =>   1
Atom  26H    basis set group =>   2
Atom  27H    basis set group =>   2
Atom  28C    basis set group =>   1
Atom  29H    basis set group =>   2
Atom  30H    basis set group =>   2
Atom  31C    basis set group =>   1
Atom  32H    basis set group =>   2
Atom  33H    basis set group =>   2
Atom  34C    basis set group =>   1
Atom  35H    basis set group =>   2
Atom  36H    basis set group =>   2
Atom  37C    basis set group =>   1
Atom  38C    basis set group =>   1
Atom  39C    basis set group =>   1
Atom  40C    basis set group =>   1
Atom  41C    basis set group =>   1
Atom  42C    basis set group =>   1
Atom  43H    basis set group =>   2
Atom  44H    basis set group =>   2
Atom  45H    basis set group =>   2
Atom  46H    basis set group =>   2
Atom  47H    basis set group =>   2

Checking for AutoStart:
The File: EPRII.gbw exists
Trying to determine its content:
     ... Fine, the file contains calculation information
     ... Fine, the calculation information was read
     ... Fine, the file contains a basis set
     ... Fine, the basis set was read
     ... Fine, the file contains a geometry
     ... Fine, the geometry was read
     ... Fine, the file contains a set of orbitals
     ... Fine, the orbitals can be read
     => possible old guess file was deleted
     => GBW file was renamed to GES file
     => GES file is set as startup file
     => Guess is set to MORead
     ... now leaving AutoStart



           ************************************************************
           *        Program running with 16 parallel MPI-processes    *
           *              working on a common directory               *
           ************************************************************
------------------------------------------------------------------------------
                           ORCA GTO INTEGRAL CALCULATION
                           -- RI-GTO INTEGRALS CHOSEN --
------------------------------------------------------------------------------
------------------------------------------------------------------------------
                   ___                                                        
                  /   \      - P O W E R E D   B Y -                         
                 /     \                                                     
                 |  |  |   _    _      __       _____    __    __             
                 |  |  |  | |  | |    /  \     |  _  \  |  |  /  |          
                  \  \/   | |  | |   /    \    | | | |  |  | /  /          
                 / \  \   | |__| |  /  /\  \   | |_| |  |  |/  /          
                |  |  |   |  __  | /  /__\  \  |    /   |      \           
                |  |  |   | |  | | |   __   |  |    \   |  |\   \          
                \     /   | |  | | |  |  |  |  | |\  \  |  | \   \       
                 \___/    |_|  |_| |__|  |__|  |_| \__\ |__|  \__/        
                                                                              
                      - O R C A' S   B I G   F R I E N D -                    
                                      &                                       
                       - I N T E G R A L  F E E D E R -                       
                                                                              
 v1 FN, 2020, v2 2021                                                         
------------------------------------------------------------------------------


Reading SHARK input file EPRII.SHARKINP.tmp ... ok
----------------------
SHARK INTEGRAL PACKAGE
----------------------

Number of atoms                             ...     48
Number of basis functions                   ...    566
Number of shells                            ...    332
Maximum angular momentum                    ...      2
Integral batch strategy                     ... SHARK/LIBINT Hybrid
RI-J (if used) integral strategy            ... SPLIT-RIJ (Revised 2003 algorithm where possible)
Printlevel                                  ...      1
Contraction scheme used                     ... SEGMENTED contraction
Coulomb Range Separation                    ... NOT USED
Exchange Range Separation                   ... NOT USED
Finite Nucleus Model                        ... NOT USED
Auxiliary Coulomb fitting basis             ... AVAILABLE
   # of basis functions in Aux-J            ...   3940
   # of shells in Aux-J                     ...   1562
   Maximum angular momentum in Aux-J        ...      3
Auxiliary J/K fitting basis                 ... AVAILABLE
   # of basis functions in Aux-JK           ...   3940
   # of shells in Aux-JK                    ...   1562
   Maximum angular momentum in Aux-JK       ...      3
Auxiliary Correlation fitting basis         ... AVAILABLE
   # of basis functions in Aux-C            ...   3940
   # of shells in Aux-C                     ...   1562
   Maximum angular momentum in Aux-C        ...      3
Auxiliary 'external' fitting basis          ... NOT available
Integral threshold                          ...     1.000000e-10
Primitive cut-off                           ...     1.000000e-11
Primitive pair pre-selection threshold      ...     1.000000e-11

Calculating pre-screening integrals         ... done (  0.0 sec) Dimension = 332
Organizing shell pair data                  ... done (  0.2 sec)
Shell pair information
Total number of shell pairs                 ...     55278
Shell pairs after pre-screening             ...     28144
Total number of primitive shell pairs       ...    148139
Primitive shell pairs kept                  ...     53049
          la=0 lb=0:  12944 shell pairs
          la=1 lb=0:   9692 shell pairs
          la=1 lb=1:   1734 shell pairs
          la=2 lb=0:   2627 shell pairs
          la=2 lb=1:    995 shell pairs
          la=2 lb=2:    152 shell pairs

Calculating one electron integrals          ... done (  0.0 sec)
Calculating RI/J V-Matrix + Cholesky decomp.... done (  1.0 sec)
Calculating RI/JK V-Matrix + Cholesky decomp... done (  1.2 sec)
Calculating RI/C V-Matrix + Cholesky decomp.... done (  1.0 sec)
Calculating Nuclear repulsion               ... done (  0.0 sec) ENN=   1629.446539159833 Eh

SHARK setup successfully completed in   4.0 seconds

Maximum memory used throughout the entire GTOINT-calculation: 56.4 MB


           ************************************************************
           *        Program running with 16 parallel MPI-processes    *
           *              working on a common directory               *
           ************************************************************
-------------------------------------------------------------------------------
                                 ORCA SCF
-------------------------------------------------------------------------------

------------
SCF SETTINGS
------------
Hamiltonian:
 Density Functional     Method          .... DFT(GTOs)
 Exchange Functional    Exchange        .... B88
   X-Alpha parameter    XAlpha          ....  0.666667
   Becke's b parameter  XBeta           ....  0.004200
 Correlation Functional Correlation     .... LYP
 LDA part of GGA corr.  LDAOpt          .... VWN-5
 Gradients option       PostSCFGGA      .... off
 Hybrid DFT is turned on
   Fraction HF Exchange ScalHFX         ....  0.200000
   Scaling of DF-GGA-X  ScalDFX         ....  0.720000
   Scaling of DF-GGA-C  ScalDFC         ....  0.810000
   Scaling of DF-LDA-C  ScalLDAC        ....  1.000000
   Perturbative correction              ....  0.000000
   Density functional embedding theory  .... OFF
   NL short-range parameter             ....  4.800000
 RI-approximation to the Coulomb term is turned on
   Number of AuxJ basis functions       .... 3940
   RIJ-COSX (HFX calculated with COS-X)).... on


General Settings:
 Integral files         IntName         .... EPRII
 Hartree-Fock type      HFTyp           .... UHF
 Total Charge           Charge          ....    0
 Multiplicity           Mult            ....    2
 Number of Electrons    NEL             ....  163
 Basis Dimension        Dim             ....  566
 Nuclear Repulsion      ENuc            ....   1629.4465391598 Eh

Convergence Acceleration:
 DIIS                   CNVDIIS         .... on
   Start iteration      DIISMaxIt       ....    12
   Startup error        DIISStart       ....  0.200000
   # of expansion vecs  DIISMaxEq       ....     5
   Bias factor          DIISBfac        ....   1.050
   Max. coefficient     DIISMaxC        ....  10.000
 Trust-Rad. Augm. Hess. CNVTRAH         .... auto
   Auto Start mean grad. ratio tolernc. ....  1.125000
   Auto Start start iteration           ....     1
   Auto Start num. interpolation iter.  ....    10
   Max. Number of Micro iterations      ....    16
   Max. Number of Macro iterations      .... Maxiter - #DIIS iter
   Number of Davidson start vectors     ....     2
   Converg. threshold I  (grad. norm)   ....   5.000e-05
   Converg. threshold II (energy diff.) ....   1.000e-06
   Grad. Scal. Fac. for Micro threshold ....   0.100
   Minimum threshold for Micro iter.    ....   0.010
   NR start threshold (gradient norm)   ....   0.001
   Initial trust radius                 ....   0.400
   Minimum AH scaling param. (alpha)    ....   1.000
   Maximum AH scaling param. (alpha)    .... 1000.000
   Orbital update algorithm             .... Taylor
   White noise on init. David. guess    .... on
   Maximum white noise                  ....   0.010
   Quad. conv. algorithm                .... NR
 SOSCF                  CNVSOSCF        .... off
 Level Shifting         CNVShift        .... on
   Level shift para.    LevelShift      ....    0.2500
   Turn off err/grad.   ShiftErr        ....    0.0010
 Zerner damping         CNVZerner       .... off
 Static damping         CNVDamp         .... on
   Fraction old density DampFac         ....    0.7000
   Max. Damping (<1)    DampMax         ....    0.9800
   Min. Damping (>=0)   DampMin         ....    0.0000
   Turn off err/grad.   DampErr         ....    0.1000
 Fernandez-Rico         CNVRico         .... off

SCF Procedure:
 Maximum # iterations   MaxIter         ....   125
 SCF integral mode      SCFMode         .... Direct
   Integral package                     .... SHARK and LIBINT hybrid scheme
 Reset frequency        DirectResetFreq ....    20
 Integral Threshold     Thresh          ....  1.000e-10 Eh
 Primitive CutOff       TCut            ....  1.000e-11 Eh

Convergence Tolerance:
 Convergence Check Mode ConvCheckMode   .... Total+1el-Energy
 Convergence forced     ConvForced      .... 0
 Energy Change          TolE            ....  1.000e-06 Eh
 1-El. energy change                    ....  1.000e-03 Eh
 DIIS Error             TolErr          ....  1.000e-06


Diagonalization of the overlap matrix:
Smallest eigenvalue                        ... 7.359e-05
Time for diagonalization                   ...    0.059 sec
Threshold for overlap eigenvalues          ... 1.000e-08
Number of eigenvalues below threshold      ... 0
Time for construction of square roots      ...    0.059 sec
Total time needed                          ...    0.120 sec

---------------------
INITIAL GUESS: MOREAD
---------------------
Guess MOs are being read from file: EPRII.ges
Input Geometry matches current geometry (good)
Input basis set matches current basis set (good)
MOs were renormalized
MOs were reorthogonalized (Cholesky)
                      ------------------
                      INITIAL GUESS DONE (   0.3 sec)
                      ------------------
-------------------
DFT GRID GENERATION
-------------------

General Integration Accuracy     IntAcc      ... 4.388
Radial Grid Type                 RadialGrid  ... OptM3 with GC (2021)
Angular Grid (max. ang.)         AngularGrid ... 4 (Lebedev-302)
Angular grid pruning method      GridPruning ... 4 (adaptive)
Weight generation scheme         WeightScheme... Becke
Basis function cutoff            BFCut       ... 1.0000e-10
Integration weight cutoff        WCut        ... 1.0000e-14
Angular grids for H and He will be reduced by one unit
Partially contracted basis set               ... off
Rotationally invariant grid construction     ... off

Total number of grid points                  ...   217077
Total number of batches                      ...     3415
Average number of points per batch           ...       63
Average number of grid points per atom       ...     4522
Time for grid setup =    1.356 sec

--------------------
COSX GRID GENERATION
--------------------

GRIDX 1
-------
General Integration Accuracy     IntAcc      ... 3.816
Radial Grid Type                 RadialGrid  ... OptM3 with GC (2021)
Angular Grid (max. ang.)         AngularGrid ... 1 (Lebedev-50)
Angular grid pruning method      GridPruning ... 4 (adaptive)
Weight generation scheme         WeightScheme... Becke
Basis function cutoff            BFCut       ... 1.0000e-10
Integration weight cutoff        WCut        ... 1.0000e-14
Angular grids for H and He will be reduced by one unit
Partially contracted basis set               ... on
Rotationally invariant grid construction     ... off

Total number of grid points                  ...    27664
Total number of batches                      ...      458
Average number of points per batch           ...       60
Average number of grid points per atom       ...      576
UseSFitting                                  ... on

GRIDX 2
-------
General Integration Accuracy     IntAcc      ... 4.020
Radial Grid Type                 RadialGrid  ... OptM3 with GC (2021)
Angular Grid (max. ang.)         AngularGrid ... 2 (Lebedev-110)
Angular grid pruning method      GridPruning ... 4 (adaptive)
Weight generation scheme         WeightScheme... Becke
Basis function cutoff            BFCut       ... 1.0000e-10
Integration weight cutoff        WCut        ... 1.0000e-14
Angular grids for H and He will be reduced by one unit
Partially contracted basis set               ... on
Rotationally invariant grid construction     ... off

Total number of grid points                  ...    58871
Total number of batches                      ...      945
Average number of points per batch           ...       62
Average number of grid points per atom       ...     1226
UseSFitting                                  ... on

GRIDX 3
-------
General Integration Accuracy     IntAcc      ... 4.338
Radial Grid Type                 RadialGrid  ... OptM3 with GC (2021)
Angular Grid (max. ang.)         AngularGrid ... 3 (Lebedev-194)
Angular grid pruning method      GridPruning ... 4 (adaptive)
Weight generation scheme         WeightScheme... Becke
Basis function cutoff            BFCut       ... 1.0000e-10
Integration weight cutoff        WCut        ... 1.0000e-14
Angular grids for H and He will be reduced by one unit
Partially contracted basis set               ... on
Rotationally invariant grid construction     ... off

Total number of grid points                  ...   128758
Total number of batches                      ...     2038
Average number of points per batch           ...       63
Average number of grid points per atom       ...     2682
UseSFitting                                  ... on

Time for X-Grid setup             =    2.568 sec

--------------
SCF ITERATIONS
--------------
ITER       Energy         Delta-E        Max-DP      RMS-DP      [F,P]     Damp
               ***  Starting incremental Fock matrix formation  ***
  0   -890.8193113550   0.000000000000 0.00023932  0.00000083  0.0000366 0.7000
                 **** Energy Check signals convergence ****

               *****************************************************
               *                     SUCCESS                       *
               *           SCF CONVERGED AFTER   1 CYCLES          *
               *****************************************************

Old exchange energy                            =    -25.567700276 Eh
New exchange energy                            =    -25.567684860 Eh
Exchange energy change after final integration =      0.000015416 Eh
Total energy after final integration           =   -890.819295963 Eh
Final COS-X integration done in                =     9.147 sec

----------------
TOTAL SCF ENERGY
----------------

Total Energy       :         -890.81929596 Eh          -24240.42540 eV

Components:
Nuclear Repulsion  :         1629.44653916 Eh           44339.49451 eV
Electronic Energy  :        -2520.26583512 Eh          -68579.91991 eV
One Electron Energy:        -4436.01304377 Eh         -120710.05170 eV
Two Electron Energy:         1915.74720865 Eh           52130.13179 eV
Max COSX asymmetry :            0.00000520 Eh               0.00014 eV

Virial components:
Potential Energy   :        -1774.67771884 Eh          -48291.43582 eV
Kinetic Energy     :          883.85842288 Eh           24051.01042 eV
Virial Ratio       :            2.00787555


DFT components:
N(Alpha)           :       82.000169763326 electrons
N(Beta)            :       81.000168147811 electrons
N(Total)           :      163.000337911138 electrons
E(X)               :     -101.415114128900 Eh       
E(C)               :       -6.328589141894 Eh       
E(XC)              :     -107.743703270794 Eh       
DFET-embed. en.    :        0.000000000000 Eh       

---------------
SCF CONVERGENCE
---------------

  Last Energy change         ...   -2.3997e-08  Tolerance :   1.0000e-06
  Last MAX-Density change    ...    6.1537e-05  Tolerance :   1.0000e-05
  Last RMS-Density change    ...    2.1681e-07  Tolerance :   1.0000e-06
  Last DIIS Error            ...    2.2181e-05  Tolerance :   1.0000e-06

             **** THE GBW FILE WAS UPDATED (EPRII.gbw) ****
             **** DENSITY EPRII.scfp WAS UPDATED ****
             **** ENERGY FILE WAS UPDATED (EPRII.en.tmp) ****
----------------------
UHF SPIN CONTAMINATION
----------------------

Warning: in a DFT calculation there is little theoretical justification to 
         calculate <S**2> as in Hartree-Fock theory. We will do it anyways
         but you should keep in mind that the values have only limited relevance

Expectation value of <S**2>     :     0.756871
Ideal value S*(S+1) for S=0.5   :     0.750000
Deviation                       :     0.006871

             **** THE GBW FILE WAS UPDATED (EPRII.gbw) ****
             **** DENSITY EPRII.scfp WAS UPDATED ****
----------------
ORBITAL ENERGIES
----------------
                 SPIN UP ORBITALS
  NO   OCC          E(Eh)            E(eV) 
   0   1.0000     -10.252396      -278.9819 
   1   1.0000     -10.244344      -278.7628 
   2   1.0000     -10.228319      -278.3267 
   3   1.0000     -10.227888      -278.3150 
   4   1.0000     -10.222421      -278.1662 
   5   1.0000     -10.222307      -278.1631 
   6   1.0000     -10.221633      -278.1448 
   7   1.0000     -10.221573      -278.1431 
   8   1.0000     -10.220849      -278.1235 
   9   1.0000     -10.219189      -278.0783 
  10   1.0000     -10.219085      -278.0754 
  11   1.0000     -10.215027      -277.9650 
  12   1.0000     -10.210446      -277.8404 
  13   1.0000     -10.196162      -277.4517 
  14   1.0000     -10.190624      -277.3010 
  15   1.0000     -10.189444      -277.2689 
  16   1.0000     -10.188297      -277.2377 
  17   1.0000     -10.187415      -277.2137 
  18   1.0000     -10.184112      -277.1238 
  19   1.0000     -10.182611      -277.0829 
  20   1.0000     -10.178374      -276.9676 
  21   1.0000     -10.176234      -276.9094 
  22   1.0000     -10.173818      -276.8437 
  23   1.0000      -0.882839       -24.0233 
  24   1.0000      -0.879000       -23.9188 
  25   1.0000      -0.823574       -22.4106 
  26   1.0000      -0.809054       -22.0155 
  27   1.0000      -0.795691       -21.6519 
  28   1.0000      -0.787691       -21.4342 
  29   1.0000      -0.771879       -21.0039 
  30   1.0000      -0.767110       -20.8741 
  31   1.0000      -0.743168       -20.2226 
  32   1.0000      -0.732672       -19.9370 
  33   1.0000      -0.704166       -19.1613 
  34   1.0000      -0.676618       -18.4117 
  35   1.0000      -0.655966       -17.8497 
  36   1.0000      -0.636184       -17.3114 
  37   1.0000      -0.625232       -17.0134 
  38   1.0000      -0.624886       -17.0040 
  39   1.0000      -0.597958       -16.2713 
  40   1.0000      -0.581910       -15.8346 
  41   1.0000      -0.567060       -15.4305 
  42   1.0000      -0.558296       -15.1920 
  43   1.0000      -0.536249       -14.5921 
  44   1.0000      -0.519619       -14.1395 
  45   1.0000      -0.496729       -13.5167 
  46   1.0000      -0.483822       -13.1655 
  47   1.0000      -0.476403       -12.9636 
  48   1.0000      -0.473177       -12.8758 
  49   1.0000      -0.471290       -12.8245 
  50   1.0000      -0.452481       -12.3126 
  51   1.0000      -0.441733       -12.0202 
  52   1.0000      -0.440656       -11.9908 
  53   1.0000      -0.428885       -11.6706 
  54   1.0000      -0.428700       -11.6655 
  55   1.0000      -0.425724       -11.5845 
  56   1.0000      -0.419346       -11.4110 
  57   1.0000      -0.413932       -11.2637 
  58   1.0000      -0.410582       -11.1725 
  59   1.0000      -0.399064       -10.8591 
  60   1.0000      -0.383123       -10.4253 
  61   1.0000      -0.378040       -10.2870 
  62   1.0000      -0.376060       -10.2331 
  63   1.0000      -0.368912       -10.0386 
  64   1.0000      -0.367532       -10.0011 
  65   1.0000      -0.365039        -9.9332 
  66   1.0000      -0.360664        -9.8142 
  67   1.0000      -0.349093        -9.4993 
  68   1.0000      -0.336284        -9.1507 
  69   1.0000      -0.332202        -9.0397 
  70   1.0000      -0.331673        -9.0253 
  71   1.0000      -0.328499        -8.9389 
  72   1.0000      -0.327079        -8.9003 
  73   1.0000      -0.323482        -8.8024 
  74   1.0000      -0.322413        -8.7733 
  75   1.0000      -0.290607        -7.9078 
  76   1.0000      -0.288226        -7.8430 
  77   1.0000      -0.274635        -7.4732 
  78   1.0000      -0.258509        -7.0344 
  79   1.0000      -0.249620        -6.7925 
  80   1.0000      -0.236094        -6.4244 
  81   1.0000      -0.163187        -4.4405 
  82   0.0000      -0.113686        -3.0935 
  83   0.0000      -0.044759        -1.2180 
  84   0.0000      -0.029341        -0.7984 
  85   0.0000      -0.011142        -0.3032 
  86   0.0000       0.004975         0.1354 
  87   0.0000       0.017567         0.4780 
  88   0.0000       0.020143         0.5481 
  89   0.0000       0.022201         0.6041 
  90   0.0000       0.025460         0.6928 
  91   0.0000       0.028073         0.7639 
  92   0.0000       0.030776         0.8374 
  93   0.0000       0.035308         0.9608 
  94   0.0000       0.044353         1.2069 
  95   0.0000       0.047456         1.2913 
  96   0.0000       0.052904         1.4396 
  97   0.0000       0.060431         1.6444 
  98   0.0000       0.069328         1.8865 
  99   0.0000       0.077292         2.1032 
 100   0.0000       0.079593         2.1658 
 101   0.0000       0.081603         2.2205 
 102   0.0000       0.090737         2.4691 
 103   0.0000       0.100317         2.7298 
 104   0.0000       0.104615         2.8467 
 105   0.0000       0.111932         3.0458 
 106   0.0000       0.119009         3.2384 
 107   0.0000       0.130067         3.5393 
 108   0.0000       0.133604         3.6356 
 109   0.0000       0.146634         3.9901 
 110   0.0000       0.149131         4.0581 
 111   0.0000       0.155107         4.2207 
 112   0.0000       0.161163         4.3855 
 113   0.0000       0.173054         4.7090 
 114   0.0000       0.174598         4.7511 
 115   0.0000       0.175332         4.7710 
 116   0.0000       0.186384         5.0718 
 117   0.0000       0.186578         5.0771 
 118   0.0000       0.191216         5.2032 
 119   0.0000       0.195431         5.3179 
 120   0.0000       0.197773         5.3817 
 121   0.0000       0.198131         5.3914 
 122   0.0000       0.204111         5.5541 
 123   0.0000       0.207538         5.6474 
 124   0.0000       0.209221         5.6932 
 125   0.0000       0.212388         5.7794 
 126   0.0000       0.213687         5.8147 
 127   0.0000       0.215452         5.8627 
 128   0.0000       0.228510         6.2181 
 129   0.0000       0.231984         6.3126 
 130   0.0000       0.233568         6.3557 
 131   0.0000       0.239891         6.5278 
 132   0.0000       0.243056         6.6139 
 133   0.0000       0.244519         6.6537 
 134   0.0000       0.250758         6.8235 
 135   0.0000       0.251350         6.8396 
 136   0.0000       0.256306         6.9744 
 137   0.0000       0.264695         7.2027 
 138   0.0000       0.265840         7.2339 
 139   0.0000       0.268751         7.3131 
 140   0.0000       0.271135         7.3780 
 141   0.0000       0.273899         7.4532 
 142   0.0000       0.281129         7.6499 
 143   0.0000       0.281397         7.6572 
 144   0.0000       0.284355         7.7377 
 145   0.0000       0.286745         7.8027 
 146   0.0000       0.288687         7.8556 
 147   0.0000       0.295875         8.0512 
 148   0.0000       0.296114         8.0577 
 149   0.0000       0.299496         8.1497 
 150   0.0000       0.300993         8.1904 
 151   0.0000       0.303615         8.2618 
 152   0.0000       0.306324         8.3355 
 153   0.0000       0.308149         8.3852 
 154   0.0000       0.312899         8.5144 
 155   0.0000       0.314302         8.5526 
 156   0.0000       0.324197         8.8218 
 157   0.0000       0.324946         8.8422 
 158   0.0000       0.328155         8.9296 
 159   0.0000       0.331807         9.0289 
 160   0.0000       0.338656         9.2153 
 161   0.0000       0.340503         9.2656 
 162   0.0000       0.340715         9.2713 
 163   0.0000       0.359041         9.7700 
 164   0.0000       0.365845         9.9552 
 165   0.0000       0.368504        10.0275 
 166   0.0000       0.369344        10.0503 
 167   0.0000       0.369772        10.0620 
 168   0.0000       0.371923        10.1205 
 169   0.0000       0.379409        10.3242 
 170   0.0000       0.391221        10.6457 
 171   0.0000       0.393315        10.7027 
 172   0.0000       0.397976        10.8295 
 173   0.0000       0.401697        10.9307 
 174   0.0000       0.404378        11.0037 
 175   0.0000       0.407389        11.0856 
 176   0.0000       0.413968        11.2646 
 177   0.0000       0.416994        11.3470 
 178   0.0000       0.418552        11.3894 
 179   0.0000       0.424041        11.5387 
 180   0.0000       0.427317        11.6279 
 181   0.0000       0.433170        11.7871 
 182   0.0000       0.434159        11.8141 
 183   0.0000       0.436498        11.8777 
 184   0.0000       0.441076        12.0023 
 185   0.0000       0.448436        12.2026 
 186   0.0000       0.452889        12.3237 
 187   0.0000       0.457345        12.4450 
 188   0.0000       0.467147        12.7117 
 189   0.0000       0.471058        12.8182 
 190   0.0000       0.471440        12.8285 
 191   0.0000       0.475342        12.9347 
 192   0.0000       0.480033        13.0624 
 193   0.0000       0.485047        13.1988 
 194   0.0000       0.488710        13.2985 
 195   0.0000       0.500745        13.6260 
 196   0.0000       0.506277        13.7765 
 197   0.0000       0.510303        13.8860 
 198   0.0000       0.516690        14.0598 
 199   0.0000       0.524607        14.2753 
 200   0.0000       0.533207        14.5093 
 201   0.0000       0.536323        14.5941 
 202   0.0000       0.545033        14.8311 
 203   0.0000       0.548072        14.9138 
 204   0.0000       0.550132        14.9699 
 205   0.0000       0.559722        15.2308 
 206   0.0000       0.564003        15.3473 
 207   0.0000       0.564390        15.3578 
 208   0.0000       0.570053        15.5119 
 209   0.0000       0.574655        15.6372 
 210   0.0000       0.591779        16.1031 
 211   0.0000       0.595426        16.2024 
 212   0.0000       0.598032        16.2733 
 213   0.0000       0.613946        16.7063 
 214   0.0000       0.628619        17.1056 
 215   0.0000       0.635572        17.2948 
 216   0.0000       0.647112        17.6088 
 217   0.0000       0.653439        17.7810 
 218   0.0000       0.654299        17.8044 
 219   0.0000       0.664048        18.0697 
 220   0.0000       0.670602        18.2480 
 221   0.0000       0.674443        18.3525 
 222   0.0000       0.696280        18.9467 
 223   0.0000       0.702444        19.1145 
 224   0.0000       0.713507        19.4155 
 225   0.0000       0.745802        20.2943 
 226   0.0000       0.760531        20.6951 
 227   0.0000       0.763213        20.7681 
 228   0.0000       0.772510        21.0211 
 229   0.0000       0.774986        21.0884 
 230   0.0000       0.797571        21.7030 
 231   0.0000       0.806676        21.9508 
 232   0.0000       0.818946        22.2847 
 233   0.0000       0.828067        22.5328 
 234   0.0000       0.836799        22.7705 
 235   0.0000       0.842346        22.9214 
 236   0.0000       0.844753        22.9869 
 237   0.0000       0.846124        23.0242 
 238   0.0000       0.855460        23.2782 
 239   0.0000       0.858183        23.3523 
 240   0.0000       0.862845        23.4792 
 241   0.0000       0.877680        23.8829 
 242   0.0000       0.885530        24.0965 
 243   0.0000       0.890984        24.2449 
 244   0.0000       0.893326        24.3086 
 245   0.0000       0.894920        24.3520 
 246   0.0000       0.905784        24.6476 
 247   0.0000       0.908896        24.7323 
 248   0.0000       0.914367        24.8812 
 249   0.0000       0.918701        24.9991 
 250   0.0000       0.923525        25.1304 
 251   0.0000       0.927971        25.2514 
 252   0.0000       0.929456        25.2918 
 253   0.0000       0.930468        25.3193 
 254   0.0000       0.940265        25.5859 
 255   0.0000       0.943009        25.6606 
 256   0.0000       0.948736        25.8164 
 257   0.0000       0.956464        26.0267 
 258   0.0000       0.965231        26.2653 
 259   0.0000       0.966202        26.2917 
 260   0.0000       0.969028        26.3686 
 261   0.0000       0.973278        26.4843 
 262   0.0000       0.976870        26.5820 
 263   0.0000       0.981783        26.7157 
 264   0.0000       0.982483        26.7347 
 265   0.0000       0.989568        26.9275 
 266   0.0000       0.992719        27.0132 
 267   0.0000       1.003033        27.2939 
 268   0.0000       1.008071        27.4310 
 269   0.0000       1.016391        27.6574 
 270   0.0000       1.021197        27.7882 
 271   0.0000       1.024196        27.8698 
 272   0.0000       1.030972        28.0542 
 273   0.0000       1.036806        28.2129 
 274   0.0000       1.042912        28.3791 
 275   0.0000       1.058541        28.8044 
 276   0.0000       1.059341        28.8261 
 277   0.0000       1.061870        28.8949 
 278   0.0000       1.075110        29.2552 
 279   0.0000       1.086650        29.5692 
 280   0.0000       1.088861        29.6294 
 281   0.0000       1.101829        29.9823 
 282   0.0000       1.103502        30.0278 
 283   0.0000       1.104426        30.0530 
 284   0.0000       1.116686        30.3866 
 285   0.0000       1.122386        30.5417 
 286   0.0000       1.136587        30.9281 
 287   0.0000       1.154046        31.4032 
 288   0.0000       1.154583        31.4178 
 289   0.0000       1.171731        31.8844 
 290   0.0000       1.177013        32.0282 
 291   0.0000       1.178127        32.0585 
 292   0.0000       1.180582        32.1253 
 293   0.0000       1.199513        32.6404 
 294   0.0000       1.203270        32.7426 
 295   0.0000       1.205372        32.7999 
 296   0.0000       1.218516        33.1575 
 297   0.0000       1.223111        33.2825 
 298   0.0000       1.234849        33.6019 
 299   0.0000       1.239148        33.7189 
 300   0.0000       1.241608        33.7859 
 301   0.0000       1.258690        34.2507 
 302   0.0000       1.282114        34.8881 
 303   0.0000       1.286203        34.9994 
 304   0.0000       1.290462        35.1153 
 305   0.0000       1.294904        35.2361 
 306   0.0000       1.304824        35.5061 
 307   0.0000       1.318027        35.8653 
 308   0.0000       1.322695        35.9924 
 309   0.0000       1.332911        36.2704 
 310   0.0000       1.338410        36.4200 
 311   0.0000       1.353125        36.8204 
 312   0.0000       1.357939        36.9514 
 313   0.0000       1.363155        37.0933 
 314   0.0000       1.371153        37.3110 
 315   0.0000       1.381083        37.5812 
 316   0.0000       1.391270        37.8584 
 317   0.0000       1.417186        38.5636 
 318   0.0000       1.419911        38.6377 
 319   0.0000       1.423917        38.7468 
 320   0.0000       1.424700        38.7681 
 321   0.0000       1.427149        38.8347 
 322   0.0000       1.428927        38.8831 
 323   0.0000       1.437857        39.1261 
 324   0.0000       1.438393        39.1407 
 325   0.0000       1.446731        39.3676 
 326   0.0000       1.459890        39.7256 
 327   0.0000       1.478815        40.2406 
 328   0.0000       1.482900        40.3518 
 329   0.0000       1.488027        40.4913 
 330   0.0000       1.489950        40.5436 
 331   0.0000       1.496726        40.7280 
 332   0.0000       1.505312        40.9616 
 333   0.0000       1.512788        41.1651 
 334   0.0000       1.513222        41.1769 
 335   0.0000       1.538580        41.8669 
 336   0.0000       1.548084        42.1255 
 337   0.0000       1.552817        42.2543 
 338   0.0000       1.554751        42.3069 
 339   0.0000       1.556637        42.3582 
 340   0.0000       1.558699        42.4144 
 341   0.0000       1.573236        42.8099 
 342   0.0000       1.578242        42.9461 
 343   0.0000       1.590115        43.2692 
 344   0.0000       1.597375        43.4668 
 345   0.0000       1.601424        43.5770 
 346   0.0000       1.603741        43.6400 
 347   0.0000       1.610832        43.8330 
 348   0.0000       1.611601        43.8539 
 349   0.0000       1.617321        44.0095 
 350   0.0000       1.622009        44.1371 
 351   0.0000       1.625597        44.2348 
 352   0.0000       1.628760        44.3208 
 353   0.0000       1.630772        44.3756 
 354   0.0000       1.636968        44.5442 
 355   0.0000       1.647008        44.8174 
 356   0.0000       1.667105        45.3642 
 357   0.0000       1.670561        45.4583 
 358   0.0000       1.672598        45.5137 
 359   0.0000       1.673003        45.5247 
 360   0.0000       1.683418        45.8081 
 361   0.0000       1.685385        45.8617 
 362   0.0000       1.698557        46.2201 
 363   0.0000       1.701017        46.2870 
 364   0.0000       1.707822        46.4722 
 365   0.0000       1.709544        46.5191 
 366   0.0000       1.724052        46.9138 
 367   0.0000       1.731176        47.1077 
 368   0.0000       1.738497        47.3069 
 369   0.0000       1.743753        47.4499 
 370   0.0000       1.755162        47.7604 
 371   0.0000       1.755954        47.7819 
 372   0.0000       1.758248        47.8444 
 373   0.0000       1.763584        47.9896 
 374   0.0000       1.770934        48.1896 
 375   0.0000       1.771563        48.2067 
 376   0.0000       1.779839        48.4319 
 377   0.0000       1.785170        48.5769 
 378   0.0000       1.794599        48.8335 
 379   0.0000       1.794826        48.8397 
 380   0.0000       1.803200        49.0676 
 381   0.0000       1.819993        49.5245 
 382   0.0000       1.825050        49.6621 
 383   0.0000       1.837418        49.9987 
 384   0.0000       1.843617        50.1674 
 385   0.0000       1.845260        50.2121 
 386   0.0000       1.851541        50.3830 
 387   0.0000       1.876162        51.0530 
 388   0.0000       1.898500        51.6608 
 389   0.0000       1.902632        51.7732 
 390   0.0000       1.914576        52.0983 
 391   0.0000       1.920726        52.2656 
 392   0.0000       1.927422        52.4478 
 393   0.0000       1.941592        52.8334 
 394   0.0000       1.947935        53.0060 
 395   0.0000       1.957922        53.2778 
 396   0.0000       1.959555        53.3222 
 397   0.0000       1.960367        53.3443 
 398   0.0000       1.982861        53.9564 
 399   0.0000       2.011115        54.7252 
 400   0.0000       2.027205        55.1631 
 401   0.0000       2.032644        55.3110 
 402   0.0000       2.048206        55.7345 
 403   0.0000       2.049172        55.7608 
 404   0.0000       2.062669        56.1281 
 405   0.0000       2.079079        56.5746 
 406   0.0000       2.090666        56.8899 
 407   0.0000       2.096122        57.0384 
 408   0.0000       2.130234        57.9666 
 409   0.0000       2.134790        58.0906 
 410   0.0000       2.136365        58.1334 
 411   0.0000       2.158443        58.7342 
 412   0.0000       2.159371        58.7595 
 413   0.0000       2.179893        59.3179 
 414   0.0000       2.209597        60.1262 
 415   0.0000       2.211641        60.1818 
 416   0.0000       2.228898        60.6514 
 417   0.0000       2.237038        60.8729 
 418   0.0000       2.249839        61.2212 
 419   0.0000       2.250518        61.2397 
 420   0.0000       2.256578        61.4046 
 421   0.0000       2.264954        61.6325 
 422   0.0000       2.300688        62.6049 
 423   0.0000       2.306181        62.7544 
 424   0.0000       2.310839        62.8811 
 425   0.0000       2.318982        63.1027 
 426   0.0000       2.320813        63.1525 
 427   0.0000       2.321437        63.1695 
 428   0.0000       2.344769        63.8044 
 429   0.0000       2.348087        63.8947 
 430   0.0000       2.382890        64.8417 
 431   0.0000       2.387126        64.9570 
 432   0.0000       2.397452        65.2380 
 433   0.0000       2.405351        65.4529 
 434   0.0000       2.412880        65.6578 
 435   0.0000       2.418581        65.8129 
 436   0.0000       2.433038        66.2063 
 437   0.0000       2.448776        66.6346 
 438   0.0000       2.448902        66.6380 
 439   0.0000       2.454106        66.7796 
 440   0.0000       2.455369        66.8140 
 441   0.0000       2.470197        67.2175 
 442   0.0000       2.476772        67.3964 
 443   0.0000       2.479525        67.4713 
 444   0.0000       2.492794        67.8324 
 445   0.0000       2.506641        68.2092 
 446   0.0000       2.512090        68.3574 
 447   0.0000       2.518860        68.5417 
 448   0.0000       2.520170        68.5773 
 449   0.0000       2.538972        69.0889 
 450   0.0000       2.544088        69.2282 
 451   0.0000       2.553519        69.4848 
 452   0.0000       2.567747        69.8719 
 453   0.0000       2.573671        70.0331 
 454   0.0000       2.583255        70.2939 
 455   0.0000       2.607644        70.9576 
 456   0.0000       2.609077        70.9966 
 457   0.0000       2.616572        71.2005 
 458   0.0000       2.627712        71.5037 
 459   0.0000       2.629796        71.5604 
 460   0.0000       2.661530        72.4239 
 461   0.0000       2.716872        73.9298 
 462   0.0000       2.731801        74.3361 
 463   0.0000       2.777037        75.5670 
 464   0.0000       2.782252        75.7089 
 465   0.0000       2.816160        76.6316 
 466   0.0000       2.926019        79.6210 
 467   0.0000       3.044788        82.8529 
 468   0.0000       3.232936        87.9727 
 469   0.0000       3.414474        92.9126 
 470   0.0000       4.980283       135.5204 
 471   0.0000       4.983775       135.6154 
 472   0.0000       4.997332       135.9843 
 473   0.0000       5.005616       136.2097 
 474   0.0000       5.008294       136.2826 
 475   0.0000       5.010370       136.3391 
 476   0.0000       5.016383       136.5027 
 477   0.0000       5.029271       136.8534 
 478   0.0000       5.033408       136.9660 
 479   0.0000       5.041972       137.1990 
 480   0.0000       5.046427       137.3202 
 481   0.0000       5.076440       138.1370 
 482   0.0000       5.082244       138.2949 
 483   0.0000       5.164827       140.5421 
 484   0.0000       5.184707       141.0831 
 485   0.0000       5.217356       141.9715 
 486   0.0000       5.230855       142.3388 
 487   0.0000       5.234064       142.4261 
 488   0.0000       5.242369       142.6521 
 489   0.0000       5.259485       143.1179 
 490   0.0000       5.281284       143.7110 
 491   0.0000       5.295599       144.1006 
 492   0.0000       5.299037       144.1941 
 493   0.0000       5.305117       144.3596 
 494   0.0000       5.308102       144.4408 
 495   0.0000       5.346090       145.4745 
 496   0.0000       5.354985       145.7165 
 497   0.0000       5.367141       146.0473 
 498   0.0000       5.395331       146.8144 
 499   0.0000       5.438324       147.9843 
 500   0.0000       5.444241       148.1453 
 501   0.0000       5.466658       148.7553 
 502   0.0000       5.492045       149.4461 
 503   0.0000       5.540529       150.7655 
 504   0.0000       5.551281       151.0580 
 505   0.0000       5.586509       152.0166 
 506   0.0000       5.606764       152.5678 
 507   0.0000       5.629653       153.1907 
 508   0.0000       5.659221       153.9952 
 509   0.0000       5.678762       154.5270 
 510   0.0000       5.736580       156.1003 
 511   0.0000       5.751885       156.5167 
 512   0.0000       5.800194       157.8313 
 513   0.0000       5.849644       159.1769 
 514   0.0000       5.872525       159.7995 
 515   0.0000       5.905571       160.6988 
 516   0.0000       6.123445       166.6274 
 517   0.0000       6.296300       171.3310 
 518   0.0000      29.588215       805.1363 
 519   0.0000      29.714688       808.5778 
 520   0.0000      29.774485       810.2049 
 521   0.0000      29.816920       811.3596 
 522   0.0000      29.838647       811.9509 
 523   0.0000      29.843119       812.0725 
 524   0.0000      29.872408       812.8695 
 525   0.0000      29.950404       814.9919 
 526   0.0000      29.973826       815.6293 
 527   0.0000      29.985534       815.9479 
 528   0.0000      30.021618       816.9298 
 529   0.0000      30.043541       817.5263 
 530   0.0000      30.063781       818.0771 
 531   0.0000      30.110461       819.3473 
 532   0.0000      30.115158       819.4751 
 533   0.0000      30.138177       820.1015 
 534   0.0000      30.184406       821.3595 
 535   0.0000      30.235261       822.7433 
 536   0.0000      30.243276       822.9614 
 537   0.0000      30.271424       823.7273 
 538   0.0000      30.291685       824.2787 
 539   0.0000      30.442010       828.3692 
 540   0.0000      30.519848       830.4873 
 541   0.0000      36.608475       996.1673 
 542   0.0000      36.611912       996.2608 
 543   0.0000      36.624261       996.5968 
 544   0.0000      36.628431       996.7103 
 545   0.0000      36.633628       996.8517 
 546   0.0000      36.637668       996.9616 
 547   0.0000      36.655512       997.4472 
 548   0.0000      36.659904       997.5667 
 549   0.0000      36.667325       997.7686 
 550   0.0000      36.671379       997.8789 
 551   0.0000      36.689982       998.3852 
 552   0.0000      36.703523       998.7536 
 553   0.0000      36.773931      1000.6695 
 554   0.0000      36.811239      1001.6847 
 555   0.0000      36.821288      1001.9582 
 556   0.0000      36.851584      1002.7826 
 557   0.0000      36.862847      1003.0891 
 558   0.0000      36.875390      1003.4304 
 559   0.0000      36.881364      1003.5929 
 560   0.0000      36.917971      1004.5891 
 561   0.0000      36.928991      1004.8889 
 562   0.0000      36.933829      1005.0206 
 563   0.0000      36.992181      1006.6084 
 564   0.0000      37.018352      1007.3206 
 565   0.0000      37.027601      1007.5723 

                 SPIN DOWN ORBITALS
  NO   OCC          E(Eh)            E(eV) 
   0   1.0000     -10.252689      -278.9899 
   1   1.0000     -10.244296      -278.7615 
   2   1.0000     -10.228520      -278.3322 
   3   1.0000     -10.226798      -278.2853 
   4   1.0000     -10.222477      -278.1678 
   5   1.0000     -10.222364      -278.1647 
   6   1.0000     -10.221632      -278.1448 
   7   1.0000     -10.221528      -278.1419 
   8   1.0000     -10.220556      -278.1155 
   9   1.0000     -10.219162      -278.0775 
  10   1.0000     -10.219059      -278.0747 
  11   1.0000     -10.213646      -277.9274 
  12   1.0000     -10.210325      -277.8371 
  13   1.0000     -10.196109      -277.4502 
  14   1.0000     -10.191527      -277.3256 
  15   1.0000     -10.189313      -277.2653 
  16   1.0000     -10.188297      -277.2376 
  17   1.0000     -10.187415      -277.2137 
  18   1.0000     -10.184090      -277.1232 
  19   1.0000     -10.182607      -277.0828 
  20   1.0000     -10.176233      -276.9094 
  21   1.0000     -10.173818      -276.8437 
  22   1.0000     -10.164469      -276.5893 
  23   1.0000      -0.882044       -24.0016 
  24   1.0000      -0.878504       -23.9053 
  25   1.0000      -0.821866       -22.3641 
  26   1.0000      -0.808647       -22.0044 
  27   1.0000      -0.795523       -21.6473 
  28   1.0000      -0.784687       -21.3524 
  29   1.0000      -0.771213       -20.9858 
  30   1.0000      -0.767161       -20.8755 
  31   1.0000      -0.739746       -20.1295 
  32   1.0000      -0.732518       -19.9328 
  33   1.0000      -0.703313       -19.1381 
  34   1.0000      -0.669128       -18.2079 
  35   1.0000      -0.655160       -17.8278 
  36   1.0000      -0.634055       -17.2535 
  37   1.0000      -0.625258       -17.0141 
  38   1.0000      -0.624552       -16.9949 
  39   1.0000      -0.596175       -16.2227 
  40   1.0000      -0.581287       -15.8176 
  41   1.0000      -0.566465       -15.4143 
  42   1.0000      -0.556617       -15.1463 
  43   1.0000      -0.525896       -14.3103 
  44   1.0000      -0.517602       -14.0847 
  45   1.0000      -0.496548       -13.5118 
  46   1.0000      -0.479676       -13.0527 
  47   1.0000      -0.476383       -12.9631 
  48   1.0000      -0.472910       -12.8685 
  49   1.0000      -0.471231       -12.8229 
  50   1.0000      -0.452464       -12.3122 
  51   1.0000      -0.440695       -11.9919 
  52   1.0000      -0.440160       -11.9774 
  53   1.0000      -0.428884       -11.6705 
  54   1.0000      -0.427506       -11.6330 
  55   1.0000      -0.425335       -11.5740 
  56   1.0000      -0.419243       -11.4082 
  57   1.0000      -0.413452       -11.2506 
  58   1.0000      -0.407348       -11.0845 
  59   1.0000      -0.399336       -10.8665 
  60   1.0000      -0.383219       -10.4279 
  61   1.0000      -0.377988       -10.2856 
  62   1.0000      -0.374021       -10.1776 
  63   1.0000      -0.368064       -10.0155 
  64   1.0000      -0.367359        -9.9963 
  65   1.0000      -0.363224        -9.8838 
  66   1.0000      -0.360503        -9.8098 
  67   1.0000      -0.349297        -9.5049 
  68   1.0000      -0.336195        -9.1483 
  69   1.0000      -0.331816        -9.0292 
  70   1.0000      -0.331298        -9.0151 
  71   1.0000      -0.328374        -8.9355 
  72   1.0000      -0.327097        -8.9008 
  73   1.0000      -0.322410        -8.7732 
  74   1.0000      -0.322091        -8.7645 
  75   1.0000      -0.289664        -7.8822 
  76   1.0000      -0.288150        -7.8410 
  77   1.0000      -0.274777        -7.4771 
  78   1.0000      -0.257873        -7.0171 
  79   1.0000      -0.234745        -6.3877 
  80   1.0000      -0.226082        -6.1520 
  81   0.0000      -0.107495        -2.9251 
  82   0.0000      -0.042252        -1.1497 
  83   0.0000      -0.029476        -0.8021 
  84   0.0000      -0.013071        -0.3557 
  85   0.0000      -0.010556        -0.2872 
  86   0.0000       0.005546         0.1509 
  87   0.0000       0.017673         0.4809 
  88   0.0000       0.020617         0.5610 
  89   0.0000       0.025472         0.6931 
  90   0.0000       0.026807         0.7295 
  91   0.0000       0.028160         0.7663 
  92   0.0000       0.031097         0.8462 
  93   0.0000       0.035804         0.9743 
  94   0.0000       0.045128         1.2280 
  95   0.0000       0.047476         1.2919 
  96   0.0000       0.053078         1.4443 
  97   0.0000       0.060491         1.6461 
  98   0.0000       0.069498         1.8911 
  99   0.0000       0.078064         2.1242 
 100   0.0000       0.079612         2.1664 
 101   0.0000       0.082998         2.2585 
 102   0.0000       0.091804         2.4981 
 103   0.0000       0.102357         2.7853 
 104   0.0000       0.105897         2.8816 
 105   0.0000       0.113675         3.0933 
 106   0.0000       0.119085         3.2405 
 107   0.0000       0.130981         3.5642 
 108   0.0000       0.134233         3.6527 
 109   0.0000       0.146582         3.9887 
 110   0.0000       0.149464         4.0671 
 111   0.0000       0.155334         4.2269 
 112   0.0000       0.161066         4.3828 
 113   0.0000       0.173383         4.7180 
 114   0.0000       0.174707         4.7540 
 115   0.0000       0.175377         4.7722 
 116   0.0000       0.186376         5.0716 
 117   0.0000       0.186916         5.0862 
 118   0.0000       0.191705         5.2165 
 119   0.0000       0.195415         5.3175 
 120   0.0000       0.197771         5.3816 
 121   0.0000       0.198275         5.3953 
 122   0.0000       0.204391         5.5618 
 123   0.0000       0.207449         5.6450 
 124   0.0000       0.209819         5.7095 
[...]
                Q:ISTP=    2 I=  1.0 Q=  0.0029 barn     
 -----------------------------------------------------------
 Solving for nuclear perturbation:
Forming RHS of the CP-SCF equations         ... 
Calc. nucleus orbit integrals (SHARK)       ... done

------------------------------------------------------------------------------
                           ORCA CP-SCF CALCULATION
------------------------------------------------------------------------------

Input orbitals are from        ... EPRII.gbw
Input Perturbation             ... EPRII.pin.tmp
Wavefunction output            ... EPRII.pout.tmp
Perturbation mode              ... Imaginary perturbation
Solver                         ... POPLE
Max. number of iterations      ... 64
Convergence tolerance          ... 1.000e-03
Integral handling              ... Direct
DFT GridXC                     ... 1
COSX GridX                     ... 1
COSX IntAccX                   ... 3.067
COSX Algorithm                 ... Auto
Number of perturbations        ... 3
Number of operators            ... 2
Orbital ranges used for CP-SCF:
 Operator 0:  Orbitals   0... 81  to  82...565
 Operator 1:  Orbitals   0... 80  to  81...565
Variables per perturbation     ... 78973
DFT calculation                         ... on
XC functional terms                     ... off
Hybrid DFT                              ... on
   Exchange mixing (SCF)                ...  0.200
   Exchange mixing (CP-SCF)             ...  0.200
   GGA exch. scaling(SCF)               ...  0.720
   GGA exch. scaling (CP-SCF)           ...  0.720
   GGA corr. scaling (SCF)              ...  0.810
   GGA corr. scaling (CP-SCF)           ...  0.810

CP-SCF GRID
-----------

General Integration Accuracy     IntAcc      ... 3.467
Radial Grid Type                 RadialGrid  ... OptM3 with GC (2021)
Angular Grid (max. ang.)         AngularGrid ... 1 (Lebedev-50)
Angular grid pruning method      GridPruning ... 4 (adaptive)
Weight generation scheme         WeightScheme... Becke
Basis function cutoff            BFCut       ... 1.0000e-10
Integration weight cutoff        WCut        ... 1.0000e-14
Angular grids for H and He will be reduced by one unit
Partially contracted basis set               ... off
Rotationally invariant grid construction     ... off

Total number of grid points                  ...    30935
Total number of batches                      ...      505
Average number of points per batch           ...       61
Average number of grid points per atom       ...      644

CP-SCF GRIDX
------------

General Integration Accuracy     IntAcc      ... 3.067
Radial Grid Type                 RadialGrid  ... OptM3 with GC (2021)
Angular Grid (max. ang.)         AngularGrid ... 1 (Lebedev-50)
Angular grid pruning method      GridPruning ... 4 (adaptive)
Weight generation scheme         WeightScheme... Becke
Basis function cutoff            BFCut       ... 1.0000e-10
Integration weight cutoff        WCut        ... 1.0000e-14
Angular grids for H and He will be reduced by one unit
Partially contracted basis set               ... on
Rotationally invariant grid construction     ... off

Total number of grid points                  ...    14531
Total number of batches                      ...      257
Average number of points per batch           ...       56
Average number of grid points per atom       ...      303

Memory available               ... 856.5 MB
Memory needed per perturbation ...  18.8 MB
Perturbations treated per batch... 3
Number of batches              ... 1
     CP-SCF ITERATION   0:   4.5977e-02 (   2.1 sec   0/  3 done)
     CP-SCF ITERATION   1:   2.4148e-03 (   2.1 sec   0/  3 done)
     CP-SCF ITERATION   2:   5.0002e-03 (   2.0 sec   2/  3 done)
     CP-SCF ITERATION   3:   2.2597e-03 (   1.5 sec   2/  3 done)
     CP-SCF ITERATION   4:   2.1904e-04 (   1.5 sec   3/  3 done)
                    *** THE CP-SCF HAS CONVERGED ***

Forming final perturbed densities           ... done
Transforming perturbed density to AO basis  ... done

 Raw HFC matrix (all values in MHz): 
 -----------------------------------
                 0.5777              -0.1807              -0.0003
                -0.1808               0.0687              -0.0003
                -0.0003              -0.0003               0.1873

 A(FC)           0.2772               0.2772               0.2772
 A(SD)          -0.2663              -0.0900               0.3563
 A(ORB+DIA)      0.0002               0.0001               0.0018    A(PC) =   0.0007
 A(ORB)          0.0001              -0.0000               0.0018    A(PC) =   0.0006
 A(DIA)          0.0001               0.0001               0.0000    A(PC) =   0.0001
             ----------           ----------           ----------
 A(Tot)          0.0110               0.1873               0.6353    A(iso)=    0.2779
 Orientation: 
  X           0.3038621           -0.0003403            0.9527160
  Y           0.9527130           -0.0024003           -0.3038620
  Z           0.0023902            0.9999971           -0.0004052

Notes:  (1) The A matrix conforms to the "SAI" spin Hamiltonian convention.
        (2) Tensor is right-handed.

 -----------------------------------------------------------
 Nucleus  46H : A:ISTP=    1 I=  0.5 P=533.5514 MHz/au**3
                Q:ISTP=    2 I=  1.0 Q=  0.0029 barn     
 -----------------------------------------------------------
 Solving for nuclear perturbation:
Forming RHS of the CP-SCF equations         ... 
Calc. nucleus orbit integrals (SHARK)       ... done

------------------------------------------------------------------------------
                           ORCA CP-SCF CALCULATION
------------------------------------------------------------------------------

Input orbitals are from        ... EPRII.gbw
Input Perturbation             ... EPRII.pin.tmp
Wavefunction output            ... EPRII.pout.tmp
Perturbation mode              ... Imaginary perturbation
Solver                         ... POPLE
Max. number of iterations      ... 64
Convergence tolerance          ... 1.000e-03
Integral handling              ... Direct
DFT GridXC                     ... 1
COSX GridX                     ... 1
COSX IntAccX                   ... 3.067
COSX Algorithm                 ... Auto
Number of perturbations        ... 3
Number of operators            ... 2
Orbital ranges used for CP-SCF:
 Operator 0:  Orbitals   0... 81  to  82...565
 Operator 1:  Orbitals   0... 80  to  81...565
Variables per perturbation     ... 78973
DFT calculation                         ... on
XC functional terms                     ... off
Hybrid DFT                              ... on
   Exchange mixing (SCF)                ...  0.200
   Exchange mixing (CP-SCF)             ...  0.200
   GGA exch. scaling(SCF)               ...  0.720
   GGA exch. scaling (CP-SCF)           ...  0.720
   GGA corr. scaling (SCF)              ...  0.810
   GGA corr. scaling (CP-SCF)           ...  0.810

CP-SCF GRID
-----------

General Integration Accuracy     IntAcc      ... 3.467
Radial Grid Type                 RadialGrid  ... OptM3 with GC (2021)
Angular Grid (max. ang.)         AngularGrid ... 1 (Lebedev-50)
Angular grid pruning method      GridPruning ... 4 (adaptive)
Weight generation scheme         WeightScheme... Becke
Basis function cutoff            BFCut       ... 1.0000e-10
Integration weight cutoff        WCut        ... 1.0000e-14
Angular grids for H and He will be reduced by one unit
Partially contracted basis set               ... off
Rotationally invariant grid construction     ... off

Total number of grid points                  ...    30935
Total number of batches                      ...      505
Average number of points per batch           ...       61
Average number of grid points per atom       ...      644

CP-SCF GRIDX
------------

General Integration Accuracy     IntAcc      ... 3.067
Radial Grid Type                 RadialGrid  ... OptM3 with GC (2021)
Angular Grid (max. ang.)         AngularGrid ... 1 (Lebedev-50)
Angular grid pruning method      GridPruning ... 4 (adaptive)
Weight generation scheme         WeightScheme... Becke
Basis function cutoff            BFCut       ... 1.0000e-10
Integration weight cutoff        WCut        ... 1.0000e-14
Angular grids for H and He will be reduced by one unit
Partially contracted basis set               ... on
Rotationally invariant grid construction     ... off

Total number of grid points                  ...    14531
Total number of batches                      ...      257
Average number of points per batch           ...       56
Average number of grid points per atom       ...      303

Memory available               ... 855.8 MB
Memory needed per perturbation ...  18.8 MB
Perturbations treated per batch... 3
Number of batches              ... 1
     CP-SCF ITERATION   0:   4.6064e-02 (   2.2 sec   0/  3 done)
     CP-SCF ITERATION   1:   2.6820e-03 (   2.0 sec   0/  3 done)
     CP-SCF ITERATION   2:   7.5563e-03 (   2.0 sec   2/  3 done)
     CP-SCF ITERATION   3:   2.0854e-03 (   1.4 sec   2/  3 done)
     CP-SCF ITERATION   4:   2.1930e-04 (   1.4 sec   3/  3 done)
                    *** THE CP-SCF HAS CONVERGED ***

Forming final perturbed densities           ... done
Transforming perturbed density to AO basis  ... done

 Raw HFC matrix (all values in MHz): 
 -----------------------------------
                 0.5889               0.1496               0.0005
                 0.1495               0.0549              -0.0004
                 0.0005              -0.0004               0.1916

 A(FC)           0.2777               0.2777               0.2777
 A(SD)          -0.2620              -0.0861               0.3481
 A(ORB+DIA)      0.0003               0.0001               0.0021    A(PC) =   0.0008
 A(ORB)          0.0002              -0.0000               0.0021    A(PC) =   0.0007
 A(DIA)          0.0001               0.0001               0.0000    A(PC) =   0.0001
             ----------           ----------           ----------
 A(Tot)          0.0159               0.1916               0.6279    A(iso)=    0.2785
 Orientation: 
  X          -0.2525563           -0.0000528            0.9675822
  Y           0.9675781           -0.0029294            0.2525551
  Z           0.0028211            0.9999957            0.0007909

Notes:  (1) The A matrix conforms to the "SAI" spin Hamiltonian convention.
        (2) Tensor is right-handed.

 -----------------------------------------------------------
 Nucleus  47H : A:ISTP=    1 I=  0.5 P=533.5514 MHz/au**3
                Q:ISTP=    2 I=  1.0 Q=  0.0029 barn     
 -----------------------------------------------------------
 Solving for nuclear perturbation:
Forming RHS of the CP-SCF equations         ... 
Calc. nucleus orbit integrals (SHARK)       ... done

------------------------------------------------------------------------------
                           ORCA CP-SCF CALCULATION
------------------------------------------------------------------------------

Input orbitals are from        ... EPRII.gbw
Input Perturbation             ... EPRII.pin.tmp
Wavefunction output            ... EPRII.pout.tmp
Perturbation mode              ... Imaginary perturbation
Solver                         ... POPLE
Max. number of iterations      ... 64
Convergence tolerance          ... 1.000e-03
Integral handling              ... Direct
DFT GridXC                     ... 1
COSX GridX                     ... 1
COSX IntAccX                   ... 3.067
COSX Algorithm                 ... Auto
Number of perturbations        ... 3
Number of operators            ... 2
Orbital ranges used for CP-SCF:
 Operator 0:  Orbitals   0... 81  to  82...565
 Operator 1:  Orbitals   0... 80  to  81...565
Variables per perturbation     ... 78973
DFT calculation                         ... on
XC functional terms                     ... off
Hybrid DFT                              ... on
   Exchange mixing (SCF)                ...  0.200
   Exchange mixing (CP-SCF)             ...  0.200
   GGA exch. scaling(SCF)               ...  0.720
   GGA exch. scaling (CP-SCF)           ...  0.720
   GGA corr. scaling (SCF)              ...  0.810
   GGA corr. scaling (CP-SCF)           ...  0.810

CP-SCF GRID
-----------

General Integration Accuracy     IntAcc      ... 3.467
Radial Grid Type                 RadialGrid  ... OptM3 with GC (2021)
Angular Grid (max. ang.)         AngularGrid ... 1 (Lebedev-50)
Angular grid pruning method      GridPruning ... 4 (adaptive)
Weight generation scheme         WeightScheme... Becke
Basis function cutoff            BFCut       ... 1.0000e-10
Integration weight cutoff        WCut        ... 1.0000e-14
Angular grids for H and He will be reduced by one unit
Partially contracted basis set               ... off
Rotationally invariant grid construction     ... off

Total number of grid points                  ...    30935
Total number of batches                      ...      505
Average number of points per batch           ...       61
Average number of grid points per atom       ...      644

CP-SCF GRIDX
------------

General Integration Accuracy     IntAcc      ... 3.067
Radial Grid Type                 RadialGrid  ... OptM3 with GC (2021)
Angular Grid (max. ang.)         AngularGrid ... 1 (Lebedev-50)
Angular grid pruning method      GridPruning ... 4 (adaptive)
Weight generation scheme         WeightScheme... Becke
Basis function cutoff            BFCut       ... 1.0000e-10
Integration weight cutoff        WCut        ... 1.0000e-14
Angular grids for H and He will be reduced by one unit
Partially contracted basis set               ... on
Rotationally invariant grid construction     ... off

Total number of grid points                  ...    14531
Total number of batches                      ...      257
Average number of points per batch           ...       56
Average number of grid points per atom       ...      303

Memory available               ... 855.1 MB
Memory needed per perturbation ...  18.8 MB
Perturbations treated per batch... 3
Number of batches              ... 1
     CP-SCF ITERATION   0:   4.1919e-02 (   2.5 sec   0/  3 done)
     CP-SCF ITERATION   1:   1.7253e-03 (   2.1 sec   0/  3 done)
     CP-SCF ITERATION   2:   1.4536e-03 (   2.1 sec   2/  3 done)
     CP-SCF ITERATION   3:   1.0640e-03 (   1.5 sec   2/  3 done)
     CP-SCF ITERATION   4:   8.2378e-05 (   1.5 sec   3/  3 done)
                    *** THE CP-SCF HAS CONVERGED ***

Forming final perturbed densities           ... done
Transforming perturbed density to AO basis  ... done

 Raw HFC matrix (all values in MHz): 
 -----------------------------------
                -0.0471              -0.0705              -0.0001
                -0.0706              -0.1616              -0.0000
                -0.0001              -0.0000              -0.1457

 A(FC)          -0.1185              -0.1185              -0.1185
 A(SD)           0.1042              -0.0273              -0.0770
 A(ORB+DIA)      0.0008               0.0001               0.0002    A(PC) =   0.0003
 A(ORB)          0.0008              -0.0000               0.0002    A(PC) =   0.0003
 A(DIA)          0.0000               0.0001               0.0001    A(PC) =   0.0000
             ----------           ----------           ----------
 A(Tot)         -0.0135              -0.1457              -0.1952    A(iso)=   -0.1181
 Orientation: 
  X           0.9028027            0.0002039            0.4300548
  Y          -0.4300543            0.0021458            0.9028005
  Z          -0.0007387           -0.9999977            0.0020249

Notes:  (1) The A matrix conforms to the "SAI" spin Hamiltonian convention.
        (2) Tensor is right-handed.


--------------------------------------------------------------------------------
----------------------------------------------------------------------------
                           ORCA EULER ANGLE PROGRAM
----------------------------------------------------------------------------

Only g-tensor available        -->  using g-tensor as reference tensor

Reference tensor               ...  g

g-tensor ordering              ...  |g_min> --> |gx>
                                    |g_mid> --> |gy>
                                    |g_max> --> |gz>

A- and EFG-tensor ordering     ...  the axes |Ax>, |Qx>, |Ay>, etc. are assigned
                                    such that the Euler rotation is minimal. You
                                    can find the respective eigenvalues as Ax,
                                    EFGx, Ay, etc. in the tables below.
                                    The relation of |Ax>, |Ay>,  etc. to Amin, Amid, etc.
                                    (as printed in the ORCA EPR/NMR CALCULATION Output)
                                    is obtained in the detailed printout.

Euler rotation around          ...  z - y - z
   First rotation              -->  by alpha around z
   Second rotation             -->  by beta around y'
   Third rotation              -->  by gamma around z''
   Positive / Negative angle   -->  clockwise / counterclockwise rotation

Plot EFG-tensors                    (-)
Plot HFC-tensors                    (-)
Detailed Printout                   (-)

-------------------------------------------------------------------------
          Euler rotation of hyperfine tensor to g-tensor
-------------------------------------------------------------------------

-------------------------------------------------------------------
 Atom  |   Alpha    Beta    Gamma   |   Ax       Ay       Az 
       |          [degrees]         |           [MHz]         
-------------------------------------------------------------------
  8H       -0.1     22.2     -0.1       4.59     4.52     7.64
  9H        0.1     25.6     -0.3       8.46    -7.82    -4.01
 11H      120.6     40.2   -135.6       7.86    -3.05    -4.48
 12H     -120.4     40.4    135.2       7.86    -3.08    -4.52
 14H      168.1     39.2    179.1       2.00    -0.33    -0.31
 15H     -168.3     39.2   -178.9       1.99    -0.34    -0.32
 17H      117.4     19.2   -105.2       1.22    -0.65    -0.61
 18H     -117.4     19.3    105.0       1.21    -0.65    -0.61
 20H      153.2     28.4   -141.6       0.48    -0.24    -0.24
 21H     -153.5     28.4    141.9       0.48    -0.24    -0.24
 23H     -178.1     33.3    155.4      -0.31    -0.12     1.49
 24H      178.2     33.3   -155.7      -0.30    -0.12     1.49
 26H      -11.6     29.6     26.9       1.50    -0.89    -0.79
 27H       11.6     29.6    -27.0       1.50    -0.89    -0.79
 29H      -28.7     45.7     27.8       0.50    -0.22    -0.23
 30H       28.4     45.5    -27.5       0.50    -0.22    -0.23
 32H       57.7     37.0    -71.2       0.47    -0.23    -0.23
 33H      -57.7     37.1     71.1       0.47    -0.23    -0.23
 35H     -179.8     13.8    179.7       0.39    -0.23    -0.22
 36H       -4.6     25.2      5.0       0.28    -0.15    -0.15
 43H     -179.9      1.5    179.9       0.43     0.27     0.22
 44H     -180.0     27.5    179.9      -0.20    -0.14    -0.01
 45H       -0.0     13.3     -0.0       0.01     0.19     0.64
 46H      180.0     19.1    179.9       0.02     0.19     0.63
 47H       -0.0     21.0     -0.1      -0.20    -0.15    -0.01
-------------------------------------------------------------------


Maximum memory used throughout the entire EPRNMR-calculation: 238.9 MB

Timings for individual modules:

Sum of individual times         ...     5042.608 sec (=  84.043 min)
GTO integral calculation        ...        6.440 sec (=   0.107 min)   0.1 %
Spin-Orbit-Coupling Matrices    ...       13.849 sec (=   0.231 min)   0.3 %
SCF iterations                  ...       35.993 sec (=   0.600 min)   0.7 %
EPR/NMR calculation             ...     4986.327 sec (=  83.105 min)  98.9 %
                             ****ORCA TERMINATED NORMALLY****
TOTAL RUN TIME: 0 days 1 hours 24 minutes 7 seconds 535 msec
