
                                 *****************
                                 * O   R   C   A *
                                 *****************

                                            #,                                       
                                            ###                                      
                                            ####                                     
                                            #####                                    
                                            ######                                   
                                           ########,                                 
                                     ,,################,,,,,                         
                               ,,#################################,,                 
                          ,,##########################################,,             
                       ,#########################################, ''#####,          
                    ,#############################################,,   '####,        
                  ,##################################################,,,,####,       
                ,###########''''           ''''###############################       
              ,#####''   ,,,,##########,,,,          '''####'''          '####       
            ,##' ,,,,###########################,,,                        '##       
           ' ,,###''''                  '''############,,,                           
         ,,##''                                '''############,,,,        ,,,,,,###''
      ,#''                                            '''#######################'''  
     '                                                          ''''####''''         
             ,#######,   #######,   ,#######,      ##                                
            ,#'     '#,  ##    ##  ,#'     '#,    #''#        ######   ,####,        
            ##       ##  ##   ,#'  ##            #'  '#       #        #'  '#        
            ##       ##  #######   ##           ,######,      #####,   #    #        
            '#,     ,#'  ##    ##  '#,     ,#' ,#      #,         ##   #,  ,#        
             '#######'   ##     ##  '#######'  #'      '#     #####' # '####'        



                  #######################################################
                  #                        -***-                        #
                  #          Department of theory and spectroscopy      #
                  #    Directorship and core code : Frank Neese         #
                  #        Max Planck Institute fuer Kohlenforschung    #
                  #                Kaiser Wilhelm Platz 1               #
                  #                 D-45470 Muelheim/Ruhr               #
                  #                      Germany                        #
                  #                                                     #
                  #                  All rights reserved                #
                  #                        -***-                        #
                  #######################################################


                         Program Version 5.0.4 -  RELEASE  -


 With contributions from (in alphabetic order):
   Daniel Aravena         : Magnetic Suceptibility
   Michael Atanasov       : Ab Initio Ligand Field Theory (pilot matlab implementation)
   Alexander A. Auer      : GIAO ZORA, VPT2 properties, NMR spectrum
   Ute Becker             : Parallelization
   Giovanni Bistoni       : ED, misc. LED, open-shell LED, HFLD
   Martin Brehm           : Molecular dynamics
   Dmytro Bykov           : SCF Hessian
   Vijay G. Chilkuri      : MRCI spin determinant printing, contributions to CSF-ICE
   Dipayan Datta          : RHF DLPNO-CCSD density
   Achintya Kumar Dutta   : EOM-CC, STEOM-CC
   Dmitry Ganyushin       : Spin-Orbit,Spin-Spin,Magnetic field MRCI
   Miquel Garcia          : C-PCM and meta-GGA Hessian, CC/C-PCM, Gaussian charge scheme
   Yang Guo               : DLPNO-NEVPT2, F12-NEVPT2, CIM, IAO-localization
   Andreas Hansen         : Spin unrestricted coupled pair/coupled cluster methods
   Benjamin Helmich-Paris : MC-RPA, TRAH-SCF, COSX integrals
   Lee Huntington         : MR-EOM, pCC
   Robert Izsak           : Overlap fitted RIJCOSX, COSX-SCS-MP3, EOM
   Marcus Kettner         : VPT2
   Christian Kollmar      : KDIIS, OOCD, Brueckner-CCSD(T), CCSD density, CASPT2, CASPT2-K
   Simone Kossmann        : Meta GGA functionals, TD-DFT gradient, OOMP2, MP2 Hessian
   Martin Krupicka        : Initial AUTO-CI
   Lucas Lang             : DCDCAS
   Marvin Lechner         : AUTO-CI (C++ implementation), FIC-MRCC
   Dagmar Lenk            : GEPOL surface, SMD
   Dimitrios Liakos       : Extrapolation schemes; Compound Job, initial MDCI parallelization
   Dimitrios Manganas     : Further ROCIS development; embedding schemes
   Dimitrios Pantazis     : SARC Basis sets
   Anastasios Papadopoulos: AUTO-CI, single reference methods and gradients
   Taras Petrenko         : DFT Hessian,TD-DFT gradient, ASA, ECA, R-Raman, ABS, FL, XAS/XES, NRVS
   Peter Pinski           : DLPNO-MP2, DLPNO-MP2 Gradient
   Christoph Reimann      : Effective Core Potentials
   Marius Retegan         : Local ZFS, SOC
   Christoph Riplinger    : Optimizer, TS searches, QM/MM, DLPNO-CCSD(T), (RO)-DLPNO pert. Triples
   Tobias Risthaus        : Range-separated hybrids, TD-DFT gradient, RPA, STAB
   Michael Roemelt        : Original ROCIS implementation
   Masaaki Saitow         : Open-shell DLPNO-CCSD energy and density
   Barbara Sandhoefer     : DKH picture change effects
   Avijit Sen             : IP-ROCIS
   Kantharuban Sivalingam : CASSCF convergence, NEVPT2, FIC-MRCI
   Bernardo de Souza      : ESD, SOC TD-DFT
   Georgi Stoychev        : AutoAux, RI-MP2 NMR, DLPNO-MP2 response
   Willem Van den Heuvel  : Paramagnetic NMR
   Boris Wezisla          : Elementary symmetry handling
   Frank Wennmohs         : Technical directorship


 We gratefully acknowledge several colleagues who have allowed us to
 interface, adapt or use parts of their codes:
   Stefan Grimme, W. Hujo, H. Kruse, P. Pracht,  : VdW corrections, initial TS optimization,
                  C. Bannwarth, S. Ehlert          DFT functionals, gCP, sTDA/sTD-DF
   Ed Valeev, F. Pavosevic, A. Kumar             : LibInt (2-el integral package), F12 methods
   Garnet Chan, S. Sharma, J. Yang, R. Olivares  : DMRG
   Ulf Ekstrom                                   : XCFun DFT Library
   Mihaly Kallay                                 : mrcc  (arbitrary order and MRCC methods)
   Jiri Pittner, Ondrej Demel                    : Mk-CCSD
   Frank Weinhold                                : gennbo (NPA and NBO analysis)
   Christopher J. Cramer and Donald G. Truhlar   : smd solvation model
   Lars Goerigk                                  : TD-DFT with DH, B97 family of functionals
   V. Asgeirsson, H. Jonsson                     : NEB implementation
   FAccTs GmbH                                   : IRC, NEB, NEB-TS, DLPNO-Multilevel, CI-OPT
                                                   MM, QMMM, 2- and 3-layer-ONIOM, Crystal-QMMM,
                                                   LR-CPCM, SF, NACMEs, symmetry and pop. for TD-DFT,
                                                   nearIR, NL-DFT gradient (VV10), updates on ESD,
                                                   ML-optimized integration grids
   S Lehtola, MJT Oliveira, MAL Marques          : LibXC Library
   Liviu Ungur et al                             : ANISO software


 Your calculation uses the libint2 library for the computation of 2-el integrals
 For citations please refer to: http://libint.valeyev.net

 Your ORCA version has been built with support for libXC version: 5.1.0
 For citations please refer to: https://tddft.org/programs/libxc/

 This ORCA versions uses:
   CBLAS   interface :  Fast vector & matrix operations
   LAPACKE interface :  Fast linear algebra routines
   SCALAPACK package :  Parallel linear algebra routines
   Shared memory     :  Shared parallel matrices
   BLAS/LAPACK       :  OpenBLAS 0.3.15  USE64BITINT DYNAMIC_ARCH NO_AFFINITY SkylakeX SINGLE_THREADED
        Core in use  :  SkylakeX
   Copyright (c) 2011-2014, The OpenBLAS Project




***************************************
The coordinates will be read from file: opt.xyz
***************************************


================================================================================

----- Orbital basis set information -----
Your calculation utilizes the basis: EPR-II
   V. Barone, in Recent Advances in Density Functional Methods, Part 1 (ed. D. P. Chong), World Scientific, Singapore, 1995, p. 287.

----- AuxJ basis set information -----
Your calculation utilizes the AutoAux generation procedure.
  G. L. Stoychev, A. A. Auer, F. Neese, J. Chem. Theory Comput. 13, 554 (2017)

----- AuxC basis set information -----
Your calculation utilizes the AutoAux generation procedure.
  G. L. Stoychev, A. A. Auer, F. Neese, J. Chem. Theory Comput. 13, 554 (2017)

----- AuxJK basis set information -----
Your calculation utilizes the AutoAux generation procedure.
  G. L. Stoychev, A. A. Auer, F. Neese, J. Chem. Theory Comput. 13, 554 (2017)

================================================================================
                                        WARNINGS
                       Please study these warnings very carefully!
================================================================================

WARNING: Old DensityContainer found on disk!
         Will remove this file - 
         If you want to keep old densities, please start your calculation with a different basename. 


WARNING: your system is open-shell and RHF/RKS was chosen
  ===> : WILL SWITCH to UHF/UKS


INFO   : the flag for use of the SHARK integral package has been found!

================================================================================
                                       INPUT FILE
================================================================================
NAME = EPRII_i.inp
|  1> ! B3LYP EPR-II AUTOAUX
|  2> %pal nprocs 16 end
|  3> *XYZFile 0 2 opt.xyz
|  4> %EPRNMR
|  5>         GTENSOR   TRUE
|  6>         NUCLEI    = ALL H {SHIFT, AISO, ADIP, AORB}
|  7>         ORI       GIAO
|  8> END
|  9> 
| 10>                          ****END OF INPUT****
================================================================================

                       ****************************
                       * Single Point Calculation *
                       ****************************

---------------------------------
CARTESIAN COORDINATES (ANGSTROEM)
---------------------------------
  C     -2.775358    0.046208   -0.011751
  C      2.820255    0.009685   -0.009139
  C     -1.416126   -0.010274   -0.011347
  C     -0.684648   -1.267420   -0.014386
  C      0.690490   -1.196208   -0.013389
  C      1.407047    0.036197   -0.009702
  C      0.687689    1.279681   -0.006696
  C     -0.690449    1.243926   -0.007610
  H      1.277162   -2.115524   -0.015523
  H     -1.268852    2.166837   -0.005472
  C     -1.480792   -2.555886   -0.018568
  H     -2.154671   -2.540740   -0.897146
  H     -2.157395   -2.544715    0.857974
  C     -0.681275   -3.861204   -0.020309
  H     -0.017862   -3.890851   -0.904058
  H     -0.020683   -3.894869    0.865412
  C     -1.579450   -5.104210   -0.024628
  H     -2.246605   -5.074150    0.856659
  H     -2.243576   -5.070198   -0.908059
  C     -0.790051   -6.415615   -0.026228
  H     -0.143052   -6.494872    0.864454
  H     -0.139497   -6.490536   -0.914694
  C      1.465882    2.581608   -0.002726
  H      2.141040    2.571608    0.872700
  H      2.142655    2.575943   -0.876938
  C      0.653075    3.878460   -0.000281
  H     -0.008622    3.909115   -0.885508
  H     -0.010403    3.904750    0.883750
  C      1.540606    5.129343    0.003729
  H      2.205493    5.100499    0.886927
  H      2.207479    5.104735   -0.878099
  C      0.741236    6.434757    0.005976
  H      0.090513    6.504407    0.894697
  H      0.093010    6.509016   -0.884195
  C      4.046121   -0.034213   -0.010003
  H     -1.460807   -7.289936   -0.029701
  H      1.404972    7.314510    0.009190
  C      5.469175   -0.089851   -0.009729
  C      6.140470   -1.334126   -0.012366
  C      7.533422   -1.384522   -0.012085
  C      8.284577   -0.203110   -0.009213
  C      7.630744    1.034879   -0.006618
  C      6.238242    1.096428   -0.006877
  H      9.376146   -0.247118   -0.009009
  H      8.211876    1.960203   -0.004379
  H      5.552872   -2.254102   -0.014605
  H      5.726741    2.060809   -0.004870
  H      8.038460   -2.353485   -0.014131

----------------------------
CARTESIAN COORDINATES (A.U.)
----------------------------
  NO LB      ZA    FRAG     MASS         X           Y           Z
   0 C     6.0000    0    12.011   -5.244666    0.087321   -0.022207
   1 C     6.0000    0    12.011    5.329509    0.018301   -0.017270
   2 C     6.0000    0    12.011   -2.676089   -0.019416   -0.021442
   3 C     6.0000    0    12.011   -1.293797   -2.395076   -0.027185
   4 C     6.0000    0    12.011    1.304836   -2.260506   -0.025301
   5 C     6.0000    0    12.011    2.658933    0.068402   -0.018335
   6 C     6.0000    0    12.011    1.299543    2.418247   -0.012654
   7 C     6.0000    0    12.011   -1.304760    2.350680   -0.014381
   8 H     1.0000    0     1.008    2.413486   -3.997762   -0.029334
   9 H     1.0000    0     1.008   -2.397782    4.094729   -0.010341
  10 C     6.0000    0    12.011   -2.798290   -4.829924   -0.035089
  11 H     1.0000    0     1.008   -4.071738   -4.801303   -1.695361
  12 H     1.0000    0     1.008   -4.076886   -4.808815    1.621335
  13 C     6.0000    0    12.011   -1.287423   -7.296619   -0.038379
  14 H     1.0000    0     1.008   -0.033755   -7.352643   -1.708423
  15 H     1.0000    0     1.008   -0.039085   -7.360237    1.635391
  16 C     6.0000    0    12.011   -2.984727   -9.645560   -0.046540
  17 H     1.0000    0     1.008   -4.245468   -9.588753    1.618850
  18 H     1.0000    0     1.008   -4.239743   -9.581286   -1.715982
  19 C     6.0000    0    12.011   -1.492981  -12.123756   -0.049565
  20 H     1.0000    0     1.008   -0.270330  -12.273529    1.633581
  21 H     1.0000    0     1.008   -0.263612  -12.265336   -1.728521
  22 C     6.0000    0    12.011    2.770115    4.878533   -0.005151
  23 H     1.0000    0     1.008    4.045979    4.859636    1.649164
  24 H     1.0000    0     1.008    4.049030    4.867828   -1.657173
  25 C     6.0000    0    12.011    1.234134    7.329228   -0.000530
  26 H     1.0000    0     1.008   -0.016293    7.387157   -1.673368
  27 H     1.0000    0     1.008   -0.019659    7.378908    1.670046
  28 C     6.0000    0    12.011    2.911324    9.693053    0.007046
  29 H     1.0000    0     1.008    4.167777    9.638546    1.676049
  30 H     1.0000    0     1.008    4.171531    9.646551   -1.659366
  31 C     6.0000    0    12.011    1.400732   12.159929    0.011293
  32 H     1.0000    0     1.008    0.171045   12.291547    1.690732
  33 H     1.0000    0     1.008    0.175763   12.300257   -1.670887
  34 C     6.0000    0    12.011    7.646061   -0.064654   -0.018903
  35 H     1.0000    0     1.008   -2.760524  -13.775982   -0.056127
  36 H     1.0000    0     1.008    2.655013   13.822421    0.017366
  37 C     6.0000    0    12.011   10.335243   -0.169794   -0.018386
  38 C     6.0000    0    12.011   11.603807   -2.521134   -0.023368
  39 C     6.0000    0    12.011   14.236105   -2.616367   -0.022838
  40 C     6.0000    0    12.011   15.655582   -0.383822   -0.017411
  41 C     6.0000    0    12.011   14.420016    1.955637   -0.012506
  42 C     6.0000    0    12.011   11.788569    2.071948   -0.012996
  43 H     1.0000    0     1.008   17.718348   -0.466986   -0.017025
  44 H     1.0000    0     1.008   15.518196    3.704247   -0.008274
  45 H     1.0000    0     1.008   10.493407   -4.259635   -0.027600
  46 H     1.0000    0     1.008   10.821971    3.894365   -0.009204
  47 H     1.0000    0     1.008   15.190487   -4.447442   -0.026704

--------------------------------
INTERNAL COORDINATES (ANGSTROEM)
--------------------------------
 C      0   0   0     0.000000000000     0.00000000     0.00000000
 C      1   0   0     5.595732004957     0.00000000     0.00000000
 C      1   2   0     1.360405191013     2.00560026     0.00000000
 C      3   1   2     1.454469918689   122.57268791   179.87546019
 C      4   3   1     1.376980208531   117.22867989   180.01155142
 C      2   1   3     1.413456756580     0.70078342   180.04362844
 C      6   2   5     1.436571908484   121.12406587   180.00302186
 C      7   6   2     1.378601847162   118.56311133   179.99054662
 H      5   4   3     1.090564627606   119.57987629   179.99649821
 H      8   7   6     1.089182455298   120.58966669   180.00407885
 C      4   3   1     1.514598143512   118.09498938     0.00000000
 H     11   4   3     1.107357915994   108.08554859    56.53583569
 H     11   4   3     1.107358659164   108.08373428   303.58115156
 C     11   4   3     1.530714496630   116.80037928   180.05817528
 H     14  11   4     1.105444583233   109.70863920   301.77526421
 H     14  11   4     1.105448465363   109.70533933    58.22859475
 C     14  11   4     1.533558086370   112.66110580   180.00330784
 H     17  14  11     1.105742166080   109.21375501   302.33041719
 H     17  14  11     1.105743859162   109.21334405    57.68537949
 C     17  14  11     1.530665064032   113.10306867   180.00694348
 H     20  17  14     1.103723193693   111.28414541    59.89992599
 H     20  17  14     1.103723017427   111.28296697   300.14024706
 C      7   6   2     1.516777664683   119.08294731     0.00000000
 H     23   7   6     1.105580701721   107.91606339   303.71010560
 H     23   7   6     1.105577037297   107.91447122    56.23744248
 C     23   7   6     1.530518232004   117.05478261   179.97241633
 H     26  23   7     1.105627075376   109.87974588   301.69490823
 H     26  23   7     1.105624501298   109.88387152    58.29948684
 C     26  23   7     1.533764592831   112.56596694   179.99750909
 H     29  26  23     1.105868820719   109.19151540   302.31939451
 H     29  26  23     1.105867991045   109.19103182    57.66089109
 C     29  26  23     1.530720359307   113.16229135   179.99053427
 H     32  29  26     1.103682689923   111.27816991    59.84672670
 H     32  29  26     1.103682976140   111.27899091   300.11506728
 C      2   1   3     1.226652884749   178.32176436     2.01506262
 H     20  17  14     1.101980315981   111.45985788   180.02058279
 H     32  29  26     1.102053733118   111.48590918   179.98045027
 C     35   2   6     1.424140703761   179.80499042   341.01984994
 C     38  35   2     1.413812362503   120.58607539    15.40693246
 C     39  38  35     1.393863497676   120.41908479   180.00015779
 C     40  39  38     1.399991502332   120.37661057     0.00000000
 C     41  40  39     1.400042963895   119.71107387     0.00000000
 C     42  41  40     1.393861490907   120.37116468     0.00000000
 H     41  40  39     1.092455893739   120.13987717   180.00034672
 H     42  41  40     1.092677705168   120.02965548   180.00046773
 H     39  38  35     1.091618719799   119.08613018     0.00000000
 H     43  42  41     1.091636261109   120.47192886   180.00086835
 H     40  39  38     1.092683124259   119.60108407   179.99928286

---------------------------
INTERNAL COORDINATES (A.U.)
---------------------------
 C      0   0   0     0.000000000000     0.00000000     0.00000000
 C      1   0   0    10.574401008187     0.00000000     0.00000000
 C      1   2   0     2.570793242180     2.00560026     0.00000000
 C      3   1   2     2.748549816349   122.57268791   179.87546019
 C      4   3   1     2.602115485954   117.22867989   180.01155142
 C      2   1   3     2.671046172077     0.70078342   180.04362844
 C      6   2   5     2.714727478719   121.12406587   180.00302186
 C      7   6   2     2.605179938854   118.56311133   179.99054662
 H      5   4   3     2.060868477517   119.57987629   179.99649821
 H      8   7   6     2.058256550386   120.58966669   180.00407885
 C      4   3   1     2.862175694184   118.09498938     0.00000000
 H     11   4   3     2.092603193458   108.08554859    56.53583569
 H     11   4   3     2.092604597845   108.08373428   303.58115156
 C     11   4   3     2.892631187855   116.80037928   180.05817528
 H     14  11   4     2.088987518538   109.70863920   301.77526421
 H     14  11   4     2.088994854700   109.70533933    58.22859475
 C     14  11   4     2.898004793701   112.66110580   180.00330784
 H     17  14  11     2.089549868619   109.21375501   302.33041719
 H     17  14  11     2.089553068082   109.21334405    57.68537949
 C     17  14  11     2.892537773781   113.10306867   180.00694348
 H     20  17  14     2.085734563736   111.28414541    59.89992599
 H     20  17  14     2.085734230642   111.28296697   300.14024706
 C      7   6   2     2.866294392300   119.08294731     0.00000000
 H     23   7   6     2.089244745201   107.91606339   303.71010560
 H     23   7   6     2.089237820443   107.91447122    56.23744248
 C     23   7   6     2.892260301461   117.05478261   179.97241633
 H     26  23   7     2.089332378710   109.87974588   301.69490823
 H     26  23   7     2.089327514406   109.88387152    58.29948684
 C     26  23   7     2.898395034356   112.56596694   179.99750909
 H     29  26  23     2.089789211202   109.19151540   302.31939451
 H     29  26  23     2.089787643345   109.19103182    57.66089109
 C     29  26  23     2.892642266708   113.16229135   179.99053427
 H     32  29  26     2.085658022704   111.27816991    59.84672670
 H     32  29  26     2.085658563575   111.27899091   300.11506728
 C      2   1   3     2.318038013559   178.32176436     2.01506262
 H     20  17  14     2.082441002175   111.45985788   180.02058279
 H     32  29  26     2.082579740458   111.48590918   179.98045027
 C     35   2   6     2.691235906278   179.80499042   341.01984994
 C     38  35   2     2.671718169883   120.58607539    15.40693246
 C     39  38  35     2.634020278678   120.41908479   180.00015779
 C     40  39  38     2.645600529224   120.37661057     0.00000000
 C     41  40  39     2.645697777485   119.71107387     0.00000000
 C     42  41  40     2.634016486433   120.37116468     0.00000000
 H     41  40  39     2.064442452556   120.13987717   180.00034672
 H     42  41  40     2.064861615409   120.02965548   180.00046773
 H     39  38  35     2.062860423082   119.08613018     0.00000000
 H     43  42  41     2.062893571354   120.47192886   180.00086835
 H     40  39  38     2.064871856006   119.60108407   179.99928286

---------------------
BASIS SET INFORMATION
---------------------
There are 2 groups of distinct atoms

 Group   1 Type C   : 10s5p1d contracted to 6s2p1d pattern {511111/41/1}
 Group   2 Type H   : 6s1p contracted to 4s1p pattern {3111/1}

Atom   0C    basis set group =>   1
Atom   1C    basis set group =>   1
Atom   2C    basis set group =>   1
Atom   3C    basis set group =>   1
Atom   4C    basis set group =>   1
Atom   5C    basis set group =>   1
Atom   6C    basis set group =>   1
Atom   7C    basis set group =>   1
Atom   8H    basis set group =>   2
Atom   9H    basis set group =>   2
Atom  10C    basis set group =>   1
Atom  11H    basis set group =>   2
Atom  12H    basis set group =>   2
Atom  13C    basis set group =>   1
Atom  14H    basis set group =>   2
Atom  15H    basis set group =>   2
Atom  16C    basis set group =>   1
Atom  17H    basis set group =>   2
Atom  18H    basis set group =>   2
Atom  19C    basis set group =>   1
Atom  20H    basis set group =>   2
Atom  21H    basis set group =>   2
Atom  22C    basis set group =>   1
Atom  23H    basis set group =>   2
Atom  24H    basis set group =>   2
Atom  25C    basis set group =>   1
Atom  26H    basis set group =>   2
Atom  27H    basis set group =>   2
Atom  28C    basis set group =>   1
Atom  29H    basis set group =>   2
Atom  30H    basis set group =>   2
Atom  31C    basis set group =>   1
Atom  32H    basis set group =>   2
Atom  33H    basis set group =>   2
Atom  34C    basis set group =>   1
Atom  35H    basis set group =>   2
Atom  36H    basis set group =>   2
Atom  37C    basis set group =>   1
Atom  38C    basis set group =>   1
Atom  39C    basis set group =>   1
Atom  40C    basis set group =>   1
Atom  41C    basis set group =>   1
Atom  42C    basis set group =>   1
Atom  43H    basis set group =>   2
Atom  44H    basis set group =>   2
Atom  45H    basis set group =>   2
Atom  46H    basis set group =>   2
Atom  47H    basis set group =>   2
---------------------------------
AUXILIARY/J BASIS SET INFORMATION
---------------------------------
There are 2 groups of distinct atoms

 Group   1 Type C   : 17s13p12d2f contracted to 17s13p12d2f pattern {11111111111111111/1111111111111/111111111111/11}
 Group   2 Type H   : 15s6p1d contracted to 15s6p1d pattern {111111111111111/111111/1}

Atom   0C    basis set group =>   1
Atom   1C    basis set group =>   1
Atom   2C    basis set group =>   1
Atom   3C    basis set group =>   1
Atom   4C    basis set group =>   1
Atom   5C    basis set group =>   1
Atom   6C    basis set group =>   1
Atom   7C    basis set group =>   1
Atom   8H    basis set group =>   2
Atom   9H    basis set group =>   2
Atom  10C    basis set group =>   1
Atom  11H    basis set group =>   2
Atom  12H    basis set group =>   2
Atom  13C    basis set group =>   1
Atom  14H    basis set group =>   2
Atom  15H    basis set group =>   2
Atom  16C    basis set group =>   1
Atom  17H    basis set group =>   2
Atom  18H    basis set group =>   2
Atom  19C    basis set group =>   1
Atom  20H    basis set group =>   2
Atom  21H    basis set group =>   2
Atom  22C    basis set group =>   1
Atom  23H    basis set group =>   2
Atom  24H    basis set group =>   2
Atom  25C    basis set group =>   1
Atom  26H    basis set group =>   2
Atom  27H    basis set group =>   2
Atom  28C    basis set group =>   1
Atom  29H    basis set group =>   2
Atom  30H    basis set group =>   2
Atom  31C    basis set group =>   1
Atom  32H    basis set group =>   2
Atom  33H    basis set group =>   2
Atom  34C    basis set group =>   1
Atom  35H    basis set group =>   2
Atom  36H    basis set group =>   2
Atom  37C    basis set group =>   1
Atom  38C    basis set group =>   1
Atom  39C    basis set group =>   1
Atom  40C    basis set group =>   1
Atom  41C    basis set group =>   1
Atom  42C    basis set group =>   1
Atom  43H    basis set group =>   2
Atom  44H    basis set group =>   2
Atom  45H    basis set group =>   2
Atom  46H    basis set group =>   2
Atom  47H    basis set group =>   2
---------------------------------
AUXILIARY/C BASIS SET INFORMATION
---------------------------------
There are 2 groups of distinct atoms

 Group   1 Type C   : 17s13p12d2f contracted to 17s13p12d2f pattern {11111111111111111/1111111111111/111111111111/11}
 Group   2 Type H   : 15s6p1d contracted to 15s6p1d pattern {111111111111111/111111/1}

Atom   0C    basis set group =>   1
Atom   1C    basis set group =>   1
Atom   2C    basis set group =>   1
Atom   3C    basis set group =>   1
Atom   4C    basis set group =>   1
Atom   5C    basis set group =>   1
Atom   6C    basis set group =>   1
Atom   7C    basis set group =>   1
Atom   8H    basis set group =>   2
Atom   9H    basis set group =>   2
Atom  10C    basis set group =>   1
Atom  11H    basis set group =>   2
Atom  12H    basis set group =>   2
Atom  13C    basis set group =>   1
Atom  14H    basis set group =>   2
Atom  15H    basis set group =>   2
Atom  16C    basis set group =>   1
Atom  17H    basis set group =>   2
Atom  18H    basis set group =>   2
Atom  19C    basis set group =>   1
Atom  20H    basis set group =>   2
Atom  21H    basis set group =>   2
Atom  22C    basis set group =>   1
Atom  23H    basis set group =>   2
Atom  24H    basis set group =>   2
Atom  25C    basis set group =>   1
Atom  26H    basis set group =>   2
Atom  27H    basis set group =>   2
Atom  28C    basis set group =>   1
Atom  29H    basis set group =>   2
Atom  30H    basis set group =>   2
Atom  31C    basis set group =>   1
Atom  32H    basis set group =>   2
Atom  33H    basis set group =>   2
Atom  34C    basis set group =>   1
Atom  35H    basis set group =>   2
Atom  36H    basis set group =>   2
Atom  37C    basis set group =>   1
Atom  38C    basis set group =>   1
Atom  39C    basis set group =>   1
Atom  40C    basis set group =>   1
Atom  41C    basis set group =>   1
Atom  42C    basis set group =>   1
Atom  43H    basis set group =>   2
Atom  44H    basis set group =>   2
Atom  45H    basis set group =>   2
Atom  46H    basis set group =>   2
Atom  47H    basis set group =>   2
----------------------------------
AUXILIARY/JK BASIS SET INFORMATION
----------------------------------
There are 2 groups of distinct atoms

 Group   1 Type C   : 17s13p12d2f contracted to 17s13p12d2f pattern {11111111111111111/1111111111111/111111111111/11}
 Group   2 Type H   : 15s6p1d contracted to 15s6p1d pattern {111111111111111/111111/1}

Atom   0C    basis set group =>   1
Atom   1C    basis set group =>   1
Atom   2C    basis set group =>   1
Atom   3C    basis set group =>   1
Atom   4C    basis set group =>   1
Atom   5C    basis set group =>   1
Atom   6C    basis set group =>   1
Atom   7C    basis set group =>   1
Atom   8H    basis set group =>   2
Atom   9H    basis set group =>   2
Atom  10C    basis set group =>   1
Atom  11H    basis set group =>   2
Atom  12H    basis set group =>   2
Atom  13C    basis set group =>   1
Atom  14H    basis set group =>   2
Atom  15H    basis set group =>   2
Atom  16C    basis set group =>   1
Atom  17H    basis set group =>   2
Atom  18H    basis set group =>   2
Atom  19C    basis set group =>   1
Atom  20H    basis set group =>   2
Atom  21H    basis set group =>   2
Atom  22C    basis set group =>   1
Atom  23H    basis set group =>   2
Atom  24H    basis set group =>   2
Atom  25C    basis set group =>   1
Atom  26H    basis set group =>   2
Atom  27H    basis set group =>   2
Atom  28C    basis set group =>   1
Atom  29H    basis set group =>   2
Atom  30H    basis set group =>   2
Atom  31C    basis set group =>   1
Atom  32H    basis set group =>   2
Atom  33H    basis set group =>   2
Atom  34C    basis set group =>   1
Atom  35H    basis set group =>   2
Atom  36H    basis set group =>   2
Atom  37C    basis set group =>   1
Atom  38C    basis set group =>   1
Atom  39C    basis set group =>   1
Atom  40C    basis set group =>   1
Atom  41C    basis set group =>   1
Atom  42C    basis set group =>   1
Atom  43H    basis set group =>   2
Atom  44H    basis set group =>   2
Atom  45H    basis set group =>   2
Atom  46H    basis set group =>   2
Atom  47H    basis set group =>   2

Checking for AutoStart:
The File: EPRII_i.gbw exists
Trying to determine its content:
     ... Fine, the file contains calculation information
     ... Fine, the calculation information was read
     ... Fine, the file contains a basis set
     ... Fine, the basis set was read
     ... Fine, the file contains a geometry
     ... Fine, the geometry was read
     ... Fine, the file contains a set of orbitals
     ... Fine, the orbitals can be read
     => possible old guess file was deleted
     => GBW file was renamed to GES file
     => GES file is set as startup file
     => Guess is set to MORead
     ... now leaving AutoStart



           ************************************************************
           *        Program running with 16 parallel MPI-processes    *
           *              working on a common directory               *
           ************************************************************
------------------------------------------------------------------------------
                           ORCA GTO INTEGRAL CALCULATION
                           -- RI-GTO INTEGRALS CHOSEN --
------------------------------------------------------------------------------
------------------------------------------------------------------------------
                   ___                                                        
                  /   \      - P O W E R E D   B Y -                         
                 /     \                                                     
                 |  |  |   _    _      __       _____    __    __             
                 |  |  |  | |  | |    /  \     |  _  \  |  |  /  |          
                  \  \/   | |  | |   /    \    | | | |  |  | /  /          
                 / \  \   | |__| |  /  /\  \   | |_| |  |  |/  /          
                |  |  |   |  __  | /  /__\  \  |    /   |      \           
                |  |  |   | |  | | |   __   |  |    \   |  |\   \          
                \     /   | |  | | |  |  |  |  | |\  \  |  | \   \       
                 \___/    |_|  |_| |__|  |__|  |_| \__\ |__|  \__/        
                                                                              
                      - O R C A' S   B I G   F R I E N D -                    
                                      &                                       
                       - I N T E G R A L  F E E D E R -                       
                                                                              
 v1 FN, 2020, v2 2021                                                         
------------------------------------------------------------------------------


Reading SHARK input file EPRII_i.SHARKINP.tmp ... ok
----------------------
SHARK INTEGRAL PACKAGE
----------------------

Number of atoms                             ...     48
Number of basis functions                   ...    566
Number of shells                            ...    332
Maximum angular momentum                    ...      2
Integral batch strategy                     ... SHARK/LIBINT Hybrid
RI-J (if used) integral strategy            ... SPLIT-RIJ (Revised 2003 algorithm where possible)
Printlevel                                  ...      1
Contraction scheme used                     ... SEGMENTED contraction
Coulomb Range Separation                    ... NOT USED
Exchange Range Separation                   ... NOT USED
Finite Nucleus Model                        ... NOT USED
Auxiliary Coulomb fitting basis             ... AVAILABLE
   # of basis functions in Aux-J            ...   3940
   # of shells in Aux-J                     ...   1562
   Maximum angular momentum in Aux-J        ...      3
Auxiliary J/K fitting basis                 ... AVAILABLE
   # of basis functions in Aux-JK           ...   3940
   # of shells in Aux-JK                    ...   1562
   Maximum angular momentum in Aux-JK       ...      3
Auxiliary Correlation fitting basis         ... AVAILABLE
   # of basis functions in Aux-C            ...   3940
   # of shells in Aux-C                     ...   1562
   Maximum angular momentum in Aux-C        ...      3
Auxiliary 'external' fitting basis          ... NOT available
Integral threshold                          ...     1.000000e-10
Primitive cut-off                           ...     1.000000e-11
Primitive pair pre-selection threshold      ...     1.000000e-11

Calculating pre-screening integrals         ... done (  0.0 sec) Dimension = 332
Organizing shell pair data                  ... done (  0.2 sec)
Shell pair information
Total number of shell pairs                 ...     55278
Shell pairs after pre-screening             ...     28144
Total number of primitive shell pairs       ...    148139
Primitive shell pairs kept                  ...     53049
          la=0 lb=0:  12944 shell pairs
          la=1 lb=0:   9692 shell pairs
          la=1 lb=1:   1734 shell pairs
          la=2 lb=0:   2627 shell pairs
          la=2 lb=1:    995 shell pairs
          la=2 lb=2:    152 shell pairs

Calculating one electron integrals          ... done (  0.0 sec)
Calculating RI/J V-Matrix + Cholesky decomp.... done (  0.9 sec)
Calculating RI/JK V-Matrix + Cholesky decomp... done (  0.9 sec)
Calculating RI/C V-Matrix + Cholesky decomp.... done (  0.9 sec)
Calculating Nuclear repulsion               ... done (  0.0 sec) ENN=   1629.446539159833 Eh

SHARK setup successfully completed in   3.4 seconds

Maximum memory used throughout the entire GTOINT-calculation: 56.4 MB


           ************************************************************
           *        Program running with 16 parallel MPI-processes    *
           *              working on a common directory               *
           ************************************************************
-------------------------------------------------------------------------------
                                 ORCA SCF
-------------------------------------------------------------------------------

------------
SCF SETTINGS
------------
Hamiltonian:
 Density Functional     Method          .... DFT(GTOs)
 Exchange Functional    Exchange        .... B88
   X-Alpha parameter    XAlpha          ....  0.666667
   Becke's b parameter  XBeta           ....  0.004200
 Correlation Functional Correlation     .... LYP
 LDA part of GGA corr.  LDAOpt          .... VWN-5
 Gradients option       PostSCFGGA      .... off
 Hybrid DFT is turned on
   Fraction HF Exchange ScalHFX         ....  0.200000
   Scaling of DF-GGA-X  ScalDFX         ....  0.720000
   Scaling of DF-GGA-C  ScalDFC         ....  0.810000
   Scaling of DF-LDA-C  ScalLDAC        ....  1.000000
   Perturbative correction              ....  0.000000
   Density functional embedding theory  .... OFF
   NL short-range parameter             ....  4.800000
 RI-approximation to the Coulomb term is turned on
   Number of AuxJ basis functions       .... 3940
   RIJ-COSX (HFX calculated with COS-X)).... on


General Settings:
 Integral files         IntName         .... EPRII_i
 Hartree-Fock type      HFTyp           .... UHF
 Total Charge           Charge          ....    0
 Multiplicity           Mult            ....    2
 Number of Electrons    NEL             ....  163
 Basis Dimension        Dim             ....  566
 Nuclear Repulsion      ENuc            ....   1629.4465391598 Eh

Convergence Acceleration:
 DIIS                   CNVDIIS         .... on
   Start iteration      DIISMaxIt       ....    12
   Startup error        DIISStart       ....  0.200000
   # of expansion vecs  DIISMaxEq       ....     5
   Bias factor          DIISBfac        ....   1.050
   Max. coefficient     DIISMaxC        ....  10.000
 Trust-Rad. Augm. Hess. CNVTRAH         .... auto
   Auto Start mean grad. ratio tolernc. ....  1.125000
   Auto Start start iteration           ....     1
   Auto Start num. interpolation iter.  ....    10
   Max. Number of Micro iterations      ....    16
   Max. Number of Macro iterations      .... Maxiter - #DIIS iter
   Number of Davidson start vectors     ....     2
   Converg. threshold I  (grad. norm)   ....   5.000e-05
   Converg. threshold II (energy diff.) ....   1.000e-06
   Grad. Scal. Fac. for Micro threshold ....   0.100
   Minimum threshold for Micro iter.    ....   0.010
   NR start threshold (gradient norm)   ....   0.001
   Initial trust radius                 ....   0.400
   Minimum AH scaling param. (alpha)    ....   1.000
   Maximum AH scaling param. (alpha)    .... 1000.000
   Orbital update algorithm             .... Taylor
   White noise on init. David. guess    .... on
   Maximum white noise                  ....   0.010
   Quad. conv. algorithm                .... NR
 SOSCF                  CNVSOSCF        .... off
 Level Shifting         CNVShift        .... on
   Level shift para.    LevelShift      ....    0.2500
   Turn off err/grad.   ShiftErr        ....    0.0010
 Zerner damping         CNVZerner       .... off
 Static damping         CNVDamp         .... on
   Fraction old density DampFac         ....    0.7000
   Max. Damping (<1)    DampMax         ....    0.9800
   Min. Damping (>=0)   DampMin         ....    0.0000
   Turn off err/grad.   DampErr         ....    0.1000
 Fernandez-Rico         CNVRico         .... off

SCF Procedure:
 Maximum # iterations   MaxIter         ....   125
 SCF integral mode      SCFMode         .... Direct
   Integral package                     .... SHARK and LIBINT hybrid scheme
 Reset frequency        DirectResetFreq ....    20
 Integral Threshold     Thresh          ....  1.000e-10 Eh
 Primitive CutOff       TCut            ....  1.000e-11 Eh

Convergence Tolerance:
 Convergence Check Mode ConvCheckMode   .... Total+1el-Energy
 Convergence forced     ConvForced      .... 0
 Energy Change          TolE            ....  1.000e-06 Eh
 1-El. energy change                    ....  1.000e-03 Eh
 DIIS Error             TolErr          ....  1.000e-06


Diagonalization of the overlap matrix:
Smallest eigenvalue                        ... 7.359e-05
Time for diagonalization                   ...    0.082 sec
Threshold for overlap eigenvalues          ... 1.000e-08
Number of eigenvalues below threshold      ... 0
Time for construction of square roots      ...    0.060 sec
Total time needed                          ...    0.144 sec

---------------------
INITIAL GUESS: MOREAD
---------------------
Guess MOs are being read from file: EPRII_i.ges
Input geometry compatible with but different from current geometry
Input basis set matches current basis set (good)
MOs were renormalized
MOs were reorthogonalized (Cholesky)
                      ------------------
                      INITIAL GUESS DONE (   0.3 sec)
                      ------------------
-------------------
DFT GRID GENERATION
-------------------

General Integration Accuracy     IntAcc      ... 4.388
Radial Grid Type                 RadialGrid  ... OptM3 with GC (2021)
Angular Grid (max. ang.)         AngularGrid ... 4 (Lebedev-302)
Angular grid pruning method      GridPruning ... 4 (adaptive)
Weight generation scheme         WeightScheme... Becke
Basis function cutoff            BFCut       ... 1.0000e-10
Integration weight cutoff        WCut        ... 1.0000e-14
Angular grids for H and He will be reduced by one unit
Partially contracted basis set               ... off
Rotationally invariant grid construction     ... off

Total number of grid points                  ...   217077
Total number of batches                      ...     3415
Average number of points per batch           ...       63
Average number of grid points per atom       ...     4522
Time for grid setup =    1.374 sec

--------------------
COSX GRID GENERATION
--------------------

GRIDX 1
-------
General Integration Accuracy     IntAcc      ... 3.816
Radial Grid Type                 RadialGrid  ... OptM3 with GC (2021)
Angular Grid (max. ang.)         AngularGrid ... 1 (Lebedev-50)
Angular grid pruning method      GridPruning ... 4 (adaptive)
Weight generation scheme         WeightScheme... Becke
Basis function cutoff            BFCut       ... 1.0000e-10
Integration weight cutoff        WCut        ... 1.0000e-14
Angular grids for H and He will be reduced by one unit
Partially contracted basis set               ... on
Rotationally invariant grid construction     ... off

Total number of grid points                  ...    27664
Total number of batches                      ...      458
Average number of points per batch           ...       60
Average number of grid points per atom       ...      576
UseSFitting                                  ... on

GRIDX 2
-------
General Integration Accuracy     IntAcc      ... 4.020
Radial Grid Type                 RadialGrid  ... OptM3 with GC (2021)
Angular Grid (max. ang.)         AngularGrid ... 2 (Lebedev-110)
Angular grid pruning method      GridPruning ... 4 (adaptive)
Weight generation scheme         WeightScheme... Becke
Basis function cutoff            BFCut       ... 1.0000e-10
Integration weight cutoff        WCut        ... 1.0000e-14
Angular grids for H and He will be reduced by one unit
Partially contracted basis set               ... on
Rotationally invariant grid construction     ... off

Total number of grid points                  ...    58871
Total number of batches                      ...      945
Average number of points per batch           ...       62
Average number of grid points per atom       ...     1226
UseSFitting                                  ... on

GRIDX 3
-------
General Integration Accuracy     IntAcc      ... 4.338
Radial Grid Type                 RadialGrid  ... OptM3 with GC (2021)
Angular Grid (max. ang.)         AngularGrid ... 3 (Lebedev-194)
Angular grid pruning method      GridPruning ... 4 (adaptive)
Weight generation scheme         WeightScheme... Becke
Basis function cutoff            BFCut       ... 1.0000e-10
Integration weight cutoff        WCut        ... 1.0000e-14
Angular grids for H and He will be reduced by one unit
Partially contracted basis set               ... on
Rotationally invariant grid construction     ... off

Total number of grid points                  ...   128758
Total number of batches                      ...     2038
Average number of points per batch           ...       63
Average number of grid points per atom       ...     2682
UseSFitting                                  ... on

Time for X-Grid setup             =    2.419 sec

--------------
SCF ITERATIONS
--------------
ITER       Energy         Delta-E        Max-DP      RMS-DP      [F,P]     Damp
               ***  Starting incremental Fock matrix formation  ***
  0   -890.7350139857   0.000000000000 0.06960126  0.00048488  0.0690134 0.7000
  1   -890.7707501976  -0.035736211918 0.07807230  0.00046482  0.0431512 0.7000
                               ***Turning on DIIS***
  2   -890.7859904168  -0.015240219207 0.13057434  0.00079940  0.0247782 0.0000
  3   -890.8055106353  -0.019520218460 0.06259111  0.00039129  0.0239909 0.0000
  4   -890.8154434479  -0.009932812573 0.04051727  0.00026593  0.0120114 0.0000
  5   -890.8178491384  -0.002405690587 0.01961606  0.00014218  0.0059807 0.0000
  6   -890.8187627758  -0.000913637307 0.01009014  0.00006353  0.0038014 0.0000
  7   -890.8190725550  -0.000309779201 0.00474661  0.00002973  0.0021491 0.0000
  8   -890.8191955401  -0.000122985135 0.00289309  0.00001968  0.0013804 0.0000
  9   -890.8192635764  -0.000068036291 0.00320119  0.00002347  0.0008625 0.0000
               *** Restarting incremental Fock matrix formation ***
                                   *** Resetting DIIS ***
 10   -890.8193052381  -0.000041661716 0.00084274  0.00000880  0.0003719 0.0000
 11   -890.8193054881  -0.000000250033 0.00059572  0.00000538  0.0005293 0.0000
 12   -890.8193099562  -0.000004468037 0.00034269  0.00000183  0.0002194 0.0000
 13   -890.8193106404  -0.000000684203 0.00030526  0.00000215  0.0001608 0.0000
 14   -890.8193110224  -0.000000382020 0.00029519  0.00000130  0.0000806 0.0000
                 **** Energy Check signals convergence ****

               *****************************************************
               *                     SUCCESS                       *
               *           SCF CONVERGED AFTER  15 CYCLES          *
               *****************************************************

Old exchange energy                            =    -25.567698487 Eh
New exchange energy                            =    -25.567682355 Eh
Exchange energy change after final integration =      0.000016132 Eh
Total energy after final integration           =   -890.819294911 Eh
Final COS-X integration done in                =     9.286 sec

----------------
TOTAL SCF ENERGY
----------------

Total Energy       :         -890.81929491 Eh          -24240.42537 eV

Components:
Nuclear Repulsion  :         1629.44653916 Eh           44339.49451 eV
Electronic Energy  :        -2520.26583407 Eh          -68579.91988 eV
One Electron Energy:        -4436.01367107 Eh         -120710.06877 eV
Two Electron Energy:         1915.74783700 Eh           52130.14889 eV
Max COSX asymmetry :            0.00000520 Eh               0.00014 eV

Virial components:
Potential Energy   :        -1774.67764406 Eh          -48291.43378 eV
Kinetic Energy     :          883.85834915 Eh           24051.00841 eV
Virial Ratio       :            2.00787564


DFT components:
N(Alpha)           :       82.000169751598 electrons
N(Beta)            :       81.000168150118 electrons
N(Total)           :      163.000337901717 electrons
E(X)               :     -101.415110218306 Eh       
E(C)               :       -6.328588761584 Eh       
E(XC)              :     -107.743698979890 Eh       
DFET-embed. en.    :        0.000000000000 Eh       

---------------
SCF CONVERGENCE
---------------

  Last Energy change         ...   -2.0607e-08  Tolerance :   1.0000e-06
  Last MAX-Density change    ...    0.0000e+00  Tolerance :   1.0000e-05
  Last RMS-Density change    ...    0.0000e+00  Tolerance :   1.0000e-06
  Last DIIS Error            ...    3.6644e-05  Tolerance :   1.0000e-06

             **** THE GBW FILE WAS UPDATED (EPRII_i.gbw) ****
             **** DENSITY EPRII_i.scfp WAS UPDATED ****
             **** ENERGY FILE WAS UPDATED (EPRII_i.en.tmp) ****
----------------------
UHF SPIN CONTAMINATION
----------------------

Warning: in a DFT calculation there is little theoretical justification to 
         calculate <S**2> as in Hartree-Fock theory. We will do it anyways
         but you should keep in mind that the values have only limited relevance

Expectation value of <S**2>     :     0.756883
Ideal value S*(S+1) for S=0.5   :     0.750000
Deviation                       :     0.006883

             **** THE GBW FILE WAS UPDATED (EPRII_i.gbw) ****
             **** DENSITY EPRII_i.scfp WAS UPDATED ****
----------------
ORBITAL ENERGIES
----------------
                 SPIN UP ORBITALS
  NO   OCC          E(Eh)            E(eV) 
   0   1.0000     -10.252543      -278.9859 
   1   1.0000     -10.244364      -278.7633 
   2   1.0000     -10.228340      -278.3273 
   3   1.0000     -10.227830      -278.3134 
   4   1.0000     -10.222413      -278.1660 
   5   1.0000     -10.222293      -278.1627 
   6   1.0000     -10.221734      -278.1475 
   7   1.0000     -10.221528      -278.1419 
   8   1.0000     -10.220933      -278.1257 
   9   1.0000     -10.219163      -278.0776 
  10   1.0000     -10.219056      -278.0746 
  11   1.0000     -10.215037      -277.9653 
  12   1.0000     -10.210480      -277.8413 
  13   1.0000     -10.196202      -277.4528 
  14   1.0000     -10.190516      -277.2980 
  15   1.0000     -10.189415      -277.2681 
  16   1.0000     -10.188308      -277.2380 
  17   1.0000     -10.187423      -277.2139 
  18   1.0000     -10.184111      -277.1237 
  19   1.0000     -10.182611      -277.0829 
  20   1.0000     -10.178305      -276.9658 
  21   1.0000     -10.176231      -276.9093 
  22   1.0000     -10.173819      -276.8437 
  23   1.0000      -0.882860       -24.0239 
  24   1.0000      -0.878999       -23.9188 
  25   1.0000      -0.823579       -22.4107 
  26   1.0000      -0.809077       -22.0161 
  27   1.0000      -0.795694       -21.6519 
  28   1.0000      -0.787688       -21.4341 
  29   1.0000      -0.771888       -21.0042 
  30   1.0000      -0.767100       -20.8738 
  31   1.0000      -0.743177       -20.2229 
  32   1.0000      -0.732682       -19.9373 
  33   1.0000      -0.704172       -19.1615 
  34   1.0000      -0.676627       -18.4120 
  35   1.0000      -0.655973       -17.8499 
  36   1.0000      -0.636186       -17.3115 
  37   1.0000      -0.625227       -17.0133 
  38   1.0000      -0.624893       -17.0042 
  39   1.0000      -0.597965       -16.2715 
  40   1.0000      -0.581913       -15.8347 
  41   1.0000      -0.567067       -15.4307 
  42   1.0000      -0.558298       -15.1921 
  43   1.0000      -0.536254       -14.5922 
  44   1.0000      -0.519641       -14.1402 
  45   1.0000      -0.496732       -13.5168 
  46   1.0000      -0.483831       -13.1657 
  47   1.0000      -0.476419       -12.9640 
  48   1.0000      -0.473168       -12.8756 
  49   1.0000      -0.471283       -12.8243 
  50   1.0000      -0.452476       -12.3125 
  51   1.0000      -0.441745       -12.0205 
  52   1.0000      -0.440648       -11.9907 
  53   1.0000      -0.428902       -11.6710 
  54   1.0000      -0.428708       -11.6658 
  55   1.0000      -0.425729       -11.5847 
  56   1.0000      -0.419339       -11.4108 
  57   1.0000      -0.413937       -11.2638 
  58   1.0000      -0.410593       -11.1728 
  59   1.0000      -0.399068       -10.8592 
  60   1.0000      -0.383136       -10.4257 
  61   1.0000      -0.378031       -10.2867 
  62   1.0000      -0.376063       -10.2332 
  63   1.0000      -0.368925       -10.0390 
  64   1.0000      -0.367527       -10.0009 
  65   1.0000      -0.365036        -9.9331 
  66   1.0000      -0.360664        -9.8142 
  67   1.0000      -0.349109        -9.4997 
  68   1.0000      -0.336294        -9.1510 
  69   1.0000      -0.332208        -9.0398 
  70   1.0000      -0.331673        -9.0253 
  71   1.0000      -0.328503        -8.9390 
  72   1.0000      -0.327088        -8.9005 
  73   1.0000      -0.323477        -8.8023 
  74   1.0000      -0.322410        -8.7732 
  75   1.0000      -0.290606        -7.9078 
  76   1.0000      -0.288270        -7.8442 
  77   1.0000      -0.274625        -7.4729 
  78   1.0000      -0.258522        -7.0347 
  79   1.0000      -0.249577        -6.7913 
  80   1.0000      -0.236109        -6.4248 
  81   1.0000      -0.163142        -4.4393 
  82   0.0000      -0.113686        -3.0936 
  83   0.0000      -0.044762        -1.2180 
  84   0.0000      -0.029333        -0.7982 
  85   0.0000      -0.011153        -0.3035 
  86   0.0000       0.004968         0.1352 
  87   0.0000       0.017556         0.4777 
  88   0.0000       0.020137         0.5479 
  89   0.0000       0.022196         0.6040 
  90   0.0000       0.025427         0.6919 
  91   0.0000       0.028071         0.7638 
  92   0.0000       0.030772         0.8373 
  93   0.0000       0.035308         0.9608 
  94   0.0000       0.044352         1.2069 
  95   0.0000       0.047453         1.2913 
  96   0.0000       0.052905         1.4396 
  97   0.0000       0.060427         1.6443 
  98   0.0000       0.069324         1.8864 
  99   0.0000       0.077276         2.1028 
 100   0.0000       0.079590         2.1657 
 101   0.0000       0.081607         2.2206 
 102   0.0000       0.090736         2.4691 
 103   0.0000       0.100318         2.7298 
 104   0.0000       0.104624         2.8470 
 105   0.0000       0.111929         3.0457 
 106   0.0000       0.118986         3.2378 
 107   0.0000       0.130057         3.5390 
 108   0.0000       0.133610         3.6357 
 109   0.0000       0.146622         3.9898 
 110   0.0000       0.149122         4.0578 
 111   0.0000       0.155097         4.2204 
 112   0.0000       0.161143         4.3849 
 113   0.0000       0.173045         4.7088 
 114   0.0000       0.174594         4.7510 
 115   0.0000       0.175322         4.7707 
 116   0.0000       0.186378         5.0716 
 117   0.0000       0.186577         5.0770 
 118   0.0000       0.191208         5.2030 
 119   0.0000       0.195427         5.3178 
 120   0.0000       0.197772         5.3816 
 121   0.0000       0.198123         5.3912 
 122   0.0000       0.204101         5.5539 
 123   0.0000       0.207521         5.6469 
 124   0.0000       0.209218         5.6931 
 125   0.0000       0.212383         5.7792 
 126   0.0000       0.213678         5.8145 
 127   0.0000       0.215462         5.8630 
 128   0.0000       0.228506         6.2180 
 129   0.0000       0.231983         6.3126 
 130   0.0000       0.233558         6.3554 
 131   0.0000       0.239876         6.5274 
 132   0.0000       0.243054         6.6138 
 133   0.0000       0.244510         6.6535 
 134   0.0000       0.250757         6.8234 
 135   0.0000       0.251342         6.8394 
 136   0.0000       0.256301         6.9743 
 137   0.0000       0.264689         7.2025 
 138   0.0000       0.265842         7.2339 
 139   0.0000       0.268741         7.3128 
 140   0.0000       0.271123         7.3776 
 141   0.0000       0.273905         7.4533 
 142   0.0000       0.281128         7.6499 
 143   0.0000       0.281396         7.6572 
 144   0.0000       0.284357         7.7377 
 145   0.0000       0.286730         7.8023 
 146   0.0000       0.288683         7.8555 
 147   0.0000       0.295875         8.0512 
 148   0.0000       0.296108         8.0575 
 149   0.0000       0.299485         8.1494 
 150   0.0000       0.300994         8.1905 
 151   0.0000       0.303585         8.2610 
 152   0.0000       0.306327         8.3356 
 153   0.0000       0.308141         8.3850 
 154   0.0000       0.312899         8.5144 
 155   0.0000       0.314305         8.5527 
 156   0.0000       0.324185         8.8215 
 157   0.0000       0.324949         8.8423 
 158   0.0000       0.328144         8.9293 
 159   0.0000       0.331810         9.0290 
 160   0.0000       0.338636         9.2148 
 161   0.0000       0.340486         9.2651 
 162   0.0000       0.340711         9.2712 
 163   0.0000       0.359036         9.7699 
 164   0.0000       0.365833         9.9548 
 165   0.0000       0.368500        10.0274 
 166   0.0000       0.369336        10.0501 
 167   0.0000       0.369757        10.0616 
 168   0.0000       0.371925        10.1206 
 169   0.0000       0.379408        10.3242 
 170   0.0000       0.391219        10.6456 
 171   0.0000       0.393315        10.7027 
 172   0.0000       0.397974        10.8294 
 173   0.0000       0.401735        10.9318 
 174   0.0000       0.404379        11.0037 
 175   0.0000       0.407389        11.0856 
 176   0.0000       0.413964        11.2645 
 177   0.0000       0.416996        11.3470 
 178   0.0000       0.418549        11.3893 
 179   0.0000       0.424038        11.5387 
 180   0.0000       0.427313        11.6278 
 181   0.0000       0.433168        11.7871 
 182   0.0000       0.434160        11.8141 
 183   0.0000       0.436490        11.8775 
 184   0.0000       0.441075        12.0023 
 185   0.0000       0.448439        12.2027 
 186   0.0000       0.452873        12.3233 
 187   0.0000       0.457331        12.4446 
 188   0.0000       0.467161        12.7121 
 189   0.0000       0.471037        12.8176 
 190   0.0000       0.471433        12.8283 
 191   0.0000       0.475344        12.9348 
 192   0.0000       0.480018        13.0620 
 193   0.0000       0.485031        13.1984 
 194   0.0000       0.488703        13.2983 
 195   0.0000       0.500729        13.6255 
 196   0.0000       0.506279        13.7766 
 197   0.0000       0.510291        13.8857 
 198   0.0000       0.516680        14.0596 
 199   0.0000       0.524600        14.2751 
 200   0.0000       0.533177        14.5085 
 201   0.0000       0.536322        14.5941 
 202   0.0000       0.545019        14.8307 
 203   0.0000       0.548057        14.9134 
 204   0.0000       0.550106        14.9691 
 205   0.0000       0.559735        15.2312 
 206   0.0000       0.564017        15.3477 
 207   0.0000       0.564379        15.3575 
 208   0.0000       0.570045        15.5117 
 209   0.0000       0.574637        15.6367 
 210   0.0000       0.591776        16.1031 
 211   0.0000       0.595410        16.2019 
 212   0.0000       0.598021        16.2730 
 213   0.0000       0.613952        16.7065 
 214   0.0000       0.628598        17.1050 
 215   0.0000       0.635561        17.2945 
 216   0.0000       0.647091        17.6082 
 217   0.0000       0.653443        17.7811 
 218   0.0000       0.654301        17.8044 
 219   0.0000       0.664035        18.0693 
 220   0.0000       0.670601        18.2480 
 221   0.0000       0.674438        18.3524 
 222   0.0000       0.696271        18.9465 
 223   0.0000       0.702443        19.1144 
 224   0.0000       0.713507        19.4155 
 225   0.0000       0.745804        20.2944 
 226   0.0000       0.760526        20.6950 
 227   0.0000       0.763207        20.7679 
 228   0.0000       0.772498        21.0207 
 229   0.0000       0.774986        21.0885 
 230   0.0000       0.797562        21.7028 
 231   0.0000       0.806673        21.9507 
 232   0.0000       0.818937        22.2844 
 233   0.0000       0.828064        22.5328 
 234   0.0000       0.836797        22.7704 
 235   0.0000       0.842345        22.9214 
 236   0.0000       0.844747        22.9867 
 237   0.0000       0.846122        23.0242 
 238   0.0000       0.855455        23.2781 
 239   0.0000       0.858174        23.3521 
 240   0.0000       0.862842        23.4791 
 241   0.0000       0.877677        23.8828 
 242   0.0000       0.885531        24.0965 
 243   0.0000       0.890978        24.2447 
 244   0.0000       0.893329        24.3087 
 245   0.0000       0.894912        24.3518 
 246   0.0000       0.905777        24.6475 
 247   0.0000       0.908886        24.7321 
 248   0.0000       0.914361        24.8810 
 249   0.0000       0.918699        24.9991 
 250   0.0000       0.923521        25.1303 
 251   0.0000       0.927972        25.2514 
 252   0.0000       0.929455        25.2918 
 253   0.0000       0.930462        25.3191 
 254   0.0000       0.940267        25.5860 
 255   0.0000       0.943004        25.6604 
 256   0.0000       0.948733        25.8163 
 257   0.0000       0.956456        26.0265 
 258   0.0000       0.965210        26.2647 
 259   0.0000       0.966202        26.2917 
 260   0.0000       0.969024        26.3685 
 261   0.0000       0.973255        26.4836 
 262   0.0000       0.976872        26.5820 
 263   0.0000       0.981761        26.7151 
 264   0.0000       0.982486        26.7348 
 265   0.0000       0.989562        26.9274 
 266   0.0000       0.992713        27.0131 
 267   0.0000       1.003038        27.2940 
 268   0.0000       1.008072        27.4310 
 269   0.0000       1.016380        27.6571 
 270   0.0000       1.021189        27.7880 
 271   0.0000       1.024198        27.8699 
 272   0.0000       1.030962        28.0539 
 273   0.0000       1.036801        28.2128 
 274   0.0000       1.042916        28.3792 
 275   0.0000       1.058541        28.8044 
 276   0.0000       1.059357        28.8266 
 277   0.0000       1.061861        28.8947 
 278   0.0000       1.075111        29.2553 
 279   0.0000       1.086631        29.5687 
 280   0.0000       1.088854        29.6292 
 281   0.0000       1.101822        29.9821 
 282   0.0000       1.103496        30.0277 
 283   0.0000       1.104422        30.0529 
 284   0.0000       1.116673        30.3862 
 285   0.0000       1.122385        30.5416 
 286   0.0000       1.136573        30.9277 
 287   0.0000       1.154042        31.4031 
 288   0.0000       1.154561        31.4172 
 289   0.0000       1.171722        31.8842 
 290   0.0000       1.177015        32.0282 
 291   0.0000       1.178122        32.0583 
 292   0.0000       1.180588        32.1254 
 293   0.0000       1.199505        32.6402 
 294   0.0000       1.203273        32.7427 
 295   0.0000       1.205365        32.7996 
 296   0.0000       1.218517        33.1575 
 297   0.0000       1.223137        33.2832 
 298   0.0000       1.234827        33.6014 
 299   0.0000       1.239128        33.7184 
 300   0.0000       1.241581        33.7851 
 301   0.0000       1.258685        34.2506 
 302   0.0000       1.282109        34.8880 
 303   0.0000       1.286193        34.9991 
 304   0.0000       1.290456        35.1151 
 305   0.0000       1.294909        35.2363 
 306   0.0000       1.304807        35.5056 
 307   0.0000       1.318023        35.8652 
 308   0.0000       1.322692        35.9923 
 309   0.0000       1.332907        36.2702 
 310   0.0000       1.338418        36.4202 
 311   0.0000       1.353126        36.8204 
 312   0.0000       1.357931        36.9512 
 313   0.0000       1.363141        37.0929 
 314   0.0000       1.371126        37.3102 
 315   0.0000       1.381087        37.5813 
 316   0.0000       1.391262        37.8582 
 317   0.0000       1.417182        38.5635 
 318   0.0000       1.419912        38.6378 
 319   0.0000       1.423915        38.7467 
 320   0.0000       1.424681        38.7676 
 321   0.0000       1.427156        38.8349 
 322   0.0000       1.428928        38.8831 
 323   0.0000       1.437854        39.1260 
 324   0.0000       1.438373        39.1401 
 325   0.0000       1.446726        39.3674 
 326   0.0000       1.459891        39.7256 
 327   0.0000       1.478803        40.2403 
 328   0.0000       1.482908        40.3520 
 329   0.0000       1.488036        40.4915 
 330   0.0000       1.489949        40.5436 
 331   0.0000       1.496729        40.7281 
 332   0.0000       1.505309        40.9615 
 333   0.0000       1.512770        41.1646 
 334   0.0000       1.513216        41.1767 
 335   0.0000       1.538589        41.8671 
 336   0.0000       1.548079        42.1254 
 337   0.0000       1.552806        42.2540 
 338   0.0000       1.554754        42.3070 
 339   0.0000       1.556623        42.3579 
 340   0.0000       1.558696        42.4143 
 341   0.0000       1.573232        42.8098 
 342   0.0000       1.578234        42.9459 
 343   0.0000       1.590117        43.2693 
 344   0.0000       1.597371        43.4667 
 345   0.0000       1.601418        43.5768 
 346   0.0000       1.603739        43.6399 
 347   0.0000       1.610830        43.8329 
 348   0.0000       1.611595        43.8537 
 349   0.0000       1.617319        44.0095 
 350   0.0000       1.622014        44.1372 
 351   0.0000       1.625602        44.2349 
 352   0.0000       1.628756        44.3207 
 353   0.0000       1.630769        44.3755 
 354   0.0000       1.636963        44.5440 
 355   0.0000       1.647005        44.8173 
 356   0.0000       1.667105        45.3642 
 357   0.0000       1.670560        45.4582 
 358   0.0000       1.672590        45.5135 
 359   0.0000       1.672988        45.5243 
 360   0.0000       1.683410        45.8079 
 361   0.0000       1.685376        45.8614 
 362   0.0000       1.698554        46.2200 
 363   0.0000       1.701019        46.2871 
 364   0.0000       1.707821        46.4722 
 365   0.0000       1.709544        46.5191 
 366   0.0000       1.724058        46.9140 
 367   0.0000       1.731174        47.1076 
 368   0.0000       1.738500        47.3070 
 369   0.0000       1.743745        47.4497 
 370   0.0000       1.755166        47.7605 
 371   0.0000       1.755957        47.7820 
 372   0.0000       1.758240        47.8442 
 373   0.0000       1.763581        47.9895 
 374   0.0000       1.770931        48.1895 
 375   0.0000       1.771554        48.2064 
 376   0.0000       1.779840        48.4319 
 377   0.0000       1.785153        48.5765 
 378   0.0000       1.794599        48.8335 
 379   0.0000       1.794820        48.8395 
 380   0.0000       1.803195        49.0674 
 381   0.0000       1.819993        49.5245 
 382   0.0000       1.825059        49.6624 
 383   0.0000       1.837414        49.9986 
 384   0.0000       1.843617        50.1674 
 385   0.0000       1.845253        50.2119 
 386   0.0000       1.851533        50.3828 
 387   0.0000       1.876160        51.0529 
 388   0.0000       1.898492        51.6606 
 389   0.0000       1.902639        51.7734 
 390   0.0000       1.914580        52.0984 
 391   0.0000       1.920712        52.2652 
 392   0.0000       1.927417        52.4477 
 393   0.0000       1.941586        52.8333 
 394   0.0000       1.947930        53.0059 
 395   0.0000       1.957931        53.2780 
 396   0.0000       1.959558        53.3223 
 397   0.0000       1.960364        53.3442 
 398   0.0000       1.982861        53.9564 
 399   0.0000       2.011116        54.7252 
 400   0.0000       2.027215        55.1633 
 401   0.0000       2.032634        55.3108 
 402   0.0000       2.048210        55.7346 
 403   0.0000       2.049176        55.7609 
 404   0.0000       2.062660        56.1278 
 405   0.0000       2.079072        56.5744 
 406   0.0000       2.090668        56.8900 
 407   0.0000       2.096124        57.0384 
 408   0.0000       2.130230        57.9665 
 409   0.0000       2.134781        58.0903 
 410   0.0000       2.136349        58.1330 
 411   0.0000       2.158433        58.7340 
 412   0.0000       2.159374        58.7595 
 413   0.0000       2.179898        59.3180 
 414   0.0000       2.209596        60.1262 
 415   0.0000       2.211629        60.1815 
 416   0.0000       2.228876        60.6508 
 417   0.0000       2.237046        60.8731 
 418   0.0000       2.249836        61.2211 
 419   0.0000       2.250517        61.2397 
 420   0.0000       2.256577        61.4046 
 421   0.0000       2.264953        61.6325 
 422   0.0000       2.300684        62.6048 
 423   0.0000       2.306174        62.7542 
 424   0.0000       2.310827        62.8808 
 425   0.0000       2.318979        63.1026 
 426   0.0000       2.320818        63.1527 
 427   0.0000       2.321437        63.1695 
 428   0.0000       2.344761        63.8042 
 429   0.0000       2.348087        63.8947 
 430   0.0000       2.382893        64.8418 
 431   0.0000       2.387126        64.9570 
 432   0.0000       2.397455        65.2381 
 433   0.0000       2.405346        65.4528 
 434   0.0000       2.412871        65.6576 
 435   0.0000       2.418584        65.8130 
 436   0.0000       2.433038        66.2063 
 437   0.0000       2.448776        66.6346 
 438   0.0000       2.448884        66.6375 
 439   0.0000       2.454105        66.7796 
 440   0.0000       2.455380        66.8143 
 441   0.0000       2.470195        67.2174 
 442   0.0000       2.476769        67.3963 
 443   0.0000       2.479522        67.4712 
 444   0.0000       2.492795        67.8324 
 445   0.0000       2.506627        68.2088 
 446   0.0000       2.512078        68.3571 
 447   0.0000       2.518828        68.5408 
 448   0.0000       2.520161        68.5771 
 449   0.0000       2.538964        69.0887 
 450   0.0000       2.544080        69.2279 
 451   0.0000       2.553514        69.4846 
 452   0.0000       2.567753        69.8721 
 453   0.0000       2.573667        70.0331 
 454   0.0000       2.583251        70.2938 
 455   0.0000       2.607636        70.9574 
 456   0.0000       2.609075        70.9965 
 457   0.0000       2.616573        71.2006 
 458   0.0000       2.627705        71.5035 
 459   0.0000       2.629794        71.5603 
 460   0.0000       2.661529        72.4239 
 461   0.0000       2.716868        73.9297 
 462   0.0000       2.731796        74.3360 
 463   0.0000       2.777034        75.5669 
 464   0.0000       2.782251        75.7089 
 465   0.0000       2.816150        76.6314 
 466   0.0000       2.925975        79.6198 
 467   0.0000       3.044749        82.8518 
 468   0.0000       3.232920        87.9722 
 469   0.0000       3.414481        92.9128 
 470   0.0000       4.980274       135.5201 
 471   0.0000       4.983778       135.6155 
 472   0.0000       4.997322       135.9841 
 473   0.0000       5.005601       136.2093 
 474   0.0000       5.008293       136.2826 
 475   0.0000       5.010380       136.3394 
 476   0.0000       5.016380       136.5026 
 477   0.0000       5.029263       136.8532 
 478   0.0000       5.033409       136.9660 
 479   0.0000       5.041961       137.1987 
 480   0.0000       5.046435       137.3205 
 481   0.0000       5.076451       138.1373 
 482   0.0000       5.082244       138.2949 
 483   0.0000       5.164850       140.5427 
 484   0.0000       5.184705       141.0830 
 485   0.0000       5.217360       141.9716 
 486   0.0000       5.230847       142.3386 
 487   0.0000       5.234065       142.4261 
 488   0.0000       5.242372       142.6522 
 489   0.0000       5.259487       143.1179 
 490   0.0000       5.281280       143.7109 
 491   0.0000       5.295596       144.1005 
 492   0.0000       5.299035       144.1941 
 493   0.0000       5.305117       144.3596 
 494   0.0000       5.308096       144.4406 
 495   0.0000       5.346091       145.4745 
 496   0.0000       5.354993       145.7168 
 497   0.0000       5.367141       146.0473 
 498   0.0000       5.395332       146.8144 
 499   0.0000       5.438320       147.9842 
 500   0.0000       5.444235       148.1452 
 501   0.0000       5.466661       148.7554 
 502   0.0000       5.492060       149.4465 
 503   0.0000       5.540542       150.7658 
 504   0.0000       5.551266       151.0576 
 505   0.0000       5.586508       152.0166 
 506   0.0000       5.606765       152.5678 
 507   0.0000       5.629621       153.1898 
 508   0.0000       5.659228       153.9954 
 509   0.0000       5.678755       154.5268 
 510   0.0000       5.736572       156.1001 
 511   0.0000       5.751874       156.5164 
 512   0.0000       5.800165       157.8305 
 513   0.0000       5.849633       159.1766 
 514   0.0000       5.872518       159.7993 
 515   0.0000       5.905561       160.6985 
 516   0.0000       6.123421       166.6268 
 517   0.0000       6.296280       171.3305 
 518   0.0000      29.588206       805.1360 
 519   0.0000      29.714723       808.5787 
 520   0.0000      29.774497       810.2053 
 521   0.0000      29.816911       811.3594 
 522   0.0000      29.838666       811.9514 
 523   0.0000      29.843140       812.0731 
 524   0.0000      29.872443       812.8705 
 525   0.0000      29.950390       814.9916 
 526   0.0000      29.973835       815.6295 
 527   0.0000      29.985537       815.9479 
 528   0.0000      30.021624       816.9299 
 529   0.0000      30.043533       817.5261 
 530   0.0000      30.063795       818.0775 
 531   0.0000      30.110414       819.3460 
 532   0.0000      30.115161       819.4752 
 533   0.0000      30.138153       820.1008 
 534   0.0000      30.184391       821.3590 
 535   0.0000      30.235260       822.7432 
 536   0.0000      30.243237       822.9603 
 537   0.0000      30.271396       823.7266 
 538   0.0000      30.291678       824.2785 
 539   0.0000      30.441988       828.3686 
 540   0.0000      30.519825       830.4867 
 541   0.0000      36.608466       996.1670 
 542   0.0000      36.611915       996.2609 
 543   0.0000      36.624246       996.5964 
 544   0.0000      36.628443       996.7106 
 545   0.0000      36.633627       996.8517 
 546   0.0000      36.637668       996.9616 
 547   0.0000      36.655504       997.4470 
 548   0.0000      36.659906       997.5668 
 549   0.0000      36.667314       997.7683 
 550   0.0000      36.671387       997.8792 
 551   0.0000      36.689986       998.3853 
 552   0.0000      36.703519       998.7535 
 553   0.0000      36.773927      1000.6694 
 554   0.0000      36.811234      1001.6846 
 555   0.0000      36.821285      1001.9581 
 556   0.0000      36.851581      1002.7825 
 557   0.0000      36.862841      1003.0889 
 558   0.0000      36.875391      1003.4304 
 559   0.0000      36.881360      1003.5928 
 560   0.0000      36.917963      1004.5888 
 561   0.0000      36.928990      1004.8889 
 562   0.0000      36.933828      1005.0206 
 563   0.0000      36.992185      1006.6085 
 564   0.0000      37.018340      1007.3202 
 565   0.0000      37.027600      1007.5722 

                 SPIN DOWN ORBITALS
  NO   OCC          E(Eh)            E(eV) 
   0   1.0000     -10.252842      -278.9940 
   1   1.0000     -10.244315      -278.7620 
   2   1.0000     -10.228544      -278.3328 
   3   1.0000     -10.226741      -278.2838 
   4   1.0000     -10.222470      -278.1675 
   5   1.0000     -10.222350      -278.1643 
   6   1.0000     -10.221626      -278.1446 
   7   1.0000     -10.221587      -278.1435 
   8   1.0000     -10.220639      -278.1177 
   9   1.0000     -10.219135      -278.0768 
  10   1.0000     -10.219029      -278.0739 
  11   1.0000     -10.213654      -277.9277 
  12   1.0000     -10.210356      -277.8379 
  13   1.0000     -10.196149      -277.4513 
  14   1.0000     -10.191420      -277.3226 
  15   1.0000     -10.189283      -277.2645 
  16   1.0000     -10.188308      -277.2379 
  17   1.0000     -10.187423      -277.2139 
  18   1.0000     -10.184089      -277.1231 
  19   1.0000     -10.182606      -277.0828 
  20   1.0000     -10.176231      -276.9093 
  21   1.0000     -10.173819      -276.8437 
  22   1.0000     -10.164395      -276.5873 
  23   1.0000      -0.882063       -24.0021 
  24   1.0000      -0.878512       -23.9055 
  25   1.0000      -0.821870       -22.3642 
  26   1.0000      -0.808671       -22.0051 
  27   1.0000      -0.795527       -21.6474 
  28   1.0000      -0.784687       -21.3524 
  29   1.0000      -0.771223       -20.9860 
  30   1.0000      -0.767150       -20.8752 
  31   1.0000      -0.739754       -20.1297 
  32   1.0000      -0.732528       -19.9331 
  33   1.0000      -0.703318       -19.1383 
  34   1.0000      -0.669135       -18.2081 
  35   1.0000      -0.655168       -17.8280 
  36   1.0000      -0.634056       -17.2535 
  37   1.0000      -0.625252       -17.0140 
  38   1.0000      -0.624559       -16.9951 
  39   1.0000      -0.596185       -16.2230 
  40   1.0000      -0.581289       -15.8177 
  41   1.0000      -0.566475       -15.4146 
  42   1.0000      -0.556617       -15.1463 
  43   1.0000      -0.525908       -14.3107 
  44   1.0000      -0.517611       -14.0849 
  45   1.0000      -0.496552       -13.5119 
  46   1.0000      -0.479685       -13.0529 
  47   1.0000      -0.476399       -12.9635 
  48   1.0000      -0.472903       -12.8683 
  49   1.0000      -0.471225       -12.8227 
  50   1.0000      -0.452459       -12.3120 
  51   1.0000      -0.440688       -11.9917 
  52   1.0000      -0.440171       -11.9777 
  53   1.0000      -0.428902       -11.6710 
  54   1.0000      -0.427513       -11.6332 
  55   1.0000      -0.425340       -11.5741 
  56   1.0000      -0.419238       -11.4080 
  57   1.0000      -0.413457       -11.2507 
  58   1.0000      -0.407355       -11.0847 
  59   1.0000      -0.399344       -10.8667 
  60   1.0000      -0.383235       -10.4284 
  61   1.0000      -0.377979       -10.2853 
  62   1.0000      -0.374025       -10.1777 
  63   1.0000      -0.368071       -10.0157 
  64   1.0000      -0.367354        -9.9962 
  65   1.0000      -0.363225        -9.8839 
  66   1.0000      -0.360503        -9.8098 
  67   1.0000      -0.349315        -9.5054 
  68   1.0000      -0.336206        -9.1486 
  69   1.0000      -0.331823        -9.0293 
  70   1.0000      -0.331299        -9.0151 
  71   1.0000      -0.328378        -8.9356 
  72   1.0000      -0.327105        -8.9010 
  73   1.0000      -0.322408        -8.7732 
  74   1.0000      -0.322086        -8.7644 
  75   1.0000      -0.289664        -7.8822 
  76   1.0000      -0.288193        -7.8421 
  77   1.0000      -0.274768        -7.4768 
  78   1.0000      -0.257882        -7.0173 
  79   1.0000      -0.234755        -6.3880 
  80   1.0000      -0.226031        -6.1506 
  81   0.0000      -0.107497        -2.9251 
  82   0.0000      -0.042250        -1.1497 
  83   0.0000      -0.029470        -0.8019 
  84   0.0000      -0.013031        -0.3546 
  85   0.0000      -0.010567        -0.2875 
  86   0.0000       0.005539         0.1507 
  87   0.0000       0.017660         0.4806 
  88   0.0000       0.020616         0.5610 
  89   0.0000       0.025440         0.6923 
  90   0.0000       0.026806         0.7294 
  91   0.0000       0.028156         0.7662 
  92   0.0000       0.031095         0.8461 
  93   0.0000       0.035804         0.9743 
  94   0.0000       0.045131         1.2281 
  95   0.0000       0.047475         1.2919 
[...]
 -----------------------------------------------------------
 Solving for nuclear perturbation:
Forming RHS of the CP-SCF equations         ... 
Calc. nucleus orbit integrals (SHARK)       ... done

------------------------------------------------------------------------------
                           ORCA CP-SCF CALCULATION
------------------------------------------------------------------------------

Input orbitals are from        ... EPRII_i.gbw
Input Perturbation             ... EPRII_i.pin.tmp
Wavefunction output            ... EPRII_i.pout.tmp
Perturbation mode              ... Imaginary perturbation
Solver                         ... POPLE
Max. number of iterations      ... 64
Convergence tolerance          ... 1.000e-03
Integral handling              ... Direct
DFT GridXC                     ... 1
COSX GridX                     ... 1
COSX IntAccX                   ... 3.067
COSX Algorithm                 ... Auto
Number of perturbations        ... 3
Number of operators            ... 2
Orbital ranges used for CP-SCF:
 Operator 0:  Orbitals   0... 81  to  82...565
 Operator 1:  Orbitals   0... 80  to  81...565
Variables per perturbation     ... 78973
DFT calculation                         ... on
XC functional terms                     ... off
Hybrid DFT                              ... on
   Exchange mixing (SCF)                ...  0.200
   Exchange mixing (CP-SCF)             ...  0.200
   GGA exch. scaling(SCF)               ...  0.720
   GGA exch. scaling (CP-SCF)           ...  0.720
   GGA corr. scaling (SCF)              ...  0.810
   GGA corr. scaling (CP-SCF)           ...  0.810

CP-SCF GRID
-----------

General Integration Accuracy     IntAcc      ... 3.467
Radial Grid Type                 RadialGrid  ... OptM3 with GC (2021)
Angular Grid (max. ang.)         AngularGrid ... 1 (Lebedev-50)
Angular grid pruning method      GridPruning ... 4 (adaptive)
Weight generation scheme         WeightScheme... Becke
Basis function cutoff            BFCut       ... 1.0000e-10
Integration weight cutoff        WCut        ... 1.0000e-14
Angular grids for H and He will be reduced by one unit
Partially contracted basis set               ... off
Rotationally invariant grid construction     ... off

Total number of grid points                  ...    30935
Total number of batches                      ...      505
Average number of points per batch           ...       61
Average number of grid points per atom       ...      644

CP-SCF GRIDX
------------

General Integration Accuracy     IntAcc      ... 3.067
Radial Grid Type                 RadialGrid  ... OptM3 with GC (2021)
Angular Grid (max. ang.)         AngularGrid ... 1 (Lebedev-50)
Angular grid pruning method      GridPruning ... 4 (adaptive)
Weight generation scheme         WeightScheme... Becke
Basis function cutoff            BFCut       ... 1.0000e-10
Integration weight cutoff        WCut        ... 1.0000e-14
Angular grids for H and He will be reduced by one unit
Partially contracted basis set               ... on
Rotationally invariant grid construction     ... off

Total number of grid points                  ...    14531
Total number of batches                      ...      257
Average number of points per batch           ...       56
Average number of grid points per atom       ...      303

Memory available               ... 856.2 MB
Memory needed per perturbation ...  18.8 MB
Perturbations treated per batch... 3
Number of batches              ... 1
     CP-SCF ITERATION   0:   4.5976e-02 (   2.3 sec   0/  3 done)
     CP-SCF ITERATION   1:   2.4188e-03 (   2.3 sec   0/  3 done)
     CP-SCF ITERATION   2:   5.0434e-03 (   2.5 sec   2/  3 done)
     CP-SCF ITERATION   3:   2.2297e-03 (   1.7 sec   2/  3 done)
     CP-SCF ITERATION   4:   2.1637e-04 (   1.7 sec   3/  3 done)
                    *** THE CP-SCF HAS CONVERGED ***

Forming final perturbed densities           ... done
Transforming perturbed density to AO basis  ... done

 Raw HFC matrix (all values in MHz): 
 -----------------------------------
                 0.5781              -0.1809              -0.0003
                -0.1809               0.0687              -0.0003
                -0.0003              -0.0003               0.1876

 A(FC)           0.2775               0.2775               0.2775
 A(SD)          -0.2666              -0.0899               0.3565
 A(ORB+DIA)      0.0002               0.0001               0.0018    A(PC) =   0.0007
 A(ORB)          0.0001              -0.0000               0.0018    A(PC) =   0.0006
 A(DIA)          0.0001               0.0001               0.0000    A(PC) =   0.0001
             ----------           ----------           ----------
 A(Tot)          0.0110               0.1876               0.6358    A(iso)=    0.2781
 Orientation: 
  X           0.3038903           -0.0003381            0.9527070
  Y           0.9527041           -0.0023958           -0.3038902
  Z           0.0023852            0.9999971           -0.0004060

Notes:  (1) The A matrix conforms to the "SAI" spin Hamiltonian convention.
        (2) Tensor is right-handed.

 -----------------------------------------------------------
 Nucleus  46H : A:ISTP=    1 I=  0.5 P=533.5514 MHz/au**3
                Q:ISTP=    2 I=  1.0 Q=  0.0029 barn     
 -----------------------------------------------------------
 Solving for nuclear perturbation:
Forming RHS of the CP-SCF equations         ... 
Calc. nucleus orbit integrals (SHARK)       ... done

------------------------------------------------------------------------------
                           ORCA CP-SCF CALCULATION
------------------------------------------------------------------------------

Input orbitals are from        ... EPRII_i.gbw
Input Perturbation             ... EPRII_i.pin.tmp
Wavefunction output            ... EPRII_i.pout.tmp
Perturbation mode              ... Imaginary perturbation
Solver                         ... POPLE
Max. number of iterations      ... 64
Convergence tolerance          ... 1.000e-03
Integral handling              ... Direct
DFT GridXC                     ... 1
COSX GridX                     ... 1
COSX IntAccX                   ... 3.067
COSX Algorithm                 ... Auto
Number of perturbations        ... 3
Number of operators            ... 2
Orbital ranges used for CP-SCF:
 Operator 0:  Orbitals   0... 81  to  82...565
 Operator 1:  Orbitals   0... 80  to  81...565
Variables per perturbation     ... 78973
DFT calculation                         ... on
XC functional terms                     ... off
Hybrid DFT                              ... on
   Exchange mixing (SCF)                ...  0.200
   Exchange mixing (CP-SCF)             ...  0.200
   GGA exch. scaling(SCF)               ...  0.720
   GGA exch. scaling (CP-SCF)           ...  0.720
   GGA corr. scaling (SCF)              ...  0.810
   GGA corr. scaling (CP-SCF)           ...  0.810

CP-SCF GRID
-----------

General Integration Accuracy     IntAcc      ... 3.467
Radial Grid Type                 RadialGrid  ... OptM3 with GC (2021)
Angular Grid (max. ang.)         AngularGrid ... 1 (Lebedev-50)
Angular grid pruning method      GridPruning ... 4 (adaptive)
Weight generation scheme         WeightScheme... Becke
Basis function cutoff            BFCut       ... 1.0000e-10
Integration weight cutoff        WCut        ... 1.0000e-14
Angular grids for H and He will be reduced by one unit
Partially contracted basis set               ... off
Rotationally invariant grid construction     ... off

Total number of grid points                  ...    30935
Total number of batches                      ...      505
Average number of points per batch           ...       61
Average number of grid points per atom       ...      644

CP-SCF GRIDX
------------

General Integration Accuracy     IntAcc      ... 3.067
Radial Grid Type                 RadialGrid  ... OptM3 with GC (2021)
Angular Grid (max. ang.)         AngularGrid ... 1 (Lebedev-50)
Angular grid pruning method      GridPruning ... 4 (adaptive)
Weight generation scheme         WeightScheme... Becke
Basis function cutoff            BFCut       ... 1.0000e-10
Integration weight cutoff        WCut        ... 1.0000e-14
Angular grids for H and He will be reduced by one unit
Partially contracted basis set               ... on
Rotationally invariant grid construction     ... off

Total number of grid points                  ...    14531
Total number of batches                      ...      257
Average number of points per batch           ...       56
Average number of grid points per atom       ...      303

Memory available               ... 855.5 MB
Memory needed per perturbation ...  18.8 MB
Perturbations treated per batch... 3
Number of batches              ... 1
     CP-SCF ITERATION   0:   4.6064e-02 (   2.3 sec   0/  3 done)
     CP-SCF ITERATION   1:   2.6870e-03 (   2.4 sec   0/  3 done)
     CP-SCF ITERATION   2:   7.6427e-03 (   2.2 sec   2/  3 done)
     CP-SCF ITERATION   3:   2.0586e-03 (   1.7 sec   2/  3 done)
     CP-SCF ITERATION   4:   2.1666e-04 (   1.7 sec   3/  3 done)
                    *** THE CP-SCF HAS CONVERGED ***

Forming final perturbed densities           ... done
Transforming perturbed density to AO basis  ... done

 Raw HFC matrix (all values in MHz): 
 -----------------------------------
                 0.5893               0.1497               0.0005
                 0.1496               0.0549              -0.0004
                 0.0005              -0.0004               0.1920

 A(FC)           0.2779               0.2779               0.2779
 A(SD)          -0.2623              -0.0860               0.3483
 A(ORB+DIA)      0.0003               0.0001               0.0021    A(PC) =   0.0008
 A(ORB)          0.0002              -0.0000               0.0021    A(PC) =   0.0007
 A(DIA)          0.0001               0.0001               0.0000    A(PC) =   0.0001
             ----------           ----------           ----------
 A(Tot)          0.0159               0.1920               0.6283    A(iso)=    0.2787
 Orientation: 
  X          -0.2525525           -0.0000569            0.9675832
  Y           0.9675792           -0.0029010            0.2525513
  Z           0.0027926            0.9999958            0.0007877

Notes:  (1) The A matrix conforms to the "SAI" spin Hamiltonian convention.
        (2) Tensor is right-handed.

 -----------------------------------------------------------
 Nucleus  47H : A:ISTP=    1 I=  0.5 P=533.5514 MHz/au**3
                Q:ISTP=    2 I=  1.0 Q=  0.0029 barn     
 -----------------------------------------------------------
 Solving for nuclear perturbation:
Forming RHS of the CP-SCF equations         ... 
Calc. nucleus orbit integrals (SHARK)       ... done

------------------------------------------------------------------------------
                           ORCA CP-SCF CALCULATION
------------------------------------------------------------------------------

Input orbitals are from        ... EPRII_i.gbw
Input Perturbation             ... EPRII_i.pin.tmp
Wavefunction output            ... EPRII_i.pout.tmp
Perturbation mode              ... Imaginary perturbation
Solver                         ... POPLE
Max. number of iterations      ... 64
Convergence tolerance          ... 1.000e-03
Integral handling              ... Direct
DFT GridXC                     ... 1
COSX GridX                     ... 1
COSX IntAccX                   ... 3.067
COSX Algorithm                 ... Auto
Number of perturbations        ... 3
Number of operators            ... 2
Orbital ranges used for CP-SCF:
 Operator 0:  Orbitals   0... 81  to  82...565
 Operator 1:  Orbitals   0... 80  to  81...565
Variables per perturbation     ... 78973
DFT calculation                         ... on
XC functional terms                     ... off
Hybrid DFT                              ... on
   Exchange mixing (SCF)                ...  0.200
   Exchange mixing (CP-SCF)             ...  0.200
   GGA exch. scaling(SCF)               ...  0.720
   GGA exch. scaling (CP-SCF)           ...  0.720
   GGA corr. scaling (SCF)              ...  0.810
   GGA corr. scaling (CP-SCF)           ...  0.810

CP-SCF GRID
-----------

General Integration Accuracy     IntAcc      ... 3.467
Radial Grid Type                 RadialGrid  ... OptM3 with GC (2021)
Angular Grid (max. ang.)         AngularGrid ... 1 (Lebedev-50)
Angular grid pruning method      GridPruning ... 4 (adaptive)
Weight generation scheme         WeightScheme... Becke
Basis function cutoff            BFCut       ... 1.0000e-10
Integration weight cutoff        WCut        ... 1.0000e-14
Angular grids for H and He will be reduced by one unit
Partially contracted basis set               ... off
Rotationally invariant grid construction     ... off

Total number of grid points                  ...    30935
Total number of batches                      ...      505
Average number of points per batch           ...       61
Average number of grid points per atom       ...      644

CP-SCF GRIDX
------------

General Integration Accuracy     IntAcc      ... 3.067
Radial Grid Type                 RadialGrid  ... OptM3 with GC (2021)
Angular Grid (max. ang.)         AngularGrid ... 1 (Lebedev-50)
Angular grid pruning method      GridPruning ... 4 (adaptive)
Weight generation scheme         WeightScheme... Becke
Basis function cutoff            BFCut       ... 1.0000e-10
Integration weight cutoff        WCut        ... 1.0000e-14
Angular grids for H and He will be reduced by one unit
Partially contracted basis set               ... on
Rotationally invariant grid construction     ... off

Total number of grid points                  ...    14531
Total number of batches                      ...      257
Average number of points per batch           ...       56
Average number of grid points per atom       ...      303

Memory available               ... 854.8 MB
Memory needed per perturbation ...  18.8 MB
Perturbations treated per batch... 3
Number of batches              ... 1
     CP-SCF ITERATION   0:   4.1919e-02 (   2.2 sec   0/  3 done)
     CP-SCF ITERATION   1:   1.7254e-03 (   2.3 sec   0/  3 done)
     CP-SCF ITERATION   2:   1.4612e-03 (   2.3 sec   2/  3 done)
     CP-SCF ITERATION   3:   1.0501e-03 (   1.7 sec   2/  3 done)
     CP-SCF ITERATION   4:   8.1381e-05 (   1.6 sec   3/  3 done)
                    *** THE CP-SCF HAS CONVERGED ***

Forming final perturbed densities           ... done
Transforming perturbed density to AO basis  ... done

 Raw HFC matrix (all values in MHz): 
 -----------------------------------
                -0.0454              -0.0705              -0.0001
                -0.0706              -0.1599              -0.0000
                -0.0001              -0.0000              -0.1437

 A(FC)          -0.1167              -0.1167              -0.1167
 A(SD)           0.1041              -0.0271              -0.0770
 A(ORB+DIA)      0.0008               0.0001               0.0002    A(PC) =   0.0003
 A(ORB)          0.0007              -0.0000               0.0002    A(PC) =   0.0003
 A(DIA)          0.0000               0.0001               0.0001    A(PC) =   0.0000
             ----------           ----------           ----------
 A(Tot)         -0.0118              -0.1437              -0.1935    A(iso)=   -0.1163
 Orientation: 
  X           0.9028877            0.0002047            0.4298765
  Y          -0.4298760            0.0021456            0.9028854
  Z          -0.0007376           -0.9999977            0.0020252

Notes:  (1) The A matrix conforms to the "SAI" spin Hamiltonian convention.
        (2) Tensor is right-handed.


--------------------------------------------------------------------------------
----------------------------------------------------------------------------
                           ORCA EULER ANGLE PROGRAM
----------------------------------------------------------------------------

Only g-tensor available        -->  using g-tensor as reference tensor

Reference tensor               ...  g

g-tensor ordering              ...  |g_min> --> |gx>
                                    |g_mid> --> |gy>
                                    |g_max> --> |gz>

A- and EFG-tensor ordering     ...  the axes |Ax>, |Qx>, |Ay>, etc. are assigned
                                    such that the Euler rotation is minimal. You
                                    can find the respective eigenvalues as Ax,
                                    EFGx, Ay, etc. in the tables below.
                                    The relation of |Ax>, |Ay>,  etc. to Amin, Amid, etc.
                                    (as printed in the ORCA EPR/NMR CALCULATION Output)
                                    is obtained in the detailed printout.

Euler rotation around          ...  z - y - z
   First rotation              -->  by alpha around z
   Second rotation             -->  by beta around y'
   Third rotation              -->  by gamma around z''
   Positive / Negative angle   -->  clockwise / counterclockwise rotation

Plot EFG-tensors                    (-)
Plot HFC-tensors                    (-)
Detailed Printout                   (-)

-------------------------------------------------------------------------
          Euler rotation of hyperfine tensor to g-tensor
-------------------------------------------------------------------------

-------------------------------------------------------------------
 Atom  |   Alpha    Beta    Gamma   |   Ax       Ay       Az 
       |          [degrees]         |           [MHz]         
-------------------------------------------------------------------
  8H       -0.1     21.6     -0.0       4.59     4.52     7.64
  9H        0.1     25.0     -0.3       8.45    -7.83    -4.02
 11H      121.2     40.7   -136.1       7.86    -3.05    -4.49
 12H     -121.1     40.8    135.7       7.85    -3.09    -4.53
 14H      168.0     39.9    179.2       2.00    -0.33    -0.31
 15H     -168.3     39.8   -179.0       1.99    -0.34    -0.32
 17H      119.2     19.4   -106.9       1.22    -0.65    -0.61
 18H     -119.2     19.4    106.7       1.21    -0.65    -0.61
 20H      154.1     28.9   -142.4       0.48    -0.24    -0.24
 21H     -154.4     28.8    142.7       0.48    -0.24    -0.24
 23H     -178.6     33.9    155.8      -0.31    -0.12     1.49
 24H      178.6     33.9   -156.0      -0.30    -0.12     1.49
 26H      -12.2     29.1     27.4       1.50    -0.89    -0.79
 27H       12.1     29.1    -27.5       1.50    -0.89    -0.79
 29H      -28.8     45.0     27.7       0.50    -0.22    -0.23
 30H       28.4     44.8    -27.4       0.50    -0.22    -0.23
 32H       58.6     36.7    -71.9       0.47    -0.23    -0.23
 33H      -58.6     36.7     71.7       0.47    -0.23    -0.23
 35H     -179.7     14.4    179.7       0.39    -0.23    -0.22
 36H       -5.1     24.6      5.5       0.28    -0.15    -0.15
 43H     -179.9      2.1    179.8       0.43     0.27     0.22
 44H     -180.0     28.1    179.9      -0.20    -0.14    -0.01
 45H       -0.0     12.6     -0.0       0.01     0.19     0.64
 46H      180.0     19.7    179.9       0.02     0.19     0.63
 47H       -0.0     20.4     -0.0      -0.19    -0.14    -0.01
-------------------------------------------------------------------


Maximum memory used throughout the entire EPRNMR-calculation: 267.0 MB

Timings for individual modules:

Sum of individual times         ...     5163.797 sec (=  86.063 min)
GTO integral calculation        ...        5.716 sec (=   0.095 min)   0.1 %
Spin-Orbit-Coupling Matrices    ...       13.467 sec (=   0.224 min)   0.3 %
SCF iterations                  ...      117.575 sec (=   1.960 min)   2.3 %
EPR/NMR calculation             ...     5027.039 sec (=  83.784 min)  97.4 %
                             ****ORCA TERMINATED NORMALLY****
TOTAL RUN TIME: 0 days 1 hours 26 minutes 8 seconds 319 msec
