
                                 *****************
                                 * O   R   C   A *
                                 *****************

                                            #,                                       
                                            ###                                      
                                            ####                                     
                                            #####                                    
                                            ######                                   
                                           ########,                                 
                                     ,,################,,,,,                         
                               ,,#################################,,                 
                          ,,##########################################,,             
                       ,#########################################, ''#####,          
                    ,#############################################,,   '####,        
                  ,##################################################,,,,####,       
                ,###########''''           ''''###############################       
              ,#####''   ,,,,##########,,,,          '''####'''          '####       
            ,##' ,,,,###########################,,,                        '##       
           ' ,,###''''                  '''############,,,                           
         ,,##''                                '''############,,,,        ,,,,,,###''
      ,#''                                            '''#######################'''  
     '                                                          ''''####''''         
             ,#######,   #######,   ,#######,      ##                                
            ,#'     '#,  ##    ##  ,#'     '#,    #''#        ######   ,####,        
            ##       ##  ##   ,#'  ##            #'  '#       #        #'  '#        
            ##       ##  #######   ##           ,######,      #####,   #    #        
            '#,     ,#'  ##    ##  '#,     ,#' ,#      #,         ##   #,  ,#        
             '#######'   ##     ##  '#######'  #'      '#     #####' # '####'        



                  #######################################################
                  #                        -***-                        #
                  #          Department of theory and spectroscopy      #
                  #    Directorship and core code : Frank Neese         #
                  #        Max Planck Institute fuer Kohlenforschung    #
                  #                Kaiser Wilhelm Platz 1               #
                  #                 D-45470 Muelheim/Ruhr               #
                  #                      Germany                        #
                  #                                                     #
                  #                  All rights reserved                #
                  #                        -***-                        #
                  #######################################################


                         Program Version 5.0.4 -  RELEASE  -


 With contributions from (in alphabetic order):
   Daniel Aravena         : Magnetic Suceptibility
   Michael Atanasov       : Ab Initio Ligand Field Theory (pilot matlab implementation)
   Alexander A. Auer      : GIAO ZORA, VPT2 properties, NMR spectrum
   Ute Becker             : Parallelization
   Giovanni Bistoni       : ED, misc. LED, open-shell LED, HFLD
   Martin Brehm           : Molecular dynamics
   Dmytro Bykov           : SCF Hessian
   Vijay G. Chilkuri      : MRCI spin determinant printing, contributions to CSF-ICE
   Dipayan Datta          : RHF DLPNO-CCSD density
   Achintya Kumar Dutta   : EOM-CC, STEOM-CC
   Dmitry Ganyushin       : Spin-Orbit,Spin-Spin,Magnetic field MRCI
   Miquel Garcia          : C-PCM and meta-GGA Hessian, CC/C-PCM, Gaussian charge scheme
   Yang Guo               : DLPNO-NEVPT2, F12-NEVPT2, CIM, IAO-localization
   Andreas Hansen         : Spin unrestricted coupled pair/coupled cluster methods
   Benjamin Helmich-Paris : MC-RPA, TRAH-SCF, COSX integrals
   Lee Huntington         : MR-EOM, pCC
   Robert Izsak           : Overlap fitted RIJCOSX, COSX-SCS-MP3, EOM
   Marcus Kettner         : VPT2
   Christian Kollmar      : KDIIS, OOCD, Brueckner-CCSD(T), CCSD density, CASPT2, CASPT2-K
   Simone Kossmann        : Meta GGA functionals, TD-DFT gradient, OOMP2, MP2 Hessian
   Martin Krupicka        : Initial AUTO-CI
   Lucas Lang             : DCDCAS
   Marvin Lechner         : AUTO-CI (C++ implementation), FIC-MRCC
   Dagmar Lenk            : GEPOL surface, SMD
   Dimitrios Liakos       : Extrapolation schemes; Compound Job, initial MDCI parallelization
   Dimitrios Manganas     : Further ROCIS development; embedding schemes
   Dimitrios Pantazis     : SARC Basis sets
   Anastasios Papadopoulos: AUTO-CI, single reference methods and gradients
   Taras Petrenko         : DFT Hessian,TD-DFT gradient, ASA, ECA, R-Raman, ABS, FL, XAS/XES, NRVS
   Peter Pinski           : DLPNO-MP2, DLPNO-MP2 Gradient
   Christoph Reimann      : Effective Core Potentials
   Marius Retegan         : Local ZFS, SOC
   Christoph Riplinger    : Optimizer, TS searches, QM/MM, DLPNO-CCSD(T), (RO)-DLPNO pert. Triples
   Tobias Risthaus        : Range-separated hybrids, TD-DFT gradient, RPA, STAB
   Michael Roemelt        : Original ROCIS implementation
   Masaaki Saitow         : Open-shell DLPNO-CCSD energy and density
   Barbara Sandhoefer     : DKH picture change effects
   Avijit Sen             : IP-ROCIS
   Kantharuban Sivalingam : CASSCF convergence, NEVPT2, FIC-MRCI
   Bernardo de Souza      : ESD, SOC TD-DFT
   Georgi Stoychev        : AutoAux, RI-MP2 NMR, DLPNO-MP2 response
   Willem Van den Heuvel  : Paramagnetic NMR
   Boris Wezisla          : Elementary symmetry handling
   Frank Wennmohs         : Technical directorship


 We gratefully acknowledge several colleagues who have allowed us to
 interface, adapt or use parts of their codes:
   Stefan Grimme, W. Hujo, H. Kruse, P. Pracht,  : VdW corrections, initial TS optimization,
                  C. Bannwarth, S. Ehlert          DFT functionals, gCP, sTDA/sTD-DF
   Ed Valeev, F. Pavosevic, A. Kumar             : LibInt (2-el integral package), F12 methods
   Garnet Chan, S. Sharma, J. Yang, R. Olivares  : DMRG
   Ulf Ekstrom                                   : XCFun DFT Library
   Mihaly Kallay                                 : mrcc  (arbitrary order and MRCC methods)
   Jiri Pittner, Ondrej Demel                    : Mk-CCSD
   Frank Weinhold                                : gennbo (NPA and NBO analysis)
   Christopher J. Cramer and Donald G. Truhlar   : smd solvation model
   Lars Goerigk                                  : TD-DFT with DH, B97 family of functionals
   V. Asgeirsson, H. Jonsson                     : NEB implementation
   FAccTs GmbH                                   : IRC, NEB, NEB-TS, DLPNO-Multilevel, CI-OPT
                                                   MM, QMMM, 2- and 3-layer-ONIOM, Crystal-QMMM,
                                                   LR-CPCM, SF, NACMEs, symmetry and pop. for TD-DFT,
                                                   nearIR, NL-DFT gradient (VV10), updates on ESD,
                                                   ML-optimized integration grids
   S Lehtola, MJT Oliveira, MAL Marques          : LibXC Library
   Liviu Ungur et al                             : ANISO software


 Your calculation uses the libint2 library for the computation of 2-el integrals
 For citations please refer to: http://libint.valeyev.net

 Your ORCA version has been built with support for libXC version: 5.1.0
 For citations please refer to: https://tddft.org/programs/libxc/

 This ORCA versions uses:
   CBLAS   interface :  Fast vector & matrix operations
   LAPACKE interface :  Fast linear algebra routines
   SCALAPACK package :  Parallel linear algebra routines
   Shared memory     :  Shared parallel matrices
   BLAS/LAPACK       :  OpenBLAS 0.3.15  USE64BITINT DYNAMIC_ARCH NO_AFFINITY SkylakeX SINGLE_THREADED
        Core in use  :  SkylakeX
   Copyright (c) 2011-2014, The OpenBLAS Project




***************************************
The coordinates will be read from file: opt.xyz
***************************************


================================================================================

----- Orbital basis set information -----
Your calculation utilizes the basis: EPR-II
   V. Barone, in Recent Advances in Density Functional Methods, Part 1 (ed. D. P. Chong), World Scientific, Singapore, 1995, p. 287.

----- AuxJ basis set information -----
Your calculation utilizes the AutoAux generation procedure.
  G. L. Stoychev, A. A. Auer, F. Neese, J. Chem. Theory Comput. 13, 554 (2017)

----- AuxC basis set information -----
Your calculation utilizes the AutoAux generation procedure.
  G. L. Stoychev, A. A. Auer, F. Neese, J. Chem. Theory Comput. 13, 554 (2017)

----- AuxJK basis set information -----
Your calculation utilizes the AutoAux generation procedure.
  G. L. Stoychev, A. A. Auer, F. Neese, J. Chem. Theory Comput. 13, 554 (2017)

================================================================================
                                        WARNINGS
                       Please study these warnings very carefully!
================================================================================

WARNING: Old DensityContainer found on disk!
         Will remove this file - 
         If you want to keep old densities, please start your calculation with a different basename. 


WARNING: your system is open-shell and RHF/RKS was chosen
  ===> : WILL SWITCH to UHF/UKS


INFO   : the flag for use of the SHARK integral package has been found!

================================================================================
                                       INPUT FILE
================================================================================
NAME = EPRII_i.inp
|  1> ! B3LYP EPR-II AUTOAUX
|  2> %pal nprocs 16 end
|  3> *XYZFile 0 4 opt.xyz
|  4> %EPRNMR
|  5>         GTENSOR   TRUE
|  6>         NUCLEI    = ALL H {SHIFT, AISO, ADIP, AORB}
|  7>         ORI       GIAO
|  8> END
|  9> 
| 10>                          ****END OF INPUT****
================================================================================

                       ****************************
                       * Single Point Calculation *
                       ****************************

---------------------------------
CARTESIAN COORDINATES (ANGSTROEM)
---------------------------------
  C     -2.832372    0.020293   -0.012674
  C      2.815948   -0.003360   -0.008875
  C     -1.420433    0.002453   -0.011651
  C     -0.709375   -1.248719   -0.014317
  C      0.676247   -1.190347   -0.013098
  C      1.395990    0.032013   -0.009547
  C      0.690981    1.274503   -0.006793
  C     -0.695552    1.234643   -0.007923
  H      1.255523   -2.114320   -0.015016
  H     -1.274064    2.157630   -0.005970
  C     -1.489895   -2.544872   -0.018304
  H     -2.165019   -2.534890   -0.894888
  H     -2.166965   -2.539083    0.856814
  C     -0.678575   -3.843149   -0.020503
  H     -0.014665   -3.868142   -0.904151
  H     -0.016787   -3.872413    0.864608
  C     -1.565109   -5.094476   -0.024598
  H     -2.232311   -5.070651    0.856894
  H     -2.230018   -5.066520   -0.907703
  C     -0.764607   -6.399272   -0.026630
  H     -0.116223   -6.472896    0.863534
  H     -0.113640   -6.468533   -0.915256
  C      1.471273    2.575323   -0.002841
  H      2.146769    2.566888    0.872422
  H      2.148153    2.571347   -0.877069
  C      0.658643    3.872512   -0.000192
  H     -0.003508    3.902839   -0.885023
  H     -0.005190    3.898229    0.883519
  C      1.545480    5.123771    0.003914
  H      2.210563    5.095343    0.886947
  H      2.212467    5.099765   -0.877811
  C      0.745911    6.429167    0.006343
  H      0.095138    6.498653    0.895068
  H      0.097365    6.503336   -0.883633
  C      4.039703   -0.047094   -0.010051
  H     -1.427402   -7.279815   -0.029757
  H      1.409174    7.309394    0.009496
  C      5.464853   -0.099872   -0.009745
  C      6.139075   -1.341626   -0.011166
  C      7.532527   -1.388475   -0.010865
  C      8.280425   -0.205272   -0.009185
  C      7.623150    1.030678   -0.007808
  C      6.230136    1.087990   -0.008102
  H      9.372096   -0.246369   -0.008970
  H      8.201473    1.957801   -0.006530
  H      5.554032   -2.263250   -0.012463
  H      5.715792    2.050851   -0.007084
  H      8.040096   -2.356142   -0.011943

----------------------------
CARTESIAN COORDINATES (A.U.)
----------------------------
  NO LB      ZA    FRAG     MASS         X           Y           Z
   0 C     6.0000    0    12.011   -5.352408    0.038349   -0.023950
   1 C     6.0000    0    12.011    5.321371   -0.006349   -0.016770
   2 C     6.0000    0    12.011   -2.684229    0.004635   -0.022017
   3 C     6.0000    0    12.011   -1.340524   -2.359736   -0.027055
   4 C     6.0000    0    12.011    1.277922   -2.249430   -0.024752
   5 C     6.0000    0    12.011    2.638039    0.060496   -0.018041
   6 C     6.0000    0    12.011    1.305765    2.408461   -0.012838
   7 C     6.0000    0    12.011   -1.314403    2.333137   -0.014972
   8 H     1.0000    0     1.008    2.372596   -3.995485   -0.028375
   9 H     1.0000    0     1.008   -2.407632    4.077330   -0.011282
  10 C     6.0000    0    12.011   -2.815494   -4.809112   -0.034589
  11 H     1.0000    0     1.008   -4.091294   -4.790248   -1.691093
  12 H     1.0000    0     1.008   -4.094971   -4.798172    1.619143
  13 C     6.0000    0    12.011   -1.282321   -7.262500   -0.038745
  14 H     1.0000    0     1.008   -0.027712   -7.309728   -1.708597
  15 H     1.0000    0     1.008   -0.031723   -7.317800    1.633873
  16 C     6.0000    0    12.011   -2.957628   -9.627164   -0.046484
  17 H     1.0000    0     1.008   -4.218456   -9.582142    1.619295
  18 H     1.0000    0     1.008   -4.214122   -9.574335   -1.715311
  19 C     6.0000    0    12.011   -1.444898  -12.092871   -0.050324
  20 H     1.0000    0     1.008   -0.219630  -12.232000    1.631843
  21 H     1.0000    0     1.008   -0.214748  -12.223756   -1.729584
  22 C     6.0000    0    12.011    2.780303    4.866655   -0.005369
  23 H     1.0000    0     1.008    4.056805    4.850715    1.648638
  24 H     1.0000    0     1.008    4.059421    4.859141   -1.657420
  25 C     6.0000    0    12.011    1.244655    7.317988   -0.000363
  26 H     1.0000    0     1.008   -0.006629    7.375296   -1.672451
  27 H     1.0000    0     1.008   -0.009808    7.366586    1.669608
  28 C     6.0000    0    12.011    2.920533    9.682524    0.007397
  29 H     1.0000    0     1.008    4.177358    9.628803    1.676087
  30 H     1.0000    0     1.008    4.180957    9.637159   -1.658822
  31 C     6.0000    0    12.011    1.409567   12.149365    0.011986
  32 H     1.0000    0     1.008    0.179785   12.280675    1.691434
  33 H     1.0000    0     1.008    0.183993   12.289523   -1.669824
  34 C     6.0000    0    12.011    7.633932   -0.088996   -0.018993
  35 H     1.0000    0     1.008   -2.697399  -13.756856   -0.056233
  36 H     1.0000    0     1.008    2.662953   13.812753    0.017944
  37 C     6.0000    0    12.011   10.327076   -0.188731   -0.018416
  38 C     6.0000    0    12.011   11.601171   -2.535306   -0.021101
  39 C     6.0000    0    12.011   14.234413   -2.623837   -0.020532
  40 C     6.0000    0    12.011   15.647736   -0.387908   -0.017358
  41 C     6.0000    0    12.011   14.405666    1.947699   -0.014755
  42 C     6.0000    0    12.011   11.773251    2.056004   -0.015310
  43 H     1.0000    0     1.008   17.710695   -0.465570   -0.016951
  44 H     1.0000    0     1.008   15.498538    3.699708   -0.012339
  45 H     1.0000    0     1.008   10.495600   -4.276922   -0.023552
  46 H     1.0000    0     1.008   10.801281    3.875547   -0.013386
  47 H     1.0000    0     1.008   15.193579   -4.452463   -0.022569

--------------------------------
INTERNAL COORDINATES (ANGSTROEM)
--------------------------------
 C      0   0   0     0.000000000000     0.00000000     0.00000000
 C      1   0   0     5.648371411379     0.00000000     0.00000000
 C      1   2   0     1.412052410131     0.48399979     0.00000000
 C      3   1   2     1.439110925347   120.33393721   180.49901129
 C      4   3   1     1.386851603607   117.19774424   180.00093494
 C      5   4   3     1.418522545188   122.90246480     0.00000000
 C      6   5   4     1.428574851022   119.93867313     0.00000000
 C      7   6   5     1.387106522290   117.92445965     0.00000000
 H      5   4   3     1.090546010016   119.67285649   179.99941953
 H      8   7   6     1.089304504246   120.43191416   180.00317804
 C      4   3   1     1.513024414007   119.33438938     0.00000000
 H     11   4   3     1.106476934100   108.00616054    56.35971479
 H     11   4   3     1.106475356934   108.00509203   303.68145240
 C     11   4   3     1.530937224584   116.94238629   180.02130969
 H     14  11   4     1.105547139866   109.78966878   301.77629958
 H     14  11   4     1.105550548860   109.78719729    58.23252965
 C     14  11   4     1.533550540365   112.68135219   180.00388664
 H     17  14  11     1.105782371630   109.21402002   302.33994741
 H     17  14  11     1.105784538256   109.21482005    57.67690433
 C     17  14  11     1.530784472306   113.15404191   180.00798781
 H     20  17  14     1.103727587771   111.28363119    59.86999512
 H     20  17  14     1.103726420698   111.28327752   300.15101945
 C      7   6   5     1.516906313098   119.47159453   179.99285762
 H     23   7   6     1.105645097064   108.04668043   303.67913344
 H     23   7   6     1.105647474934   108.04543251    56.30873167
 C     23   7   6     1.530710492470   116.97761772   179.99278060
 H     26  23   7     1.105571852979   109.86582102   301.73035804
 H     26  23   7     1.105568216179   109.86850634    58.25205801
 C     26  23   7     1.533669768461   112.60758559   179.99214220
 H     29  26  23     1.105843882251   109.20423391   302.32314070
 H     29  26  23     1.105842417270   109.20335069    57.65507529
 C     29  26  23     1.530808990943   113.18492367   179.98964435
 H     32  29  26     1.103705872771   111.28060053    59.84267414
 H     32  29  26     1.103707040443   111.28102452   300.13341799
 C      2   1   3     1.224536319945   178.19073806     3.31639934
 H     20  17  14     1.102117558145   111.50148117   180.01088745
 H     32  29  26     1.102146891879   111.51372945   179.98760947
 C     35   2   6     1.426127577528   179.89990264   310.19601817
 C     38  35   2     1.412986201726   120.62099441    42.32709590
 C     39  38  35     1.394238967254   120.42572579   179.99983889
 C     40  39  38     1.399758125314   120.37123022     0.00000000
 C     41  40  39     1.399851587805   119.69928473     0.00000000
 C     42  41  40     1.394192569463   120.35987142     0.00000000
 H     41  40  39     1.092444106171   120.14088570   180.00092837
 H     42  41  40     1.092710465420   120.04093837   180.00217752
 H     39  38  35     1.091635284161   119.09265827     0.00000000
 H     43  42  41     1.091628016075   120.46637030   180.00332008
 H     40  39  38     1.092706400042   119.60383643   179.99794411

---------------------------
INTERNAL COORDINATES (A.U.)
---------------------------
 C      0   0   0     0.000000000000     0.00000000     0.00000000
 C      1   0   0    10.673875070176     0.00000000     0.00000000
 C      1   2   0     2.668392341891     0.48399979     0.00000000
 C      3   1   2     2.719525525239   120.33393721   180.49901129
 C      4   3   1     2.620769719207   117.19774424   180.00093494
 C      5   4   3     2.680619125199   122.90246480     0.00000000
 C      6   5   4     2.699615230238   119.93867313     0.00000000
 C      7   6   5     2.621251445705   117.92445965     0.00000000
 H      5   4   3     2.060833295371   119.67285649   179.99941953
 H      8   7   6     2.058487189472   120.43191416   180.00317804
 C      4   3   1     2.859201776411   119.33438938     0.00000000
 H     11   4   3     2.090938378949   108.00616054    56.35971479
 H     11   4   3     2.090935398538   108.00509203   303.68145240
 C     11   4   3     2.893052082689   116.94238629   180.02130969
 H     14  11   4     2.089181322486   109.78966878   301.77629958
 H     14  11   4     2.089187764551   109.78719729    58.23252965
 C     14  11   4     2.897990533818   112.68135219   180.00388664
 H     17  14  11     2.089625846098   109.21402002   302.33994741
 H     17  14  11     2.089629940428   109.21482005    57.67690433
 C     17  14  11     2.892763422717   113.15404191   180.00798781
 H     20  17  14     2.085742867341   111.28363119    59.86999512
 H     20  17  14     2.085740661892   111.28327752   300.15101945
 C      7   6   5     2.866537502572   119.47159453   179.99285762
 H     23   7   6     2.089366434764   108.04668043   303.67913344
 H     23   7   6     2.089370928286   108.04543251    56.30873167
 C     23   7   6     2.892623621088   116.97761772   179.99278060
 H     26  23   7     2.089228023501   109.86582102   301.73035804
 H     26  23   7     2.089221150947   109.86850634    58.25205801
 C     26  23   7     2.898215842266   112.60758559   179.99214220
 H     29  26  23     2.089742084327   109.20423391   302.32314070
 H     29  26  23     2.089739315914   109.20335069    57.65507529
 C     29  26  23     2.892809756227   113.18492367   179.98964435
 H     32  29  26     2.085701831937   111.28060053    59.84267414
 H     32  29  26     2.085704038518   111.28102452   300.13341799
 C      2   1   3     2.314038285735   178.19073806     3.31639934
 H     20  17  14     2.082700352280   111.50148117   180.01088745
 H     32  29  26     2.082755785004   111.51372945   179.98760947
 C     35   2   6     2.694990553561   179.89990264   310.19601817
 C     38  35   2     2.670156952272   120.62099441    42.32709590
 C     39  38  35     2.634729813351   120.42572579   179.99983889
 C     40  39  38     2.645159510574   120.37123022     0.00000000
 C     41  40  39     2.645336129086   119.69928473     0.00000000
 C     42  41  40     2.634642134233   120.35987142     0.00000000
 H     41  40  39     2.064420177280   120.14088570   180.00092837
 H     42  41  40     2.064923523314   120.04093837   180.00217752
 H     39  38  35     2.062891725190   119.09265827     0.00000000
 H     43  42  41     2.062877990497   120.46637030   180.00332008
 H     40  39  38     2.064915840862   119.60383643   179.99794411

---------------------
BASIS SET INFORMATION
---------------------
There are 2 groups of distinct atoms

 Group   1 Type C   : 10s5p1d contracted to 6s2p1d pattern {511111/41/1}
 Group   2 Type H   : 6s1p contracted to 4s1p pattern {3111/1}

Atom   0C    basis set group =>   1
Atom   1C    basis set group =>   1
Atom   2C    basis set group =>   1
Atom   3C    basis set group =>   1
Atom   4C    basis set group =>   1
Atom   5C    basis set group =>   1
Atom   6C    basis set group =>   1
Atom   7C    basis set group =>   1
Atom   8H    basis set group =>   2
Atom   9H    basis set group =>   2
Atom  10C    basis set group =>   1
Atom  11H    basis set group =>   2
Atom  12H    basis set group =>   2
Atom  13C    basis set group =>   1
Atom  14H    basis set group =>   2
Atom  15H    basis set group =>   2
Atom  16C    basis set group =>   1
Atom  17H    basis set group =>   2
Atom  18H    basis set group =>   2
Atom  19C    basis set group =>   1
Atom  20H    basis set group =>   2
Atom  21H    basis set group =>   2
Atom  22C    basis set group =>   1
Atom  23H    basis set group =>   2
Atom  24H    basis set group =>   2
Atom  25C    basis set group =>   1
Atom  26H    basis set group =>   2
Atom  27H    basis set group =>   2
Atom  28C    basis set group =>   1
Atom  29H    basis set group =>   2
Atom  30H    basis set group =>   2
Atom  31C    basis set group =>   1
Atom  32H    basis set group =>   2
Atom  33H    basis set group =>   2
Atom  34C    basis set group =>   1
Atom  35H    basis set group =>   2
Atom  36H    basis set group =>   2
Atom  37C    basis set group =>   1
Atom  38C    basis set group =>   1
Atom  39C    basis set group =>   1
Atom  40C    basis set group =>   1
Atom  41C    basis set group =>   1
Atom  42C    basis set group =>   1
Atom  43H    basis set group =>   2
Atom  44H    basis set group =>   2
Atom  45H    basis set group =>   2
Atom  46H    basis set group =>   2
Atom  47H    basis set group =>   2
---------------------------------
AUXILIARY/J BASIS SET INFORMATION
---------------------------------
There are 2 groups of distinct atoms

 Group   1 Type C   : 17s13p12d2f contracted to 17s13p12d2f pattern {11111111111111111/1111111111111/111111111111/11}
 Group   2 Type H   : 15s6p1d contracted to 15s6p1d pattern {111111111111111/111111/1}

Atom   0C    basis set group =>   1
Atom   1C    basis set group =>   1
Atom   2C    basis set group =>   1
Atom   3C    basis set group =>   1
Atom   4C    basis set group =>   1
Atom   5C    basis set group =>   1
Atom   6C    basis set group =>   1
Atom   7C    basis set group =>   1
Atom   8H    basis set group =>   2
Atom   9H    basis set group =>   2
Atom  10C    basis set group =>   1
Atom  11H    basis set group =>   2
Atom  12H    basis set group =>   2
Atom  13C    basis set group =>   1
Atom  14H    basis set group =>   2
Atom  15H    basis set group =>   2
Atom  16C    basis set group =>   1
Atom  17H    basis set group =>   2
Atom  18H    basis set group =>   2
Atom  19C    basis set group =>   1
Atom  20H    basis set group =>   2
Atom  21H    basis set group =>   2
Atom  22C    basis set group =>   1
Atom  23H    basis set group =>   2
Atom  24H    basis set group =>   2
Atom  25C    basis set group =>   1
Atom  26H    basis set group =>   2
Atom  27H    basis set group =>   2
Atom  28C    basis set group =>   1
Atom  29H    basis set group =>   2
Atom  30H    basis set group =>   2
Atom  31C    basis set group =>   1
Atom  32H    basis set group =>   2
Atom  33H    basis set group =>   2
Atom  34C    basis set group =>   1
Atom  35H    basis set group =>   2
Atom  36H    basis set group =>   2
Atom  37C    basis set group =>   1
Atom  38C    basis set group =>   1
Atom  39C    basis set group =>   1
Atom  40C    basis set group =>   1
Atom  41C    basis set group =>   1
Atom  42C    basis set group =>   1
Atom  43H    basis set group =>   2
Atom  44H    basis set group =>   2
Atom  45H    basis set group =>   2
Atom  46H    basis set group =>   2
Atom  47H    basis set group =>   2
---------------------------------
AUXILIARY/C BASIS SET INFORMATION
---------------------------------
There are 2 groups of distinct atoms

 Group   1 Type C   : 17s13p12d2f contracted to 17s13p12d2f pattern {11111111111111111/1111111111111/111111111111/11}
 Group   2 Type H   : 15s6p1d contracted to 15s6p1d pattern {111111111111111/111111/1}

Atom   0C    basis set group =>   1
Atom   1C    basis set group =>   1
Atom   2C    basis set group =>   1
Atom   3C    basis set group =>   1
Atom   4C    basis set group =>   1
Atom   5C    basis set group =>   1
Atom   6C    basis set group =>   1
Atom   7C    basis set group =>   1
Atom   8H    basis set group =>   2
Atom   9H    basis set group =>   2
Atom  10C    basis set group =>   1
Atom  11H    basis set group =>   2
Atom  12H    basis set group =>   2
Atom  13C    basis set group =>   1
Atom  14H    basis set group =>   2
Atom  15H    basis set group =>   2
Atom  16C    basis set group =>   1
Atom  17H    basis set group =>   2
Atom  18H    basis set group =>   2
Atom  19C    basis set group =>   1
Atom  20H    basis set group =>   2
Atom  21H    basis set group =>   2
Atom  22C    basis set group =>   1
Atom  23H    basis set group =>   2
Atom  24H    basis set group =>   2
Atom  25C    basis set group =>   1
Atom  26H    basis set group =>   2
Atom  27H    basis set group =>   2
Atom  28C    basis set group =>   1
Atom  29H    basis set group =>   2
Atom  30H    basis set group =>   2
Atom  31C    basis set group =>   1
Atom  32H    basis set group =>   2
Atom  33H    basis set group =>   2
Atom  34C    basis set group =>   1
Atom  35H    basis set group =>   2
Atom  36H    basis set group =>   2
Atom  37C    basis set group =>   1
Atom  38C    basis set group =>   1
Atom  39C    basis set group =>   1
Atom  40C    basis set group =>   1
Atom  41C    basis set group =>   1
Atom  42C    basis set group =>   1
Atom  43H    basis set group =>   2
Atom  44H    basis set group =>   2
Atom  45H    basis set group =>   2
Atom  46H    basis set group =>   2
Atom  47H    basis set group =>   2
----------------------------------
AUXILIARY/JK BASIS SET INFORMATION
----------------------------------
There are 2 groups of distinct atoms

 Group   1 Type C   : 17s13p12d2f contracted to 17s13p12d2f pattern {11111111111111111/1111111111111/111111111111/11}
 Group   2 Type H   : 15s6p1d contracted to 15s6p1d pattern {111111111111111/111111/1}

Atom   0C    basis set group =>   1
Atom   1C    basis set group =>   1
Atom   2C    basis set group =>   1
Atom   3C    basis set group =>   1
Atom   4C    basis set group =>   1
Atom   5C    basis set group =>   1
Atom   6C    basis set group =>   1
Atom   7C    basis set group =>   1
Atom   8H    basis set group =>   2
Atom   9H    basis set group =>   2
Atom  10C    basis set group =>   1
Atom  11H    basis set group =>   2
Atom  12H    basis set group =>   2
Atom  13C    basis set group =>   1
Atom  14H    basis set group =>   2
Atom  15H    basis set group =>   2
Atom  16C    basis set group =>   1
Atom  17H    basis set group =>   2
Atom  18H    basis set group =>   2
Atom  19C    basis set group =>   1
Atom  20H    basis set group =>   2
Atom  21H    basis set group =>   2
Atom  22C    basis set group =>   1
Atom  23H    basis set group =>   2
Atom  24H    basis set group =>   2
Atom  25C    basis set group =>   1
Atom  26H    basis set group =>   2
Atom  27H    basis set group =>   2
Atom  28C    basis set group =>   1
Atom  29H    basis set group =>   2
Atom  30H    basis set group =>   2
Atom  31C    basis set group =>   1
Atom  32H    basis set group =>   2
Atom  33H    basis set group =>   2
Atom  34C    basis set group =>   1
Atom  35H    basis set group =>   2
Atom  36H    basis set group =>   2
Atom  37C    basis set group =>   1
Atom  38C    basis set group =>   1
Atom  39C    basis set group =>   1
Atom  40C    basis set group =>   1
Atom  41C    basis set group =>   1
Atom  42C    basis set group =>   1
Atom  43H    basis set group =>   2
Atom  44H    basis set group =>   2
Atom  45H    basis set group =>   2
Atom  46H    basis set group =>   2
Atom  47H    basis set group =>   2

Checking for AutoStart:
The File: EPRII_i.gbw exists
Trying to determine its content:
     ... Fine, the file contains calculation information
     ... Fine, the calculation information was read
     ... Fine, the file contains a basis set
     ... Fine, the basis set was read
     ... Fine, the file contains a geometry
     ... Fine, the geometry was read
     ... Fine, the file contains a set of orbitals
     ... Fine, the orbitals can be read
     => possible old guess file was deleted
     => GBW file was renamed to GES file
     => GES file is set as startup file
     => Guess is set to MORead
     ... now leaving AutoStart



           ************************************************************
           *        Program running with 16 parallel MPI-processes    *
           *              working on a common directory               *
           ************************************************************
------------------------------------------------------------------------------
                           ORCA GTO INTEGRAL CALCULATION
                           -- RI-GTO INTEGRALS CHOSEN --
------------------------------------------------------------------------------
------------------------------------------------------------------------------
                   ___                                                        
                  /   \      - P O W E R E D   B Y -                         
                 /     \                                                     
                 |  |  |   _    _      __       _____    __    __             
                 |  |  |  | |  | |    /  \     |  _  \  |  |  /  |          
                  \  \/   | |  | |   /    \    | | | |  |  | /  /          
                 / \  \   | |__| |  /  /\  \   | |_| |  |  |/  /          
                |  |  |   |  __  | /  /__\  \  |    /   |      \           
                |  |  |   | |  | | |   __   |  |    \   |  |\   \          
                \     /   | |  | | |  |  |  |  | |\  \  |  | \   \       
                 \___/    |_|  |_| |__|  |__|  |_| \__\ |__|  \__/        
                                                                              
                      - O R C A' S   B I G   F R I E N D -                    
                                      &                                       
                       - I N T E G R A L  F E E D E R -                       
                                                                              
 v1 FN, 2020, v2 2021                                                         
------------------------------------------------------------------------------


Reading SHARK input file EPRII_i.SHARKINP.tmp ... ok
----------------------
SHARK INTEGRAL PACKAGE
----------------------

Number of atoms                             ...     48
Number of basis functions                   ...    566
Number of shells                            ...    332
Maximum angular momentum                    ...      2
Integral batch strategy                     ... SHARK/LIBINT Hybrid
RI-J (if used) integral strategy            ... SPLIT-RIJ (Revised 2003 algorithm where possible)
Printlevel                                  ...      1
Contraction scheme used                     ... SEGMENTED contraction
Coulomb Range Separation                    ... NOT USED
Exchange Range Separation                   ... NOT USED
Finite Nucleus Model                        ... NOT USED
Auxiliary Coulomb fitting basis             ... AVAILABLE
   # of basis functions in Aux-J            ...   3940
   # of shells in Aux-J                     ...   1562
   Maximum angular momentum in Aux-J        ...      3
Auxiliary J/K fitting basis                 ... AVAILABLE
   # of basis functions in Aux-JK           ...   3940
   # of shells in Aux-JK                    ...   1562
   Maximum angular momentum in Aux-JK       ...      3
Auxiliary Correlation fitting basis         ... AVAILABLE
   # of basis functions in Aux-C            ...   3940
   # of shells in Aux-C                     ...   1562
   Maximum angular momentum in Aux-C        ...      3
Auxiliary 'external' fitting basis          ... NOT available
Integral threshold                          ...     1.000000e-10
Primitive cut-off                           ...     1.000000e-11
Primitive pair pre-selection threshold      ...     1.000000e-11

Calculating pre-screening integrals         ... done (  0.0 sec) Dimension = 332
Organizing shell pair data                  ... done (  0.2 sec)
Shell pair information
Total number of shell pairs                 ...     55278
Shell pairs after pre-screening             ...     28174
Total number of primitive shell pairs       ...    148139
Primitive shell pairs kept                  ...     53071
          la=0 lb=0:  12956 shell pairs
          la=1 lb=0:   9697 shell pairs
          la=1 lb=1:   1735 shell pairs
          la=2 lb=0:   2633 shell pairs
          la=2 lb=1:   1001 shell pairs
          la=2 lb=2:    152 shell pairs

Calculating one electron integrals          ... done (  0.0 sec)
Calculating RI/J V-Matrix + Cholesky decomp.... done (  0.9 sec)
Calculating RI/JK V-Matrix + Cholesky decomp... done (  0.9 sec)
Calculating RI/C V-Matrix + Cholesky decomp.... done (  0.9 sec)
Calculating Nuclear repulsion               ... done (  0.0 sec) ENN=   1629.670574765028 Eh

SHARK setup successfully completed in   3.4 seconds

Maximum memory used throughout the entire GTOINT-calculation: 56.5 MB


           ************************************************************
           *        Program running with 16 parallel MPI-processes    *
           *              working on a common directory               *
           ************************************************************
-------------------------------------------------------------------------------
                                 ORCA SCF
-------------------------------------------------------------------------------

------------
SCF SETTINGS
------------
Hamiltonian:
 Density Functional     Method          .... DFT(GTOs)
 Exchange Functional    Exchange        .... B88
   X-Alpha parameter    XAlpha          ....  0.666667
   Becke's b parameter  XBeta           ....  0.004200
 Correlation Functional Correlation     .... LYP
 LDA part of GGA corr.  LDAOpt          .... VWN-5
 Gradients option       PostSCFGGA      .... off
 Hybrid DFT is turned on
   Fraction HF Exchange ScalHFX         ....  0.200000
   Scaling of DF-GGA-X  ScalDFX         ....  0.720000
   Scaling of DF-GGA-C  ScalDFC         ....  0.810000
   Scaling of DF-LDA-C  ScalLDAC        ....  1.000000
   Perturbative correction              ....  0.000000
   Density functional embedding theory  .... OFF
   NL short-range parameter             ....  4.800000
 RI-approximation to the Coulomb term is turned on
   Number of AuxJ basis functions       .... 3940
   RIJ-COSX (HFX calculated with COS-X)).... on


General Settings:
 Integral files         IntName         .... EPRII_i
 Hartree-Fock type      HFTyp           .... UHF
 Total Charge           Charge          ....    0
 Multiplicity           Mult            ....    4
 Number of Electrons    NEL             ....  163
 Basis Dimension        Dim             ....  566
 Nuclear Repulsion      ENuc            ....   1629.6705747650 Eh

Convergence Acceleration:
 DIIS                   CNVDIIS         .... on
   Start iteration      DIISMaxIt       ....    12
   Startup error        DIISStart       ....  0.200000
   # of expansion vecs  DIISMaxEq       ....     5
   Bias factor          DIISBfac        ....   1.050
   Max. coefficient     DIISMaxC        ....  10.000
 Trust-Rad. Augm. Hess. CNVTRAH         .... auto
   Auto Start mean grad. ratio tolernc. ....  1.125000
   Auto Start start iteration           ....     1
   Auto Start num. interpolation iter.  ....    10
   Max. Number of Micro iterations      ....    16
   Max. Number of Macro iterations      .... Maxiter - #DIIS iter
   Number of Davidson start vectors     ....     2
   Converg. threshold I  (grad. norm)   ....   5.000e-05
   Converg. threshold II (energy diff.) ....   1.000e-06
   Grad. Scal. Fac. for Micro threshold ....   0.100
   Minimum threshold for Micro iter.    ....   0.010
   NR start threshold (gradient norm)   ....   0.001
   Initial trust radius                 ....   0.400
   Minimum AH scaling param. (alpha)    ....   1.000
   Maximum AH scaling param. (alpha)    .... 1000.000
   Orbital update algorithm             .... Taylor
   White noise on init. David. guess    .... on
   Maximum white noise                  ....   0.010
   Quad. conv. algorithm                .... NR
 SOSCF                  CNVSOSCF        .... off
 Level Shifting         CNVShift        .... on
   Level shift para.    LevelShift      ....    0.2500
   Turn off err/grad.   ShiftErr        ....    0.0010
 Zerner damping         CNVZerner       .... off
 Static damping         CNVDamp         .... on
   Fraction old density DampFac         ....    0.7000
   Max. Damping (<1)    DampMax         ....    0.9800
   Min. Damping (>=0)   DampMin         ....    0.0000
   Turn off err/grad.   DampErr         ....    0.1000
 Fernandez-Rico         CNVRico         .... off

SCF Procedure:
 Maximum # iterations   MaxIter         ....   125
 SCF integral mode      SCFMode         .... Direct
   Integral package                     .... SHARK and LIBINT hybrid scheme
 Reset frequency        DirectResetFreq ....    20
 Integral Threshold     Thresh          ....  1.000e-10 Eh
 Primitive CutOff       TCut            ....  1.000e-11 Eh

Convergence Tolerance:
 Convergence Check Mode ConvCheckMode   .... Total+1el-Energy
 Convergence forced     ConvForced      .... 0
 Energy Change          TolE            ....  1.000e-06 Eh
 1-El. energy change                    ....  1.000e-03 Eh
 DIIS Error             TolErr          ....  1.000e-06


Diagonalization of the overlap matrix:
Smallest eigenvalue                        ... 7.436e-05
Time for diagonalization                   ...    0.060 sec
Threshold for overlap eigenvalues          ... 1.000e-08
Number of eigenvalues below threshold      ... 0
Time for construction of square roots      ...    0.066 sec
Total time needed                          ...    0.128 sec

---------------------
INITIAL GUESS: MOREAD
---------------------
Guess MOs are being read from file: EPRII_i.ges
Input geometry compatible with but different from current geometry
Input basis set matches current basis set (good)
MOs were renormalized
MOs were reorthogonalized (Cholesky)
                      ------------------
                      INITIAL GUESS DONE (   0.3 sec)
                      ------------------
-------------------
DFT GRID GENERATION
-------------------

General Integration Accuracy     IntAcc      ... 4.388
Radial Grid Type                 RadialGrid  ... OptM3 with GC (2021)
Angular Grid (max. ang.)         AngularGrid ... 4 (Lebedev-302)
Angular grid pruning method      GridPruning ... 4 (adaptive)
Weight generation scheme         WeightScheme... Becke
Basis function cutoff            BFCut       ... 1.0000e-10
Integration weight cutoff        WCut        ... 1.0000e-14
Angular grids for H and He will be reduced by one unit
Partially contracted basis set               ... off
Rotationally invariant grid construction     ... off

Total number of grid points                  ...   217082
Total number of batches                      ...     3416
Average number of points per batch           ...       63
Average number of grid points per atom       ...     4523
Time for grid setup =    1.314 sec

--------------------
COSX GRID GENERATION
--------------------

GRIDX 1
-------
General Integration Accuracy     IntAcc      ... 3.816
Radial Grid Type                 RadialGrid  ... OptM3 with GC (2021)
Angular Grid (max. ang.)         AngularGrid ... 1 (Lebedev-50)
Angular grid pruning method      GridPruning ... 4 (adaptive)
Weight generation scheme         WeightScheme... Becke
Basis function cutoff            BFCut       ... 1.0000e-10
Integration weight cutoff        WCut        ... 1.0000e-14
Angular grids for H and He will be reduced by one unit
Partially contracted basis set               ... on
Rotationally invariant grid construction     ... off

Total number of grid points                  ...    27656
Total number of batches                      ...      458
Average number of points per batch           ...       60
Average number of grid points per atom       ...      576
UseSFitting                                  ... on

GRIDX 2
-------
General Integration Accuracy     IntAcc      ... 4.020
Radial Grid Type                 RadialGrid  ... OptM3 with GC (2021)
Angular Grid (max. ang.)         AngularGrid ... 2 (Lebedev-110)
Angular grid pruning method      GridPruning ... 4 (adaptive)
Weight generation scheme         WeightScheme... Becke
Basis function cutoff            BFCut       ... 1.0000e-10
Integration weight cutoff        WCut        ... 1.0000e-14
Angular grids for H and He will be reduced by one unit
Partially contracted basis set               ... on
Rotationally invariant grid construction     ... off

Total number of grid points                  ...    58857
Total number of batches                      ...      944
Average number of points per batch           ...       62
Average number of grid points per atom       ...     1226
UseSFitting                                  ... on

GRIDX 3
-------
General Integration Accuracy     IntAcc      ... 4.338
Radial Grid Type                 RadialGrid  ... OptM3 with GC (2021)
Angular Grid (max. ang.)         AngularGrid ... 3 (Lebedev-194)
Angular grid pruning method      GridPruning ... 4 (adaptive)
Weight generation scheme         WeightScheme... Becke
Basis function cutoff            BFCut       ... 1.0000e-10
Integration weight cutoff        WCut        ... 1.0000e-14
Angular grids for H and He will be reduced by one unit
Partially contracted basis set               ... on
Rotationally invariant grid construction     ... off

Total number of grid points                  ...   128750
Total number of batches                      ...     2038
Average number of points per batch           ...       63
Average number of grid points per atom       ...     2682
UseSFitting                                  ... on

Time for X-Grid setup             =    2.367 sec

--------------
SCF ITERATIONS
--------------
ITER       Energy         Delta-E        Max-DP      RMS-DP      [F,P]     Damp
               ***  Starting incremental Fock matrix formation  ***
  0   -890.6051161920   0.000000000000 0.19696877  0.00112674  0.0656392 0.7000
  1   -890.7011466987  -0.096030506646 0.06646448  0.00037667  0.0191133 0.7000
                               ***Turning on DIIS***
  2   -890.7033249179  -0.002178219236 0.29472404  0.00167362  0.0394645 0.0000
  3   -890.7157672677  -0.012442349748 0.10885232  0.00062956  0.0418768 0.0000
  4   -890.7427918055  -0.027024537820 0.04935340  0.00030845  0.0290118 0.0000
  5   -890.7528193532  -0.010027547678 0.05392473  0.00034258  0.0224201 0.0000
  6   -890.7657615313  -0.012942178162 0.02898197  0.00017115  0.0127231 0.0000
  7   -890.7694375941  -0.003676062744 0.01450862  0.00008576  0.0063488 0.0000
  8   -890.7708373317  -0.001399737617 0.00779527  0.00004145  0.0037338 0.0000
  9   -890.7712918661  -0.000454534372 0.00480775  0.00002559  0.0022658 0.0000
 10   -890.7714765023  -0.000184636256 0.00312009  0.00001873  0.0012963 0.0000
 11   -890.7715590380  -0.000082535732 0.00558738  0.00002640  0.0009042 0.0000
               *** Restarting incremental Fock matrix formation ***
                                   *** Resetting DIIS ***
 12   -890.7716093628  -0.000050324786 0.00180789  0.00000985  0.0002330 0.0000
 13   -890.7716066131   0.000002749715 0.00053998  0.00000458  0.0003749 0.0000
 14   -890.7716117376  -0.000005124506 0.00013569  0.00000109  0.0000559 0.0000
 15   -890.7716118858  -0.000000148142 0.00016101  0.00000091  0.0000393 0.0000
                 **** Energy Check signals convergence ****

               *****************************************************
               *                     SUCCESS                       *
               *           SCF CONVERGED AFTER  16 CYCLES          *
               *****************************************************

Old exchange energy                            =    -25.582142538 Eh
New exchange energy                            =    -25.582127217 Eh
Exchange energy change after final integration =      0.000015321 Eh
Total energy after final integration           =   -890.771596608 Eh
Final COS-X integration done in                =     9.537 sec

----------------
TOTAL SCF ENERGY
----------------

Total Energy       :         -890.77159661 Eh          -24239.12744 eV

Components:
Nuclear Repulsion  :         1629.67057477 Eh           44345.59083 eV
Electronic Energy  :        -2520.44217137 Eh          -68584.71826 eV
One Electron Energy:        -4437.48751544 Eh         -120750.17412 eV
Two Electron Energy:         1917.04534407 Eh           52165.45585 eV
Max COSX asymmetry :            0.00000339 Eh               0.00009 eV

Virial components:
Potential Energy   :        -1774.52654011 Eh          -48287.32204 eV
Kinetic Energy     :          883.75494350 Eh           24048.19460 eV
Virial Ratio       :            2.00793959


DFT components:
N(Alpha)           :       83.000176255678 electrons
N(Beta)            :       80.000179744691 electrons
N(Total)           :      163.000356000369 electrons
E(X)               :     -101.461282464383 Eh       
E(C)               :       -6.302284424680 Eh       
E(XC)              :     -107.763566889063 Eh       
DFET-embed. en.    :        0.000000000000 Eh       

---------------
SCF CONVERGENCE
---------------

  Last Energy change         ...   -4.3245e-08  Tolerance :   1.0000e-06
  Last MAX-Density change    ...    0.0000e+00  Tolerance :   1.0000e-05
  Last RMS-Density change    ...    0.0000e+00  Tolerance :   1.0000e-06
  Last DIIS Error            ...    3.2534e-05  Tolerance :   1.0000e-06

             **** THE GBW FILE WAS UPDATED (EPRII_i.gbw) ****
             **** DENSITY EPRII_i.scfp WAS UPDATED ****
             **** ENERGY FILE WAS UPDATED (EPRII_i.en.tmp) ****
----------------------
UHF SPIN CONTAMINATION
----------------------

Warning: in a DFT calculation there is little theoretical justification to 
         calculate <S**2> as in Hartree-Fock theory. We will do it anyways
         but you should keep in mind that the values have only limited relevance

Expectation value of <S**2>     :     3.803436
Ideal value S*(S+1) for S=1.5   :     3.750000
Deviation                       :     0.053436

             **** THE GBW FILE WAS UPDATED (EPRII_i.gbw) ****
             **** DENSITY EPRII_i.scfp WAS UPDATED ****
----------------
ORBITAL ENERGIES
----------------
                 SPIN UP ORBITALS
  NO   OCC          E(Eh)            E(eV) 
   0   1.0000     -10.246929      -278.8331 
   1   1.0000     -10.232539      -278.4415 
   2   1.0000     -10.226960      -278.2897 
   3   1.0000     -10.221841      -278.1504 
   4   1.0000     -10.212523      -277.8969 
   5   1.0000     -10.209105      -277.8039 
   6   1.0000     -10.205252      -277.6990 
   7   1.0000     -10.205118      -277.6954 
   8   1.0000     -10.204901      -277.6895 
   9   1.0000     -10.203831      -277.6603 
  10   1.0000     -10.203672      -277.6560 
  11   1.0000     -10.202629      -277.6276 
  12   1.0000     -10.200332      -277.5652 
  13   1.0000     -10.199640      -277.5463 
  14   1.0000     -10.197865      -277.4980 
  15   1.0000     -10.189828      -277.2793 
  16   1.0000     -10.188029      -277.2304 
  17   1.0000     -10.183650      -277.1112 
  18   1.0000     -10.183135      -277.0972 
  19   1.0000     -10.182915      -277.0912 
  20   1.0000     -10.182576      -277.0820 
  21   1.0000     -10.173835      -276.8441 
  22   1.0000     -10.173522      -276.8356 
  23   1.0000      -0.874733       -23.8027 
  24   1.0000      -0.863312       -23.4919 
  25   1.0000      -0.818428       -22.2706 
  26   1.0000      -0.797247       -21.6942 
  27   1.0000      -0.793845       -21.6016 
  28   1.0000      -0.778046       -21.1717 
  29   1.0000      -0.765256       -20.8237 
  30   1.0000      -0.751331       -20.4448 
  31   1.0000      -0.735599       -20.0167 
  32   1.0000      -0.724307       -19.7094 
  33   1.0000      -0.700161       -19.0523 
  34   1.0000      -0.674628       -18.3576 
  35   1.0000      -0.652363       -17.7517 
  36   1.0000      -0.626190       -17.0395 
  37   1.0000      -0.615610       -16.7516 
  38   1.0000      -0.609508       -16.5856 
  39   1.0000      -0.596306       -16.2263 
  40   1.0000      -0.579038       -15.7564 
  41   1.0000      -0.564597       -15.3635 
  42   1.0000      -0.554329       -15.0841 
  43   1.0000      -0.535599       -14.5744 
  44   1.0000      -0.507756       -13.8168 
  45   1.0000      -0.481004       -13.0888 
  46   1.0000      -0.478042       -13.0082 
  47   1.0000      -0.471600       -12.8329 
  48   1.0000      -0.469891       -12.7864 
  49   1.0000      -0.456993       -12.4354 
  50   1.0000      -0.437922       -11.9165 
  51   1.0000      -0.436992       -11.8911 
  52   1.0000      -0.425544       -11.5797 
  53   1.0000      -0.425310       -11.5733 
  54   1.0000      -0.424572       -11.5532 
  55   1.0000      -0.422134       -11.4868 
  56   1.0000      -0.417510       -11.3610 
  57   1.0000      -0.412170       -11.2157 
  58   1.0000      -0.409968       -11.1558 
  59   1.0000      -0.384919       -10.4742 
  60   1.0000      -0.380743       -10.3605 
  61   1.0000      -0.377477       -10.2717 
  62   1.0000      -0.370026       -10.0689 
  63   1.0000      -0.365241        -9.9387 
  64   1.0000      -0.361974        -9.8498 
  65   1.0000      -0.358862        -9.7651 
  66   1.0000      -0.351676        -9.5696 
  67   1.0000      -0.345859        -9.4113 
  68   1.0000      -0.343330        -9.3425 
  69   1.0000      -0.332487        -9.0474 
  70   1.0000      -0.330546        -8.9946 
  71   1.0000      -0.326430        -8.8826 
  72   1.0000      -0.325222        -8.8497 
  73   1.0000      -0.322324        -8.7709 
  74   1.0000      -0.320889        -8.7318 
  75   1.0000      -0.320769        -8.7286 
  76   1.0000      -0.291638        -7.9359 
  77   1.0000      -0.268594        -7.3088 
  78   1.0000      -0.259800        -7.0695 
  79   1.0000      -0.249988        -6.8025 
  80   1.0000      -0.238271        -6.4837 
  81   1.0000      -0.226238        -6.1562 
  82   1.0000      -0.181666        -4.9434 
  83   0.0000      -0.044120        -1.2006 
  84   0.0000      -0.014729        -0.4008 
  85   0.0000      -0.005097        -0.1387 
  86   0.0000       0.009302         0.2531 
  87   0.0000       0.014857         0.4043 
  88   0.0000       0.021634         0.5887 
  89   0.0000       0.022569         0.6141 
  90   0.0000       0.030879         0.8403 
  91   0.0000       0.034428         0.9368 
  92   0.0000       0.036425         0.9912 
  93   0.0000       0.044586         1.2133 
  94   0.0000       0.046821         1.2741 
  95   0.0000       0.055557         1.5118 
  96   0.0000       0.059591         1.6215 
  97   0.0000       0.066040         1.7970 
  98   0.0000       0.071483         1.9452 
  99   0.0000       0.075202         2.0463 
 100   0.0000       0.083801         2.2803 
 101   0.0000       0.090626         2.4661 
 102   0.0000       0.094139         2.5617 
 103   0.0000       0.097636         2.6568 
 104   0.0000       0.102054         2.7770 
 105   0.0000       0.114832         3.1247 
 106   0.0000       0.126146         3.4326 
 107   0.0000       0.128633         3.5003 
 108   0.0000       0.138912         3.7800 
 109   0.0000       0.149429         4.0662 
 110   0.0000       0.152123         4.1395 
 111   0.0000       0.158758         4.3200 
 112   0.0000       0.171371         4.6632 
 113   0.0000       0.175818         4.7843 
 114   0.0000       0.176745         4.8095 
 115   0.0000       0.182543         4.9673 
 116   0.0000       0.188812         5.1378 
 117   0.0000       0.190461         5.1827 
 118   0.0000       0.195074         5.3082 
 119   0.0000       0.196778         5.3546 
 120   0.0000       0.200224         5.4484 
 121   0.0000       0.203190         5.5291 
 122   0.0000       0.208519         5.6741 
 123   0.0000       0.211636         5.7589 
 124   0.0000       0.213950         5.8219 
 125   0.0000       0.214897         5.8477 
 126   0.0000       0.220474         5.9994 
 127   0.0000       0.223945         6.0939 
 128   0.0000       0.232776         6.3342 
 129   0.0000       0.234395         6.3782 
 130   0.0000       0.242150         6.5892 
 131   0.0000       0.246342         6.7033 
 132   0.0000       0.247599         6.7375 
 133   0.0000       0.252099         6.8600 
 134   0.0000       0.253789         6.9060 
 135   0.0000       0.255598         6.9552 
 136   0.0000       0.263512         7.1705 
 137   0.0000       0.269482         7.3330 
 138   0.0000       0.271917         7.3992 
 139   0.0000       0.274102         7.4587 
 140   0.0000       0.277554         7.5526 
 141   0.0000       0.281255         7.6533 
 142   0.0000       0.283409         7.7119 
 143   0.0000       0.288370         7.8470 
 144   0.0000       0.291342         7.9278 
 145   0.0000       0.293187         7.9780 
 146   0.0000       0.293418         7.9843 
 147   0.0000       0.299865         8.1597 
 148   0.0000       0.300817         8.1856 
 149   0.0000       0.302956         8.2439 
 150   0.0000       0.306117         8.3299 
 151   0.0000       0.310385         8.4460 
 152   0.0000       0.312400         8.5008 
 153   0.0000       0.315605         8.5880 
 154   0.0000       0.319231         8.6867 
 155   0.0000       0.319829         8.7030 
 156   0.0000       0.323811         8.8114 
 157   0.0000       0.328294         8.9333 
 158   0.0000       0.333914         9.0863 
 159   0.0000       0.341468         9.2918 
 160   0.0000       0.342834         9.3290 
 161   0.0000       0.344308         9.3691 
 162   0.0000       0.346410         9.4263 
 163   0.0000       0.356558         9.7024 
 164   0.0000       0.356839         9.7101 
 165   0.0000       0.359102         9.7717 
 166   0.0000       0.365949         9.9580 
 167   0.0000       0.372413        10.1339 
 168   0.0000       0.375458        10.2167 
 169   0.0000       0.376103        10.2343 
 170   0.0000       0.387750        10.5512 
 171   0.0000       0.388946        10.5838 
 172   0.0000       0.396271        10.7831 
 173   0.0000       0.397190        10.8081 
 174   0.0000       0.411514        11.1979 
 175   0.0000       0.415686        11.3114 
 176   0.0000       0.417567        11.3626 
 177   0.0000       0.420022        11.4294 
 178   0.0000       0.424283        11.5453 
 179   0.0000       0.431747        11.7484 
 180   0.0000       0.434547        11.8246 
 181   0.0000       0.435895        11.8613 
 182   0.0000       0.436332        11.8732 
 183   0.0000       0.443527        12.0690 
 184   0.0000       0.448844        12.2137 
 185   0.0000       0.456322        12.4172 
 186   0.0000       0.460119        12.5205 
 187   0.0000       0.466768        12.7014 
 188   0.0000       0.467652        12.7255 
 189   0.0000       0.473772        12.8920 
 190   0.0000       0.477428        12.9915 
 191   0.0000       0.481729        13.1085 
 192   0.0000       0.484265        13.1775 
 193   0.0000       0.487299        13.2601 
 194   0.0000       0.491286        13.3686 
 195   0.0000       0.503995        13.7144 
 196   0.0000       0.507203        13.8017 
 197   0.0000       0.512111        13.9353 
 198   0.0000       0.518023        14.0961 
 199   0.0000       0.524334        14.2679 
 200   0.0000       0.531000        14.4492 
 201   0.0000       0.540858        14.7175 
 202   0.0000       0.542958        14.7746 
 203   0.0000       0.551677        15.0119 
 204   0.0000       0.558181        15.1889 
 205   0.0000       0.560145        15.2423 
 206   0.0000       0.561413        15.2768 
 207   0.0000       0.567119        15.4321 
 208   0.0000       0.577473        15.7138 
 209   0.0000       0.585608        15.9352 
 210   0.0000       0.592217        16.1150 
 211   0.0000       0.605770        16.4838 
 212   0.0000       0.607598        16.5336 
 213   0.0000       0.620787        16.8925 
 214   0.0000       0.637374        17.3438 
 215   0.0000       0.640808        17.4373 
 216   0.0000       0.658320        17.9138 
 217   0.0000       0.660247        17.9662 
 218   0.0000       0.666666        18.1409 
 219   0.0000       0.673099        18.3159 
 220   0.0000       0.680425        18.5153 
 221   0.0000       0.683180        18.5903 
 222   0.0000       0.698039        18.9946 
 223   0.0000       0.707582        19.2543 
 224   0.0000       0.727602        19.7991 
 225   0.0000       0.754243        20.5240 
 226   0.0000       0.765516        20.8308 
 227   0.0000       0.768034        20.8993 
 228   0.0000       0.776526        21.1303 
 229   0.0000       0.776576        21.1317 
 230   0.0000       0.797661        21.7054 
 231   0.0000       0.815264        22.1845 
 232   0.0000       0.823293        22.4029 
 233   0.0000       0.837561        22.7912 
 234   0.0000       0.843286        22.9470 
 235   0.0000       0.844500        22.9800 
 236   0.0000       0.848263        23.0824 
 237   0.0000       0.851667        23.1750 
 238   0.0000       0.865659        23.5558 
 239   0.0000       0.866007        23.5652 
 240   0.0000       0.866627        23.5821 
 241   0.0000       0.880053        23.9475 
 242   0.0000       0.893314        24.3083 
 243   0.0000       0.897397        24.4194 
 244   0.0000       0.901709        24.5367 
 245   0.0000       0.902096        24.5473 
 246   0.0000       0.911544        24.8044 
 247   0.0000       0.914904        24.8958 
 248   0.0000       0.918124        24.9834 
 249   0.0000       0.920199        25.0399 
 250   0.0000       0.926953        25.2237 
 251   0.0000       0.931750        25.3542 
 252   0.0000       0.934579        25.4312 
 253   0.0000       0.935132        25.4462 
 254   0.0000       0.941068        25.6078 
 255   0.0000       0.946873        25.7657 
 256   0.0000       0.956931        26.0394 
 257   0.0000       0.961054        26.1516 
 258   0.0000       0.971798        26.4440 
 259   0.0000       0.974392        26.5146 
 260   0.0000       0.979392        26.6506 
 261   0.0000       0.979911        26.6647 
 262   0.0000       0.986828        26.8529 
 263   0.0000       0.991946        26.9922 
 264   0.0000       0.994258        27.0551 
 265   0.0000       0.998925        27.1821 
 266   0.0000       0.999823        27.2066 
 267   0.0000       1.007908        27.4266 
 268   0.0000       1.014817        27.6146 
 269   0.0000       1.022820        27.8324 
 270   0.0000       1.026555        27.9340 
 271   0.0000       1.026875        27.9427 
 272   0.0000       1.030567        28.0432 
 273   0.0000       1.040765        28.3206 
 274   0.0000       1.045383        28.4463 
 275   0.0000       1.057733        28.7824 
 276   0.0000       1.058500        28.8033 
 277   0.0000       1.067278        29.0421 
 278   0.0000       1.071133        29.1470 
 279   0.0000       1.095557        29.8116 
 280   0.0000       1.097770        29.8719 
 281   0.0000       1.102342        29.9963 
 282   0.0000       1.104922        30.0664 
 283   0.0000       1.111497        30.2454 
 284   0.0000       1.117633        30.4123 
 285   0.0000       1.125897        30.6372 
 286   0.0000       1.144826        31.1523 
 287   0.0000       1.152753        31.3680 
 288   0.0000       1.164634        31.6913 
 289   0.0000       1.172885        31.9158 
 290   0.0000       1.179564        32.0976 
 291   0.0000       1.179970        32.1086 
 292   0.0000       1.181724        32.1563 
 293   0.0000       1.186037        32.2737 
 294   0.0000       1.204632        32.7797 
 295   0.0000       1.205513        32.8037 
 296   0.0000       1.211728        32.9728 
 297   0.0000       1.212564        32.9955 
 298   0.0000       1.242436        33.8084 
 299   0.0000       1.246172        33.9101 
 300   0.0000       1.249590        34.0031 
 301   0.0000       1.264140        34.3990 
 302   0.0000       1.276961        34.7479 
 303   0.0000       1.284200        34.9449 
 304   0.0000       1.294953        35.2375 
 305   0.0000       1.307537        35.5799 
 306   0.0000       1.314763        35.7765 
 307   0.0000       1.318185        35.8696 
 308   0.0000       1.325718        36.0746 
 309   0.0000       1.335744        36.3474 
 310   0.0000       1.338413        36.4201 
 311   0.0000       1.342292        36.5256 
 312   0.0000       1.359699        36.9993 
 313   0.0000       1.369217        37.2583 
 314   0.0000       1.378152        37.5014 
 315   0.0000       1.388049        37.7707 
 316   0.0000       1.395658        37.9778 
 317   0.0000       1.414509        38.4907 
 318   0.0000       1.419434        38.6248 
 319   0.0000       1.426765        38.8242 
 320   0.0000       1.427840        38.8535 
 321   0.0000       1.429128        38.8885 
 322   0.0000       1.441491        39.2250 
 323   0.0000       1.448078        39.4042 
 324   0.0000       1.450799        39.4782 
 325   0.0000       1.451453        39.4960 
 326   0.0000       1.457463        39.6596 
 327   0.0000       1.476470        40.1768 
 328   0.0000       1.486284        40.4438 
 329   0.0000       1.491772        40.5932 
 330   0.0000       1.500874        40.8409 
 331   0.0000       1.506306        40.9887 
 332   0.0000       1.512883        41.1676 
 333   0.0000       1.516447        41.2646 
 334   0.0000       1.522652        41.4335 
 335   0.0000       1.545424        42.0531 
 336   0.0000       1.550934        42.2031 
 337   0.0000       1.557608        42.3847 
 338   0.0000       1.560836        42.4725 
 339   0.0000       1.561044        42.4782 
 340   0.0000       1.567236        42.6466 
 341   0.0000       1.582615        43.0651 
 342   0.0000       1.584187        43.1079 
 343   0.0000       1.592156        43.3248 
 344   0.0000       1.600724        43.5579 
 345   0.0000       1.604873        43.6708 
 346   0.0000       1.605131        43.6778 
 347   0.0000       1.615324        43.9552 
 348   0.0000       1.616922        43.9987 
 349   0.0000       1.621233        44.1160 
 350   0.0000       1.627112        44.2760 
 351   0.0000       1.628276        44.3076 
 352   0.0000       1.638566        44.5876 
 353   0.0000       1.638787        44.5937 
 354   0.0000       1.645879        44.7866 
 355   0.0000       1.657433        45.1010 
 356   0.0000       1.664808        45.3017 
 357   0.0000       1.673561        45.5399 
 358   0.0000       1.674467        45.5646 
 359   0.0000       1.683256        45.8037 
 360   0.0000       1.688993        45.9598 
 361   0.0000       1.690851        46.0104 
 362   0.0000       1.697260        46.1848 
 363   0.0000       1.705956        46.4214 
 364   0.0000       1.709440        46.5162 
 365   0.0000       1.721333        46.8399 
 366   0.0000       1.722268        46.8653 
 367   0.0000       1.726498        46.9804 
 368   0.0000       1.735650        47.2294 
 369   0.0000       1.747097        47.5409 
 370   0.0000       1.757781        47.8317 
 371   0.0000       1.760678        47.9105 
 372   0.0000       1.767680        48.1010 
 373   0.0000       1.771681        48.2099 
 374   0.0000       1.776449        48.3396 
 375   0.0000       1.777070        48.3565 
 376   0.0000       1.788747        48.6743 
 377   0.0000       1.789227        48.6873 
 378   0.0000       1.794654        48.8350 
 379   0.0000       1.796009        48.8719 
 380   0.0000       1.813017        49.3347 
 381   0.0000       1.814810        49.3835 
 382   0.0000       1.827443        49.7273 
 383   0.0000       1.839144        50.0457 
 384   0.0000       1.840438        50.0809 
 385   0.0000       1.855879        50.5010 
 386   0.0000       1.856423        50.5158 
 387   0.0000       1.860598        50.6294 
 388   0.0000       1.888159        51.3794 
 389   0.0000       1.903703        51.8024 
 390   0.0000       1.913922        52.0805 
 391   0.0000       1.924452        52.3670 
 392   0.0000       1.930846        52.5410 
 393   0.0000       1.944502        52.9126 
 394   0.0000       1.950858        53.0856 
 395   0.0000       1.952737        53.1367 
 396   0.0000       1.964030        53.4440 
 397   0.0000       1.974589        53.7313 
 398   0.0000       1.986281        54.0495 
 399   0.0000       2.024375        55.0860 
 400   0.0000       2.038664        55.4749 
 401   0.0000       2.041716        55.5579 
 402   0.0000       2.045092        55.6498 
 403   0.0000       2.048461        55.7414 
 404   0.0000       2.068835        56.2959 
 405   0.0000       2.082817        56.6763 
 406   0.0000       2.091191        56.9042 
 407   0.0000       2.110854        57.4393 
 408   0.0000       2.128857        57.9292 
 409   0.0000       2.139863        58.2286 
 410   0.0000       2.144049        58.3425 
 411   0.0000       2.163112        58.8613 
 412   0.0000       2.164502        58.8991 
 413   0.0000       2.195469        59.7418 
 414   0.0000       2.216014        60.3008 
 415   0.0000       2.223831        60.5135 
 416   0.0000       2.235062        60.8191 
 417   0.0000       2.237892        60.8961 
 418   0.0000       2.252275        61.2875 
 419   0.0000       2.252448        61.2922 
 420   0.0000       2.259235        61.4769 
 421   0.0000       2.267604        61.7046 
 422   0.0000       2.303133        62.6714 
 423   0.0000       2.310618        62.8751 
 424   0.0000       2.315148        62.9984 
 425   0.0000       2.322427        63.1964 
 426   0.0000       2.322576        63.2005 
 427   0.0000       2.323451        63.2243 
 428   0.0000       2.348266        63.8996 
 429   0.0000       2.352172        64.0059 
 430   0.0000       2.395028        65.1720 
 431   0.0000       2.400686        65.3260 
 432   0.0000       2.411433        65.6184 
 433   0.0000       2.414609        65.7048 
 434   0.0000       2.417637        65.7872 
 435   0.0000       2.419404        65.8353 
 436   0.0000       2.435748        66.2801 
 437   0.0000       2.454484        66.7899 
 438   0.0000       2.455553        66.8190 
 439   0.0000       2.456596        66.8474 
 440   0.0000       2.463900        67.0461 
 441   0.0000       2.471702        67.2584 
 442   0.0000       2.478885        67.4539 
 443   0.0000       2.481952        67.5373 
 444   0.0000       2.505440        68.1765 
 445   0.0000       2.514312        68.4179 
 446   0.0000       2.519414        68.5567 
 447   0.0000       2.526372        68.7461 
 448   0.0000       2.533205        68.9320 
 449   0.0000       2.546008        69.2804 
 450   0.0000       2.551065        69.4180 
 451   0.0000       2.562949        69.7414 
 452   0.0000       2.576018        70.0970 
 453   0.0000       2.583654        70.3048 
 454   0.0000       2.586231        70.3749 
 455   0.0000       2.610684        71.0403 
 456   0.0000       2.612156        71.0804 
 457   0.0000       2.618821        71.2618 
 458   0.0000       2.629372        71.5488 
 459   0.0000       2.633038        71.6486 
 460   0.0000       2.674131        72.7668 
 461   0.0000       2.729440        74.2719 
 462   0.0000       2.738039        74.5058 
 463   0.0000       2.790438        75.9317 
 464   0.0000       2.796777        76.1042 
 465   0.0000       2.823401        76.8286 
 466   0.0000       2.943783        80.1044 
 467   0.0000       3.062379        83.3316 
 468   0.0000       3.240657        88.1827 
 469   0.0000       3.431027        93.3630 
 470   0.0000       4.983677       135.6127 
 471   0.0000       4.985141       135.6526 
 472   0.0000       4.996885       135.9721 
 473   0.0000       5.008775       136.2957 
 474   0.0000       5.009041       136.3029 
 475   0.0000       5.012063       136.3852 
 476   0.0000       5.018131       136.5503 
 477   0.0000       5.033364       136.9648 
 478   0.0000       5.034859       137.0055 
 479   0.0000       5.045543       137.2962 
 480   0.0000       5.048166       137.3676 
 481   0.0000       5.090635       138.5232 
 482   0.0000       5.096984       138.6960 
 483   0.0000       5.148761       140.1049 
 484   0.0000       5.198487       141.4580 
 485   0.0000       5.217301       141.9700 
 486   0.0000       5.228162       142.2655 
 487   0.0000       5.239707       142.5797 
 488   0.0000       5.248215       142.8112 
 489   0.0000       5.263288       143.2213 
 490   0.0000       5.283248       143.7645 
 491   0.0000       5.298908       144.1906 
 492   0.0000       5.300829       144.2429 
 493   0.0000       5.306311       144.3921 
 494   0.0000       5.313687       144.5928 
 495   0.0000       5.338701       145.2734 
 496   0.0000       5.365499       146.0027 
 497   0.0000       5.372747       146.1999 
 498   0.0000       5.393817       146.7732 
 499   0.0000       5.435467       147.9066 
 500   0.0000       5.454735       148.4309 
 501   0.0000       5.478520       149.0781 
 502   0.0000       5.484448       149.2394 
 503   0.0000       5.539820       150.7462 
 504   0.0000       5.561528       151.3369 
 505   0.0000       5.597968       152.3284 
 506   0.0000       5.611791       152.7046 
 507   0.0000       5.641955       153.5254 
 508   0.0000       5.673214       154.3760 
 509   0.0000       5.685449       154.7089 
 510   0.0000       5.740349       156.2028 
 511   0.0000       5.757096       156.6585 
 512   0.0000       5.817140       158.2924 
 513   0.0000       5.856071       159.3518 
 514   0.0000       5.877515       159.9353 
 515   0.0000       5.916251       160.9894 
 516   0.0000       6.139889       167.0749 
 517   0.0000       6.312877       171.7821 
 518   0.0000      29.582196       804.9725 
 519   0.0000      29.695695       808.0609 
 520   0.0000      29.757438       809.7411 
 521   0.0000      29.813054       811.2544 
 522   0.0000      29.836006       811.8790 
 523   0.0000      29.858453       812.4898 
 524   0.0000      29.869993       812.8038 
 525   0.0000      29.958250       815.2054 
 526   0.0000      29.972198       815.5850 
 527   0.0000      29.995793       816.2270 
 528   0.0000      30.026502       817.0627 
 529   0.0000      30.055688       817.8568 
 530   0.0000      30.079472       818.5040 
 531   0.0000      30.115559       819.4860 
 532   0.0000      30.123486       819.7017 
 533   0.0000      30.143581       820.2485 
 534   0.0000      30.190597       821.5279 
 535   0.0000      30.252520       823.2129 
 536   0.0000      30.254221       823.2592 
 537   0.0000      30.280754       823.9812 
 538   0.0000      30.298100       824.4532 
 539   0.0000      30.458756       828.8249 
 540   0.0000      30.537373       830.9642 
 541   0.0000      36.611835       996.2587 
 542   0.0000      36.613355       996.3000 
 543   0.0000      36.627491       996.6847 
 544   0.0000      36.630306       996.7613 
 545   0.0000      36.634898       996.8862 
 546   0.0000      36.639095       997.0005 
 547   0.0000      36.659388       997.5527 
 548   0.0000      36.661887       997.6207 
 549   0.0000      36.670851       997.8646 
 550   0.0000      36.673285       997.9308 
 551   0.0000      36.704259       998.7737 
 552   0.0000      36.718233       999.1539 
 553   0.0000      36.789103      1001.0824 
 554   0.0000      36.824743      1002.0522 
 555   0.0000      36.828714      1002.1603 
 556   0.0000      36.854832      1002.8710 
 557   0.0000      36.867655      1003.2199 
 558   0.0000      36.877647      1003.4918 
 559   0.0000      36.885801      1003.7137 
 560   0.0000      36.926092      1004.8100 
 561   0.0000      36.931679      1004.9621 
 562   0.0000      36.935904      1005.0771 
 563   0.0000      36.994937      1006.6834 
 564   0.0000      37.024913      1007.4991 
 565   0.0000      37.042290      1007.9719 

                 SPIN DOWN ORBITALS
  NO   OCC          E(Eh)            E(eV) 
   0   1.0000     -10.232645      -278.4444 
   1   1.0000     -10.227471      -278.3036 
   2   1.0000     -10.218329      -278.0549 
   3   1.0000     -10.210623      -277.8452 
   4   1.0000     -10.208345      -277.7832 
   5   1.0000     -10.208060      -277.7754 
   6   1.0000     -10.204807      -277.6869 
   7   1.0000     -10.204675      -277.6833 
   8   1.0000     -10.204403      -277.6759 
   9   1.0000     -10.204012      -277.6653 
  10   1.0000     -10.203738      -277.6578 
  11   1.0000     -10.201959      -277.6094 
  12   1.0000     -10.199568      -277.5443 
  13   1.0000     -10.199334      -277.5380 
  14   1.0000     -10.196140      -277.4511 
  15   1.0000     -10.189853      -277.2800 
  16   1.0000     -10.187855      -277.2256 
  17   1.0000     -10.183600      -277.1099 
  18   1.0000     -10.183130      -277.0971 
  19   1.0000     -10.182914      -277.0912 
  20   1.0000     -10.182575      -277.0819 
  21   1.0000     -10.173837      -276.8442 
  22   1.0000     -10.173521      -276.8356 
  23   1.0000      -0.868104       -23.6223 
  24   1.0000      -0.862501       -23.4698 
  25   1.0000      -0.813753       -22.1433 
  26   1.0000      -0.793994       -21.6057 
  27   1.0000      -0.790008       -21.4972 
  28   1.0000      -0.772709       -21.0265 
  29   1.0000      -0.761964       -20.7341 
  30   1.0000      -0.750828       -20.4311 
  31   1.0000      -0.731444       -19.9036 
  32   1.0000      -0.720001       -19.5922 
  33   1.0000      -0.697343       -18.9757 
  34   1.0000      -0.651032       -17.7155 
  35   1.0000      -0.650024       -17.6880 
  36   1.0000      -0.622145       -16.9294 
  37   1.0000      -0.613388       -16.6911 
  38   1.0000      -0.609184       -16.5767 
  39   1.0000      -0.590086       -16.0570 
  40   1.0000      -0.578504       -15.7419 
  41   1.0000      -0.561288       -15.2734 
  42   1.0000      -0.540366       -14.7041 
  43   1.0000      -0.515107       -14.0168 
  44   1.0000      -0.505414       -13.7530 
  45   1.0000      -0.479426       -13.0459 
  46   1.0000      -0.471451       -12.8288 
  47   1.0000      -0.470892       -12.8136 
  48   1.0000      -0.469875       -12.7859 
  49   1.0000      -0.456625       -12.4254 
  50   1.0000      -0.436769       -11.8851 
  51   1.0000      -0.429963       -11.6999 
  52   1.0000      -0.425170       -11.5695 
  53   1.0000      -0.422295       -11.4912 
  54   1.0000      -0.422055       -11.4847 
  55   1.0000      -0.421570       -11.4715 
  56   1.0000      -0.416903       -11.3445 
  57   1.0000      -0.409916       -11.1544 
  58   1.0000      -0.398538       -10.8448 
  59   1.0000      -0.381758       -10.3882 
  60   1.0000      -0.372915       -10.1475 
  61   1.0000      -0.368423       -10.0253 
  62   1.0000      -0.364595        -9.9211 
  63   1.0000      -0.362089        -9.8530 
  64   1.0000      -0.357311        -9.7229 
  65   1.0000      -0.357208        -9.7201 
  66   1.0000      -0.351339        -9.5604 
  67   1.0000      -0.340789        -9.2733 
  68   1.0000      -0.332345        -9.0436 
  69   1.0000      -0.328570        -8.9409 
  70   1.0000      -0.325153        -8.8479 
  71   1.0000      -0.324898        -8.8409 
  72   1.0000      -0.322080        -8.7642 
  73   1.0000      -0.319308        -8.6888 
  74   1.0000      -0.315257        -8.5786 
  75   1.0000      -0.275848        -7.5062 
  76   1.0000      -0.268082        -7.2949 
  77   1.0000      -0.258384        -7.0310 
  78   1.0000      -0.242389        -6.5957 
  79   1.0000      -0.220765        -6.0073 
  80   0.0000      -0.162965        -4.4345 
  81   0.0000      -0.086793        -2.3618 
  82   0.0000      -0.036465        -0.9922 
  83   0.0000      -0.027848        -0.7578 
  84   0.0000      -0.013540        -0.3684 
  85   0.0000       0.001806         0.0491 
  86   0.0000       0.015111         0.4112 
  87   0.0000       0.021828         0.5940 
  88   0.0000       0.023414         0.6371 
  89   0.0000       0.032289         0.8786 
  90   0.0000       0.032673         0.8891 
  91   0.0000       0.035755         0.9730 
  92   0.0000       0.036938         1.0051 
  93   0.0000       0.045202         1.2300 
[...]
  Y          -0.0015350            0.9712385            0.2381037
  Z           0.9999987            0.0015900           -0.0000392

Notes:  (1) The A matrix conforms to the "SAI" spin Hamiltonian convention.
        (2) Tensor is right-handed.

 -----------------------------------------------------------
 Nucleus  45H : A:ISTP=    1 I=  0.5 P=533.5514 MHz/au**3
                Q:ISTP=    2 I=  1.0 Q=  0.0029 barn     
 -----------------------------------------------------------
 Solving for nuclear perturbation:
Forming RHS of the CP-SCF equations         ... 
Calc. nucleus orbit integrals (SHARK)       ... done

------------------------------------------------------------------------------
                           ORCA CP-SCF CALCULATION
------------------------------------------------------------------------------

Input orbitals are from        ... EPRII_i.gbw
Input Perturbation             ... EPRII_i.pin.tmp
Wavefunction output            ... EPRII_i.pout.tmp
Perturbation mode              ... Imaginary perturbation
Solver                         ... POPLE
Max. number of iterations      ... 64
Convergence tolerance          ... 1.000e-03
Integral handling              ... Direct
DFT GridXC                     ... 1
COSX GridX                     ... 1
COSX IntAccX                   ... 3.067
COSX Algorithm                 ... Auto
Number of perturbations        ... 3
Number of operators            ... 2
Orbital ranges used for CP-SCF:
 Operator 0:  Orbitals   0... 82  to  83...565
 Operator 1:  Orbitals   0... 79  to  80...565
Variables per perturbation     ... 78969
DFT calculation                         ... on
XC functional terms                     ... off
Hybrid DFT                              ... on
   Exchange mixing (SCF)                ...  0.200
   Exchange mixing (CP-SCF)             ...  0.200
   GGA exch. scaling(SCF)               ...  0.720
   GGA exch. scaling (CP-SCF)           ...  0.720
   GGA corr. scaling (SCF)              ...  0.810
   GGA corr. scaling (CP-SCF)           ...  0.810

CP-SCF GRID
-----------

General Integration Accuracy     IntAcc      ... 3.467
Radial Grid Type                 RadialGrid  ... OptM3 with GC (2021)
Angular Grid (max. ang.)         AngularGrid ... 1 (Lebedev-50)
Angular grid pruning method      GridPruning ... 4 (adaptive)
Weight generation scheme         WeightScheme... Becke
Basis function cutoff            BFCut       ... 1.0000e-10
Integration weight cutoff        WCut        ... 1.0000e-14
Angular grids for H and He will be reduced by one unit
Partially contracted basis set               ... off
Rotationally invariant grid construction     ... off

Total number of grid points                  ...    30933
Total number of batches                      ...      504
Average number of points per batch           ...       61
Average number of grid points per atom       ...      644

CP-SCF GRIDX
------------

General Integration Accuracy     IntAcc      ... 3.067
Radial Grid Type                 RadialGrid  ... OptM3 with GC (2021)
Angular Grid (max. ang.)         AngularGrid ... 1 (Lebedev-50)
Angular grid pruning method      GridPruning ... 4 (adaptive)
Weight generation scheme         WeightScheme... Becke
Basis function cutoff            BFCut       ... 1.0000e-10
Integration weight cutoff        WCut        ... 1.0000e-14
Angular grids for H and He will be reduced by one unit
Partially contracted basis set               ... on
Rotationally invariant grid construction     ... off

Total number of grid points                  ...    14529
Total number of batches                      ...      255
Average number of points per batch           ...       56
Average number of grid points per atom       ...      303

Memory available               ... 856.2 MB
Memory needed per perturbation ...  18.8 MB
Perturbations treated per batch... 3
Number of batches              ... 1
     CP-SCF ITERATION   0:   4.5788e-02 (   2.1 sec   0/  3 done)
     CP-SCF ITERATION   1:   1.9565e-03 (   2.1 sec   0/  3 done)
     CP-SCF ITERATION   2:   1.9804e-04 (   2.3 sec   3/  3 done)
                    *** THE CP-SCF HAS CONVERGED ***

Forming final perturbed densities           ... done
Transforming perturbed density to AO basis  ... done

 Raw HFC matrix (all values in MHz): 
 -----------------------------------
                -0.8557               0.1726               0.0004
                 0.1724              -0.6807               0.0008
                 0.0004               0.0008              -1.1714

 A(FC)          -0.9028              -0.9028              -0.9028
 A(SD)           0.3279              -0.0592              -0.2686
 A(ORB+DIA)      0.0001               0.0004               0.0000    A(PC) =   0.0002
 A(ORB)         -0.0000               0.0003              -0.0000    A(PC) =   0.0001
 A(DIA)          0.0002               0.0000               0.0001    A(PC) =   0.0001
             ----------           ----------           ----------
 A(Tot)         -0.5748              -0.9616              -1.1714    A(iso)=   -0.9026
 Orientation: 
  X           0.5232832            0.8521587            0.0004951
  Y           0.8521574           -0.5232833            0.0015465
  Z           0.0015769           -0.0003874           -0.9999987

Notes:  (1) The A matrix conforms to the "SAI" spin Hamiltonian convention.
        (2) Tensor is right-handed.

 -----------------------------------------------------------
 Nucleus  46H : A:ISTP=    1 I=  0.5 P=533.5514 MHz/au**3
                Q:ISTP=    2 I=  1.0 Q=  0.0029 barn     
 -----------------------------------------------------------
 Solving for nuclear perturbation:
Forming RHS of the CP-SCF equations         ... 
Calc. nucleus orbit integrals (SHARK)       ... done

------------------------------------------------------------------------------
                           ORCA CP-SCF CALCULATION
------------------------------------------------------------------------------

Input orbitals are from        ... EPRII_i.gbw
Input Perturbation             ... EPRII_i.pin.tmp
Wavefunction output            ... EPRII_i.pout.tmp
Perturbation mode              ... Imaginary perturbation
Solver                         ... POPLE
Max. number of iterations      ... 64
Convergence tolerance          ... 1.000e-03
Integral handling              ... Direct
DFT GridXC                     ... 1
COSX GridX                     ... 1
COSX IntAccX                   ... 3.067
COSX Algorithm                 ... Auto
Number of perturbations        ... 3
Number of operators            ... 2
Orbital ranges used for CP-SCF:
 Operator 0:  Orbitals   0... 82  to  83...565
 Operator 1:  Orbitals   0... 79  to  80...565
Variables per perturbation     ... 78969
DFT calculation                         ... on
XC functional terms                     ... off
Hybrid DFT                              ... on
   Exchange mixing (SCF)                ...  0.200
   Exchange mixing (CP-SCF)             ...  0.200
   GGA exch. scaling(SCF)               ...  0.720
   GGA exch. scaling (CP-SCF)           ...  0.720
   GGA corr. scaling (SCF)              ...  0.810
   GGA corr. scaling (CP-SCF)           ...  0.810

CP-SCF GRID
-----------

General Integration Accuracy     IntAcc      ... 3.467
Radial Grid Type                 RadialGrid  ... OptM3 with GC (2021)
Angular Grid (max. ang.)         AngularGrid ... 1 (Lebedev-50)
Angular grid pruning method      GridPruning ... 4 (adaptive)
Weight generation scheme         WeightScheme... Becke
Basis function cutoff            BFCut       ... 1.0000e-10
Integration weight cutoff        WCut        ... 1.0000e-14
Angular grids for H and He will be reduced by one unit
Partially contracted basis set               ... off
Rotationally invariant grid construction     ... off

Total number of grid points                  ...    30933
Total number of batches                      ...      504
Average number of points per batch           ...       61
Average number of grid points per atom       ...      644

CP-SCF GRIDX
------------

General Integration Accuracy     IntAcc      ... 3.067
Radial Grid Type                 RadialGrid  ... OptM3 with GC (2021)
Angular Grid (max. ang.)         AngularGrid ... 1 (Lebedev-50)
Angular grid pruning method      GridPruning ... 4 (adaptive)
Weight generation scheme         WeightScheme... Becke
Basis function cutoff            BFCut       ... 1.0000e-10
Integration weight cutoff        WCut        ... 1.0000e-14
Angular grids for H and He will be reduced by one unit
Partially contracted basis set               ... on
Rotationally invariant grid construction     ... off

Total number of grid points                  ...    14529
Total number of batches                      ...      255
Average number of points per batch           ...       56
Average number of grid points per atom       ...      303

Memory available               ... 855.5 MB
Memory needed per perturbation ...  18.8 MB
Perturbations treated per batch... 3
Number of batches              ... 1
     CP-SCF ITERATION   0:   4.5904e-02 (   2.0 sec   0/  3 done)
     CP-SCF ITERATION   1:   1.9638e-03 (   2.1 sec   0/  3 done)
     CP-SCF ITERATION   2:   1.6352e-04 (   2.2 sec   3/  3 done)
                    *** THE CP-SCF HAS CONVERGED ***

Forming final perturbed densities           ... done
Transforming perturbed density to AO basis  ... done

 Raw HFC matrix (all values in MHz): 
 -----------------------------------
                -0.8998              -0.1426              -0.0000
                -0.1425              -0.6405               0.0009
                -0.0000               0.0009              -1.1636

 A(FC)          -0.9015              -0.9015              -0.9015
 A(SD)           0.3239              -0.0617              -0.2622
 A(ORB+DIA)      0.0001               0.0004               0.0000    A(PC) =   0.0002
 A(ORB)         -0.0000               0.0004              -0.0000    A(PC) =   0.0001
 A(DIA)          0.0002               0.0000               0.0001    A(PC) =   0.0001
             ----------           ----------           ----------
 A(Tot)         -0.5775              -0.9628              -1.1636    A(iso)=   -0.9013
 Orientation: 
  X          -0.4045544            0.9145134            0.0010458
  Y           0.9145128            0.4045518            0.0020438
  Z           0.0014460            0.0017832           -0.9999974

Notes:  (1) The A matrix conforms to the "SAI" spin Hamiltonian convention.
        (2) Tensor is right-handed.

 -----------------------------------------------------------
 Nucleus  47H : A:ISTP=    1 I=  0.5 P=533.5514 MHz/au**3
                Q:ISTP=    2 I=  1.0 Q=  0.0029 barn     
 -----------------------------------------------------------
 Solving for nuclear perturbation:
Forming RHS of the CP-SCF equations         ... 
Calc. nucleus orbit integrals (SHARK)       ... done

------------------------------------------------------------------------------
                           ORCA CP-SCF CALCULATION
------------------------------------------------------------------------------

Input orbitals are from        ... EPRII_i.gbw
Input Perturbation             ... EPRII_i.pin.tmp
Wavefunction output            ... EPRII_i.pout.tmp
Perturbation mode              ... Imaginary perturbation
Solver                         ... POPLE
Max. number of iterations      ... 64
Convergence tolerance          ... 1.000e-03
Integral handling              ... Direct
DFT GridXC                     ... 1
COSX GridX                     ... 1
COSX IntAccX                   ... 3.067
COSX Algorithm                 ... Auto
Number of perturbations        ... 3
Number of operators            ... 2
Orbital ranges used for CP-SCF:
 Operator 0:  Orbitals   0... 82  to  83...565
 Operator 1:  Orbitals   0... 79  to  80...565
Variables per perturbation     ... 78969
DFT calculation                         ... on
XC functional terms                     ... off
Hybrid DFT                              ... on
   Exchange mixing (SCF)                ...  0.200
   Exchange mixing (CP-SCF)             ...  0.200
   GGA exch. scaling(SCF)               ...  0.720
   GGA exch. scaling (CP-SCF)           ...  0.720
   GGA corr. scaling (SCF)              ...  0.810
   GGA corr. scaling (CP-SCF)           ...  0.810

CP-SCF GRID
-----------

General Integration Accuracy     IntAcc      ... 3.467
Radial Grid Type                 RadialGrid  ... OptM3 with GC (2021)
Angular Grid (max. ang.)         AngularGrid ... 1 (Lebedev-50)
Angular grid pruning method      GridPruning ... 4 (adaptive)
Weight generation scheme         WeightScheme... Becke
Basis function cutoff            BFCut       ... 1.0000e-10
Integration weight cutoff        WCut        ... 1.0000e-14
Angular grids for H and He will be reduced by one unit
Partially contracted basis set               ... off
Rotationally invariant grid construction     ... off

Total number of grid points                  ...    30933
Total number of batches                      ...      504
Average number of points per batch           ...       61
Average number of grid points per atom       ...      644

CP-SCF GRIDX
------------

General Integration Accuracy     IntAcc      ... 3.067
Radial Grid Type                 RadialGrid  ... OptM3 with GC (2021)
Angular Grid (max. ang.)         AngularGrid ... 1 (Lebedev-50)
Angular grid pruning method      GridPruning ... 4 (adaptive)
Weight generation scheme         WeightScheme... Becke
Basis function cutoff            BFCut       ... 1.0000e-10
Integration weight cutoff        WCut        ... 1.0000e-14
Angular grids for H and He will be reduced by one unit
Partially contracted basis set               ... on
Rotationally invariant grid construction     ... off

Total number of grid points                  ...    14529
Total number of batches                      ...      255
Average number of points per batch           ...       56
Average number of grid points per atom       ...      303

Memory available               ... 854.8 MB
Memory needed per perturbation ...  18.8 MB
Perturbations treated per batch... 3
Number of batches              ... 1
     CP-SCF ITERATION   0:   4.1830e-02 (   2.0 sec   0/  3 done)
     CP-SCF ITERATION   1:   1.7012e-03 (   2.2 sec   1/  3 done)
     CP-SCF ITERATION   2:   7.9202e-05 (   1.7 sec   3/  3 done)
                    *** THE CP-SCF HAS CONVERGED ***

Forming final perturbed densities           ... done
Transforming perturbed density to AO basis  ... done

 Raw HFC matrix (all values in MHz): 
 -----------------------------------
                 0.6757               0.0654               0.0002
                 0.0653               0.3147               0.0001
                 0.0002               0.0001               0.2417

 A(FC)           0.4107               0.4107               0.4107
 A(SD)          -0.1691              -0.1075               0.2766
 A(ORB+DIA)      0.0000               0.0001              -0.0001    A(PC) =  -0.0000
 A(ORB)         -0.0000              -0.0000              -0.0001    A(PC) =  -0.0001
 A(DIA)          0.0001               0.0001               0.0000    A(PC) =   0.0001
             ----------           ----------           ----------
 A(Tot)          0.2417               0.3033               0.6872    A(iso)=    0.4107
 Orientation: 
  X          -0.0003409           -0.1728916           -0.9849408
  Y          -0.0008729            0.9849405           -0.1728912
  Z           0.9999996            0.0008008           -0.0004867

Notes:  (1) The A matrix conforms to the "SAI" spin Hamiltonian convention.
        (2) Tensor is right-handed.


--------------------------------------------------------------------------------
----------------------------------------------------------------------------
                           ORCA EULER ANGLE PROGRAM
----------------------------------------------------------------------------

Only g-tensor available        -->  using g-tensor as reference tensor

Reference tensor               ...  g

g-tensor ordering              ...  |g_min> --> |gx>
                                    |g_mid> --> |gy>
                                    |g_max> --> |gz>

A- and EFG-tensor ordering     ...  the axes |Ax>, |Qx>, |Ay>, etc. are assigned
                                    such that the Euler rotation is minimal. You
                                    can find the respective eigenvalues as Ax,
                                    EFGx, Ay, etc. in the tables below.
                                    The relation of |Ax>, |Ay>,  etc. to Amin, Amid, etc.
                                    (as printed in the ORCA EPR/NMR CALCULATION Output)
                                    is obtained in the detailed printout.

Euler rotation around          ...  z - y - z
   First rotation              -->  by alpha around z
   Second rotation             -->  by beta around y'
   Third rotation              -->  by gamma around z''
   Positive / Negative angle   -->  clockwise / counterclockwise rotation

Plot EFG-tensors                    (-)
Plot HFC-tensors                    (-)
Detailed Printout                   (-)

-------------------------------------------------------------------------
          Euler rotation of hyperfine tensor to g-tensor
-------------------------------------------------------------------------

-------------------------------------------------------------------
 Atom  |   Alpha    Beta    Gamma   |   Ax       Ay       Az 
       |          [degrees]         |           [MHz]         
-------------------------------------------------------------------
  8H        8.3      0.0      0.0       5.56     7.42     4.44
  9H       -8.2      0.0      0.0       0.29    -5.93    -8.76
 11H     -118.4     41.9    135.1      12.46     4.51     3.77
 12H       61.7     42.0    -44.9      12.47     4.51     3.77
 14H      158.8     12.9   -117.8       1.55    -0.53    -0.57
 15H      -20.1     12.8     61.1       1.55    -0.54    -0.57
 17H       47.3     15.1    -36.1       1.13    -0.45    -0.51
 18H     -132.8     15.0    144.0       1.13    -0.45    -0.51
 20H       37.5      9.6    -10.2       0.45    -0.19    -0.22
 21H     -142.8      9.6    170.2       0.45    -0.19    -0.22
 23H     -137.6     16.0    179.3      -3.50    -2.35    -3.69
 24H       42.9     15.9     -1.2      -3.50    -2.35    -3.69
 26H      -60.3     22.8     37.7       1.55    -0.47    -0.54
 27H      119.6     22.8   -142.2       1.55    -0.47    -0.54
 29H      129.5     12.2   -163.0       0.41    -0.18    -0.24
 30H      -50.1     12.2     16.5       0.41    -0.18    -0.24
 32H      152.7      8.3   -166.5       0.41    -0.20    -0.22
 33H      -26.7      8.3     12.9       0.40    -0.20    -0.22
 35H       16.6      0.0      0.0       0.36    -0.19    -0.20
 36H      -19.8      0.0      0.0       0.25    -0.12    -0.14
 43H       30.3      0.1    -24.7      -1.56    -0.32    -1.03
 44H       -6.1      0.0      0.0       0.31     0.68     0.24
 45H      -23.8      0.0      0.0      -0.57    -0.96    -1.17
 46H       31.6      0.0      0.0      -0.58    -0.96    -1.16
 47H       33.6      0.1    -15.9       0.30     0.69     0.24
-------------------------------------------------------------------


Maximum memory used throughout the entire EPRNMR-calculation: 267.6 MB

Timings for individual modules:

Sum of individual times         ...     5118.032 sec (=  85.301 min)
GTO integral calculation        ...        5.676 sec (=   0.095 min)   0.1 %
Spin-Orbit-Coupling Matrices    ...       14.158 sec (=   0.236 min)   0.3 %
SCF iterations                  ...      121.974 sec (=   2.033 min)   2.4 %
EPR/NMR calculation             ...     4976.225 sec (=  82.937 min)  97.2 %
                             ****ORCA TERMINATED NORMALLY****
TOTAL RUN TIME: 0 days 1 hours 25 minutes 22 seconds 269 msec
