
                                 *****************
                                 * O   R   C   A *
                                 *****************

                                            #,                                       
                                            ###                                      
                                            ####                                     
                                            #####                                    
                                            ######                                   
                                           ########,                                 
                                     ,,################,,,,,                         
                               ,,#################################,,                 
                          ,,##########################################,,             
                       ,#########################################, ''#####,          
                    ,#############################################,,   '####,        
                  ,##################################################,,,,####,       
                ,###########''''           ''''###############################       
              ,#####''   ,,,,##########,,,,          '''####'''          '####       
            ,##' ,,,,###########################,,,                        '##       
           ' ,,###''''                  '''############,,,                           
         ,,##''                                '''############,,,,        ,,,,,,###''
      ,#''                                            '''#######################'''  
     '                                                          ''''####''''         
             ,#######,   #######,   ,#######,      ##                                
            ,#'     '#,  ##    ##  ,#'     '#,    #''#        ######   ,####,        
            ##       ##  ##   ,#'  ##            #'  '#       #        #'  '#        
            ##       ##  #######   ##           ,######,      #####,   #    #        
            '#,     ,#'  ##    ##  '#,     ,#' ,#      #,         ##   #,  ,#        
             '#######'   ##     ##  '#######'  #'      '#     #####' # '####'        



                  #######################################################
                  #                        -***-                        #
                  #          Department of theory and spectroscopy      #
                  #    Directorship and core code : Frank Neese         #
                  #        Max Planck Institute fuer Kohlenforschung    #
                  #                Kaiser Wilhelm Platz 1               #
                  #                 D-45470 Muelheim/Ruhr               #
                  #                      Germany                        #
                  #                                                     #
                  #                  All rights reserved                #
                  #                        -***-                        #
                  #######################################################


                         Program Version 5.0.4 -  RELEASE  -


 With contributions from (in alphabetic order):
   Daniel Aravena         : Magnetic Suceptibility
   Michael Atanasov       : Ab Initio Ligand Field Theory (pilot matlab implementation)
   Alexander A. Auer      : GIAO ZORA, VPT2 properties, NMR spectrum
   Ute Becker             : Parallelization
   Giovanni Bistoni       : ED, misc. LED, open-shell LED, HFLD
   Martin Brehm           : Molecular dynamics
   Dmytro Bykov           : SCF Hessian
   Vijay G. Chilkuri      : MRCI spin determinant printing, contributions to CSF-ICE
   Dipayan Datta          : RHF DLPNO-CCSD density
   Achintya Kumar Dutta   : EOM-CC, STEOM-CC
   Dmitry Ganyushin       : Spin-Orbit,Spin-Spin,Magnetic field MRCI
   Miquel Garcia          : C-PCM and meta-GGA Hessian, CC/C-PCM, Gaussian charge scheme
   Yang Guo               : DLPNO-NEVPT2, F12-NEVPT2, CIM, IAO-localization
   Andreas Hansen         : Spin unrestricted coupled pair/coupled cluster methods
   Benjamin Helmich-Paris : MC-RPA, TRAH-SCF, COSX integrals
   Lee Huntington         : MR-EOM, pCC
   Robert Izsak           : Overlap fitted RIJCOSX, COSX-SCS-MP3, EOM
   Marcus Kettner         : VPT2
   Christian Kollmar      : KDIIS, OOCD, Brueckner-CCSD(T), CCSD density, CASPT2, CASPT2-K
   Simone Kossmann        : Meta GGA functionals, TD-DFT gradient, OOMP2, MP2 Hessian
   Martin Krupicka        : Initial AUTO-CI
   Lucas Lang             : DCDCAS
   Marvin Lechner         : AUTO-CI (C++ implementation), FIC-MRCC
   Dagmar Lenk            : GEPOL surface, SMD
   Dimitrios Liakos       : Extrapolation schemes; Compound Job, initial MDCI parallelization
   Dimitrios Manganas     : Further ROCIS development; embedding schemes
   Dimitrios Pantazis     : SARC Basis sets
   Anastasios Papadopoulos: AUTO-CI, single reference methods and gradients
   Taras Petrenko         : DFT Hessian,TD-DFT gradient, ASA, ECA, R-Raman, ABS, FL, XAS/XES, NRVS
   Peter Pinski           : DLPNO-MP2, DLPNO-MP2 Gradient
   Christoph Reimann      : Effective Core Potentials
   Marius Retegan         : Local ZFS, SOC
   Christoph Riplinger    : Optimizer, TS searches, QM/MM, DLPNO-CCSD(T), (RO)-DLPNO pert. Triples
   Tobias Risthaus        : Range-separated hybrids, TD-DFT gradient, RPA, STAB
   Michael Roemelt        : Original ROCIS implementation
   Masaaki Saitow         : Open-shell DLPNO-CCSD energy and density
   Barbara Sandhoefer     : DKH picture change effects
   Avijit Sen             : IP-ROCIS
   Kantharuban Sivalingam : CASSCF convergence, NEVPT2, FIC-MRCI
   Bernardo de Souza      : ESD, SOC TD-DFT
   Georgi Stoychev        : AutoAux, RI-MP2 NMR, DLPNO-MP2 response
   Willem Van den Heuvel  : Paramagnetic NMR
   Boris Wezisla          : Elementary symmetry handling
   Frank Wennmohs         : Technical directorship


 We gratefully acknowledge several colleagues who have allowed us to
 interface, adapt or use parts of their codes:
   Stefan Grimme, W. Hujo, H. Kruse, P. Pracht,  : VdW corrections, initial TS optimization,
                  C. Bannwarth, S. Ehlert          DFT functionals, gCP, sTDA/sTD-DF
   Ed Valeev, F. Pavosevic, A. Kumar             : LibInt (2-el integral package), F12 methods
   Garnet Chan, S. Sharma, J. Yang, R. Olivares  : DMRG
   Ulf Ekstrom                                   : XCFun DFT Library
   Mihaly Kallay                                 : mrcc  (arbitrary order and MRCC methods)
   Jiri Pittner, Ondrej Demel                    : Mk-CCSD
   Frank Weinhold                                : gennbo (NPA and NBO analysis)
   Christopher J. Cramer and Donald G. Truhlar   : smd solvation model
   Lars Goerigk                                  : TD-DFT with DH, B97 family of functionals
   V. Asgeirsson, H. Jonsson                     : NEB implementation
   FAccTs GmbH                                   : IRC, NEB, NEB-TS, DLPNO-Multilevel, CI-OPT
                                                   MM, QMMM, 2- and 3-layer-ONIOM, Crystal-QMMM,
                                                   LR-CPCM, SF, NACMEs, symmetry and pop. for TD-DFT,
                                                   nearIR, NL-DFT gradient (VV10), updates on ESD,
                                                   ML-optimized integration grids
   S Lehtola, MJT Oliveira, MAL Marques          : LibXC Library
   Liviu Ungur et al                             : ANISO software


 Your calculation uses the libint2 library for the computation of 2-el integrals
 For citations please refer to: http://libint.valeyev.net

 Your ORCA version has been built with support for libXC version: 5.1.0
 For citations please refer to: https://tddft.org/programs/libxc/

 This ORCA versions uses:
   CBLAS   interface :  Fast vector & matrix operations
   LAPACKE interface :  Fast linear algebra routines
   SCALAPACK package :  Parallel linear algebra routines
   Shared memory     :  Shared parallel matrices
   BLAS/LAPACK       :  OpenBLAS 0.3.15  USE64BITINT DYNAMIC_ARCH NO_AFFINITY SkylakeX SINGLE_THREADED
        Core in use  :  SkylakeX
   Copyright (c) 2011-2014, The OpenBLAS Project




***************************************
The coordinates will be read from file: opt_EPRII.xyz
***************************************


================================================================================

----- Orbital basis set information -----
Your calculation utilizes the basis: EPR-II
   V. Barone, in Recent Advances in Density Functional Methods, Part 1 (ed. D. P. Chong), World Scientific, Singapore, 1995, p. 287.

----- AuxJ basis set information -----
Your calculation utilizes the AutoAux generation procedure.
  G. L. Stoychev, A. A. Auer, F. Neese, J. Chem. Theory Comput. 13, 554 (2017)

----- AuxC basis set information -----
Your calculation utilizes the AutoAux generation procedure.
  G. L. Stoychev, A. A. Auer, F. Neese, J. Chem. Theory Comput. 13, 554 (2017)

----- AuxJK basis set information -----
Your calculation utilizes the AutoAux generation procedure.
  G. L. Stoychev, A. A. Auer, F. Neese, J. Chem. Theory Comput. 13, 554 (2017)

================================================================================
                                        WARNINGS
                       Please study these warnings very carefully!
================================================================================

WARNING: Old DensityContainer found on disk!
         Will remove this file - 
         If you want to keep old densities, please start your calculation with a different basename. 


WARNING: your system is open-shell and RHF/RKS was chosen
  ===> : WILL SWITCH to UHF/UKS


INFO   : the flag for use of the SHARK integral package has been found!

================================================================================
                                       INPUT FILE
================================================================================
NAME = EPRII_i.inp
|  1> ! B3LYP EPR-II AUTOAUX
|  2> %pal nprocs 16 end
|  3> *XYZFile 0 2 opt_EPRII.xyz
|  4> %EPRNMR
|  5>         GTENSOR   TRUE
|  6>         NUCLEI    = ALL H {SHIFT, AISO, ADIP, AORB}
|  7>         ORI       GIAO
|  8> END
|  9> 
| 10>                          ****END OF INPUT****
================================================================================

                       ****************************
                       * Single Point Calculation *
                       ****************************

---------------------------------
CARTESIAN COORDINATES (ANGSTROEM)
---------------------------------
  C     -2.789251    0.057937   -0.011978
  C      2.818441    0.003573   -0.009293
  C     -1.424568   -0.004674   -0.011593
  C     -0.696249   -1.267874   -0.014585
  C      0.683232   -1.201355   -0.013534
  C      1.402084    0.033209   -0.009794
  C      0.686752    1.281751   -0.006764
  C     -0.695820    1.252926   -0.007819
  H      1.263197   -2.117815   -0.015643
  H     -1.265520    2.174377   -0.005747
  C     -1.496655   -2.559416   -0.018969
  H     -2.160989   -2.548652   -0.895397
  H     -2.164651   -2.552314    0.854714
  C     -0.685989   -3.865099   -0.020056
  H     -0.029348   -3.893761   -0.899547
  H     -0.033327   -3.897631    0.862264
  C     -1.584994   -5.114929   -0.024914
  H     -2.245027   -5.089694    0.852126
  H     -2.240762   -5.085892   -0.905031
  C     -0.783503   -6.428225   -0.025844
  H     -0.142715   -6.499503    0.860230
  H     -0.137886   -6.495264   -0.908737
  C      1.472248    2.584906   -0.002662
  H      2.138519    2.575598    0.870334
  H      2.140291    2.580023   -0.874333
  C      0.652914    3.884569   -0.000207
  H     -0.001101    3.916337   -0.881803
  H     -0.003334    3.911681    0.879880
  C      1.544979    5.139532    0.004282
  H      2.201657    5.113465    0.884006
  H      2.204178    5.117973   -0.873676
  C      0.737225    6.448979    0.006509
  H      0.091955    6.512343    0.889887
  H      0.095047    6.517287   -0.878754
  C      4.047570   -0.037828   -0.010119
  H     -1.446882   -7.299112   -0.029733
  H      1.395944    7.323513    0.010100
  C      5.474806   -0.092407   -0.009888
  C      6.146864   -1.341117   -0.011719
  C      7.544939   -1.391233   -0.011504
  C      8.299041   -0.204703   -0.009492
  C      7.641470    1.037985   -0.007687
  C      6.243742    1.098933   -0.007892
  H      9.384771   -0.247995   -0.009343
  H      8.219407    1.958416   -0.006137
  H      5.562231   -2.256245   -0.013273
  H      5.734127    2.057830   -0.006528
  H      8.048212   -2.354540   -0.012911

----------------------------
CARTESIAN COORDINATES (A.U.)
----------------------------
  NO LB      ZA    FRAG     MASS         X           Y           Z
   0 C     6.0000    0    12.011   -5.270920    0.109485   -0.022636
   1 C     6.0000    0    12.011    5.326082    0.006752   -0.017562
   2 C     6.0000    0    12.011   -2.692044   -0.008833   -0.021908
   3 C     6.0000    0    12.011   -1.315720   -2.395935   -0.027563
   4 C     6.0000    0    12.011    1.291122   -2.270232   -0.025576
   5 C     6.0000    0    12.011    2.649554    0.062757   -0.018508
   6 C     6.0000    0    12.011    1.297773    2.422158   -0.012782
   7 C     6.0000    0    12.011   -1.314909    2.367687   -0.014775
   8 H     1.0000    0     1.008    2.387097   -4.002090   -0.029561
   9 H     1.0000    0     1.008   -2.391487    4.108977   -0.010861
  10 C     6.0000    0    12.011   -2.828267   -4.836595   -0.035845
  11 H     1.0000    0     1.008   -4.083678   -4.816254   -1.692055
  12 H     1.0000    0     1.008   -4.090598   -4.823174    1.615175
  13 C     6.0000    0    12.011   -1.296330   -7.303978   -0.037900
  14 H     1.0000    0     1.008   -0.055459   -7.358142   -1.699897
  15 H     1.0000    0     1.008   -0.062979   -7.365454    1.629443
  16 C     6.0000    0    12.011   -2.995205   -9.665815   -0.047080
  17 H     1.0000    0     1.008   -4.242486   -9.618128    1.610284
  18 H     1.0000    0     1.008   -4.234426   -9.610944   -1.710261
  19 C     6.0000    0    12.011   -1.480606  -12.147584   -0.048838
  20 H     1.0000    0     1.008   -0.269693  -12.282281    1.625599
  21 H     1.0000    0     1.008   -0.260567  -12.274270   -1.717265
  22 C     6.0000    0    12.011    2.782145    4.884765   -0.005031
  23 H     1.0000    0     1.008    4.041215    4.867174    1.644693
  24 H     1.0000    0     1.008    4.044563    4.875537   -1.652250
  25 C     6.0000    0    12.011    1.233829    7.340772   -0.000390
  26 H     1.0000    0     1.008   -0.002081    7.400804   -1.666366
  27 H     1.0000    0     1.008   -0.006300    7.392006    1.662732
  28 C     6.0000    0    12.011    2.919587    9.712309    0.008092
  29 H     1.0000    0     1.008    4.160529    9.663048    1.670529
  30 H     1.0000    0     1.008    4.165294    9.671568   -1.651009
  31 C     6.0000    0    12.011    1.393154   12.186803    0.012299
  32 H     1.0000    0     1.008    0.173769   12.306545    1.681643
  33 H     1.0000    0     1.008    0.179614   12.315887   -1.660605
  34 C     6.0000    0    12.011    7.648800   -0.071485   -0.019123
  35 H     1.0000    0     1.008   -2.734211  -13.793322   -0.056187
  36 H     1.0000    0     1.008    2.637952   13.839435    0.019086
  37 C     6.0000    0    12.011   10.345884   -0.174623   -0.018686
  38 C     6.0000    0    12.011   11.615890   -2.534343   -0.022145
  39 C     6.0000    0    12.011   14.257869   -2.629050   -0.021739
  40 C     6.0000    0    12.011   15.682914   -0.386832   -0.017937
  41 C     6.0000    0    12.011   14.440286    1.961507   -0.014526
  42 C     6.0000    0    12.011   11.798963    2.076683   -0.014913
  43 H     1.0000    0     1.008   17.734647   -0.468643   -0.017656
  44 H     1.0000    0     1.008   15.532429    3.700870   -0.011597
  45 H     1.0000    0     1.008   10.511094   -4.263686   -0.025083
  46 H     1.0000    0     1.008   10.835930    3.888735   -0.012337
  47 H     1.0000    0     1.008   15.208917   -4.449436   -0.024399

--------------------------------
INTERNAL COORDINATES (ANGSTROEM)
--------------------------------
 C      0   0   0     0.000000000000     0.00000000     0.00000000
 C      1   0   0     5.607956027691     0.00000000     0.00000000
 C      1   2   0     1.366118113626     2.07144663     0.00000000
 C      3   1   2     1.458126440189   122.59304248   179.83745990
 C      4   3   1     1.381084748581   117.20544566   180.01513794
 C      2   1   3     1.416667559138     0.64330473   180.32830108
 C      6   2   5     1.438945655686   121.00842748   180.00736764
 C      7   6   2     1.382872827262   118.61528876   179.98055027
 H      5   4   3     1.084556105169   119.56606755   179.99820243
 H      8   7   6     1.083344611298   120.53246254   180.00832550
 C      4   3   1     1.519456508835   118.24620062     0.03011862
 H     11   4   3     1.099810733405   108.19021365    56.96002977
 H     11   4   3     1.099814348341   108.18977684   303.20659944
 C     11   4   3     1.536876020418   116.37720064   180.08138787
 H     14  11   4     1.097953752352   109.76766817   301.52243748
 H     14  11   4     1.097959124123   109.76433998    58.50233121
 C     14  11   4     1.539581415885   112.43734065   180.01446571
 H     17  14  11     1.097942705157   109.25981648   302.05358687
 H     17  14  11     1.097943670762   109.25799180    57.96629404
 C     17  14  11     1.538549727685   112.87713374   180.00787578
 H     20  17  14     1.095818015734   111.07911927    59.90927318
 H     20  17  14     1.095817475821   111.07728443   300.13723293
 C      7   6   2     1.521589337854   119.11025620     0.00000000
 H     23   7   6     1.098237958611   107.94286935   303.36602122
 H     23   7   6     1.098232405902   107.94306792    56.57997425
 C     23   7   6     1.536371373983   116.69191040   179.97277144
 H     26  23   7     1.098160774218   109.92513548   301.42338825
 H     26  23   7     1.098157197028   109.92900861    58.54494002
 C     26  23   7     1.539718143791   112.36567382   179.98388371
 H     29  26  23     1.098098241913   109.23586492   302.02978399
 H     29  26  23     1.098098549371   109.23648717    57.94581933
 C     29  26  23     1.538544893659   112.92474580   179.98906665
 H     32  29  26     1.095785914478   111.07211901    59.84403437
 H     32  29  26     1.095786550194   111.07346748   300.11015926
 C      2   1   3     1.229826553861   178.62465333     2.43523735
 H     20  17  14     1.094774521393   111.30712713   180.02332819
 H     32  29  26     1.094867586766   111.34322594   179.97692026
 C     35   2   6     1.428279073342   179.73491804   345.02668833
 C     38  35   2     1.418076826725   120.47912698    10.46852868
 C     39  38  35     1.398972831702   120.34218794   179.99922002
 C     40  39  38     1.405890415093   120.38503350     0.00000000
 C     41  40  39     1.405942588794   119.67637195     0.00000000
 C     42  41  40     1.399056467860   120.38240958     0.00000000
 H     41  40  39     1.086593255368   120.15463051   180.00070994
 H     42  41  40     1.086833399660   119.98979988   180.00055372
 H     39  38  35     1.085936852519   119.13822555     0.00000000
 H     43  42  41     1.085906226982   120.48562731   180.00177979
 H     40  39  38     1.086851289848   119.63747926   179.99953184

---------------------------
INTERNAL COORDINATES (A.U.)
---------------------------
 C      0   0   0     0.000000000000     0.00000000     0.00000000
 C      1   0   0    10.597501063409     0.00000000     0.00000000
 C      1   2   0     2.581589101342     2.07144663     0.00000000
 C      3   1   2     2.755459640587   122.59304248   179.83745990
 C      4   3   1     2.609871942554   117.20544566   180.01513794
 C      2   1   3     2.677113709581     0.64330473   180.32830108
 C      6   2   5     2.719213210843   121.00842748   180.00736764
 C      7   6   2     2.613250921567   118.61528876   179.98055027
 H      5   4   3     2.049514015642   119.56606755   179.99820243
 H      8   7   6     2.047224624013   120.53246254   180.00832550
 C      4   3   1     2.871356674101   118.24620062     0.03011862
 H     11   4   3     2.078341085282   108.19021365    56.96002977
 H     11   4   3     2.078347916522   108.18977684   303.20659944
 C     11   4   3     2.904274780381   116.37720064   180.08138787
 H     14  11   4     2.074831899657   109.76766817   301.52243748
 H     14  11   4     2.074842050832   109.76433998    58.50233121
 C     14  11   4     2.909387236897   112.43734065   180.01446571
 H     17  14  11     2.074811023482   109.25981648   302.05358687
 H     17  14  11     2.074812848212   109.25799180    57.96629404
 C     17  14  11     2.907437628743   112.87713374   180.00787578
 H     20  17  14     2.070795942354   111.07911927    59.90927318
 H     20  17  14     2.070794922067   111.07728443   300.13723293
 C      7   6   2     2.875387136839   119.11025620     0.00000000
 H     23   7   6     2.075368971651   107.94286935   303.36602122
 H     23   7   6     2.075358478551   107.94306792    56.57997425
 C     23   7   6     2.903321136824   116.69191040   179.97277144
 H     26  23   7     2.075223114287   109.92513548   301.42338825
 H     26  23   7     2.075216354378   109.92900861    58.54494002
 C     26  23   7     2.909645615195   112.36567382   179.98388371
 H     29  26  23     2.075104945355   109.23586492   302.02978399
 H     29  26  23     2.075105526368   109.23648717    57.94581933
 C     29  26  23     2.907428493758   112.92474580   179.98906665
 H     32  29  26     2.070735279771   111.07211901    59.84403437
 H     32  29  26     2.070736481101   111.07346748   300.11015926
 C      2   1   3     2.324035379021   178.62465333     2.43523735
 H     20  17  14     2.068824023828   111.30712713   180.02332819
 H     32  29  26     2.068999891896   111.34322594   179.97692026
 C     35   2   6     2.699056291428   179.73491804   345.02668833
 C     38  35   2     2.679776839370   120.47912698    10.46852868
 C     39  38  35     2.643675520713   120.34218794   179.99922002
 C     40  39  38     2.656747858831   120.38503350     0.00000000
 C     41  40  39     2.656846452837   119.67637195     0.00000000
 C     42  41  40     2.643833570146   120.38240958     0.00000000
 H     41  40  39     2.053363671611   120.15463051   180.00070994
 H     42  41  40     2.053817478556   119.98979988   180.00055372
 H     39  38  35     2.052123249993   119.13822555     0.00000000
 H     43  42  41     2.052065376116   120.48562731   180.00177979
 H     40  39  38     2.053851286112   119.63747926   179.99953184

---------------------
BASIS SET INFORMATION
---------------------
There are 2 groups of distinct atoms

 Group   1 Type C   : 10s5p1d contracted to 6s2p1d pattern {511111/41/1}
 Group   2 Type H   : 6s1p contracted to 4s1p pattern {3111/1}

Atom   0C    basis set group =>   1
Atom   1C    basis set group =>   1
Atom   2C    basis set group =>   1
Atom   3C    basis set group =>   1
Atom   4C    basis set group =>   1
Atom   5C    basis set group =>   1
Atom   6C    basis set group =>   1
Atom   7C    basis set group =>   1
Atom   8H    basis set group =>   2
Atom   9H    basis set group =>   2
Atom  10C    basis set group =>   1
Atom  11H    basis set group =>   2
Atom  12H    basis set group =>   2
Atom  13C    basis set group =>   1
Atom  14H    basis set group =>   2
Atom  15H    basis set group =>   2
Atom  16C    basis set group =>   1
Atom  17H    basis set group =>   2
Atom  18H    basis set group =>   2
Atom  19C    basis set group =>   1
Atom  20H    basis set group =>   2
Atom  21H    basis set group =>   2
Atom  22C    basis set group =>   1
Atom  23H    basis set group =>   2
Atom  24H    basis set group =>   2
Atom  25C    basis set group =>   1
Atom  26H    basis set group =>   2
Atom  27H    basis set group =>   2
Atom  28C    basis set group =>   1
Atom  29H    basis set group =>   2
Atom  30H    basis set group =>   2
Atom  31C    basis set group =>   1
Atom  32H    basis set group =>   2
Atom  33H    basis set group =>   2
Atom  34C    basis set group =>   1
Atom  35H    basis set group =>   2
Atom  36H    basis set group =>   2
Atom  37C    basis set group =>   1
Atom  38C    basis set group =>   1
Atom  39C    basis set group =>   1
Atom  40C    basis set group =>   1
Atom  41C    basis set group =>   1
Atom  42C    basis set group =>   1
Atom  43H    basis set group =>   2
Atom  44H    basis set group =>   2
Atom  45H    basis set group =>   2
Atom  46H    basis set group =>   2
Atom  47H    basis set group =>   2
---------------------------------
AUXILIARY/J BASIS SET INFORMATION
---------------------------------
There are 2 groups of distinct atoms

 Group   1 Type C   : 17s13p12d2f contracted to 17s13p12d2f pattern {11111111111111111/1111111111111/111111111111/11}
 Group   2 Type H   : 15s6p1d contracted to 15s6p1d pattern {111111111111111/111111/1}

Atom   0C    basis set group =>   1
Atom   1C    basis set group =>   1
Atom   2C    basis set group =>   1
Atom   3C    basis set group =>   1
Atom   4C    basis set group =>   1
Atom   5C    basis set group =>   1
Atom   6C    basis set group =>   1
Atom   7C    basis set group =>   1
Atom   8H    basis set group =>   2
Atom   9H    basis set group =>   2
Atom  10C    basis set group =>   1
Atom  11H    basis set group =>   2
Atom  12H    basis set group =>   2
Atom  13C    basis set group =>   1
Atom  14H    basis set group =>   2
Atom  15H    basis set group =>   2
Atom  16C    basis set group =>   1
Atom  17H    basis set group =>   2
Atom  18H    basis set group =>   2
Atom  19C    basis set group =>   1
Atom  20H    basis set group =>   2
Atom  21H    basis set group =>   2
Atom  22C    basis set group =>   1
Atom  23H    basis set group =>   2
Atom  24H    basis set group =>   2
Atom  25C    basis set group =>   1
Atom  26H    basis set group =>   2
Atom  27H    basis set group =>   2
Atom  28C    basis set group =>   1
Atom  29H    basis set group =>   2
Atom  30H    basis set group =>   2
Atom  31C    basis set group =>   1
Atom  32H    basis set group =>   2
Atom  33H    basis set group =>   2
Atom  34C    basis set group =>   1
Atom  35H    basis set group =>   2
Atom  36H    basis set group =>   2
Atom  37C    basis set group =>   1
Atom  38C    basis set group =>   1
Atom  39C    basis set group =>   1
Atom  40C    basis set group =>   1
Atom  41C    basis set group =>   1
Atom  42C    basis set group =>   1
Atom  43H    basis set group =>   2
Atom  44H    basis set group =>   2
Atom  45H    basis set group =>   2
Atom  46H    basis set group =>   2
Atom  47H    basis set group =>   2
---------------------------------
AUXILIARY/C BASIS SET INFORMATION
---------------------------------
There are 2 groups of distinct atoms

 Group   1 Type C   : 17s13p12d2f contracted to 17s13p12d2f pattern {11111111111111111/1111111111111/111111111111/11}
 Group   2 Type H   : 15s6p1d contracted to 15s6p1d pattern {111111111111111/111111/1}

Atom   0C    basis set group =>   1
Atom   1C    basis set group =>   1
Atom   2C    basis set group =>   1
Atom   3C    basis set group =>   1
Atom   4C    basis set group =>   1
Atom   5C    basis set group =>   1
Atom   6C    basis set group =>   1
Atom   7C    basis set group =>   1
Atom   8H    basis set group =>   2
Atom   9H    basis set group =>   2
Atom  10C    basis set group =>   1
Atom  11H    basis set group =>   2
Atom  12H    basis set group =>   2
Atom  13C    basis set group =>   1
Atom  14H    basis set group =>   2
Atom  15H    basis set group =>   2
Atom  16C    basis set group =>   1
Atom  17H    basis set group =>   2
Atom  18H    basis set group =>   2
Atom  19C    basis set group =>   1
Atom  20H    basis set group =>   2
Atom  21H    basis set group =>   2
Atom  22C    basis set group =>   1
Atom  23H    basis set group =>   2
Atom  24H    basis set group =>   2
Atom  25C    basis set group =>   1
Atom  26H    basis set group =>   2
Atom  27H    basis set group =>   2
Atom  28C    basis set group =>   1
Atom  29H    basis set group =>   2
Atom  30H    basis set group =>   2
Atom  31C    basis set group =>   1
Atom  32H    basis set group =>   2
Atom  33H    basis set group =>   2
Atom  34C    basis set group =>   1
Atom  35H    basis set group =>   2
Atom  36H    basis set group =>   2
Atom  37C    basis set group =>   1
Atom  38C    basis set group =>   1
Atom  39C    basis set group =>   1
Atom  40C    basis set group =>   1
Atom  41C    basis set group =>   1
Atom  42C    basis set group =>   1
Atom  43H    basis set group =>   2
Atom  44H    basis set group =>   2
Atom  45H    basis set group =>   2
Atom  46H    basis set group =>   2
Atom  47H    basis set group =>   2
----------------------------------
AUXILIARY/JK BASIS SET INFORMATION
----------------------------------
There are 2 groups of distinct atoms

 Group   1 Type C   : 17s13p12d2f contracted to 17s13p12d2f pattern {11111111111111111/1111111111111/111111111111/11}
 Group   2 Type H   : 15s6p1d contracted to 15s6p1d pattern {111111111111111/111111/1}

Atom   0C    basis set group =>   1
Atom   1C    basis set group =>   1
Atom   2C    basis set group =>   1
Atom   3C    basis set group =>   1
Atom   4C    basis set group =>   1
Atom   5C    basis set group =>   1
Atom   6C    basis set group =>   1
Atom   7C    basis set group =>   1
Atom   8H    basis set group =>   2
Atom   9H    basis set group =>   2
Atom  10C    basis set group =>   1
Atom  11H    basis set group =>   2
Atom  12H    basis set group =>   2
Atom  13C    basis set group =>   1
Atom  14H    basis set group =>   2
Atom  15H    basis set group =>   2
Atom  16C    basis set group =>   1
Atom  17H    basis set group =>   2
Atom  18H    basis set group =>   2
Atom  19C    basis set group =>   1
Atom  20H    basis set group =>   2
Atom  21H    basis set group =>   2
Atom  22C    basis set group =>   1
Atom  23H    basis set group =>   2
Atom  24H    basis set group =>   2
Atom  25C    basis set group =>   1
Atom  26H    basis set group =>   2
Atom  27H    basis set group =>   2
Atom  28C    basis set group =>   1
Atom  29H    basis set group =>   2
Atom  30H    basis set group =>   2
Atom  31C    basis set group =>   1
Atom  32H    basis set group =>   2
Atom  33H    basis set group =>   2
Atom  34C    basis set group =>   1
Atom  35H    basis set group =>   2
Atom  36H    basis set group =>   2
Atom  37C    basis set group =>   1
Atom  38C    basis set group =>   1
Atom  39C    basis set group =>   1
Atom  40C    basis set group =>   1
Atom  41C    basis set group =>   1
Atom  42C    basis set group =>   1
Atom  43H    basis set group =>   2
Atom  44H    basis set group =>   2
Atom  45H    basis set group =>   2
Atom  46H    basis set group =>   2
Atom  47H    basis set group =>   2

Checking for AutoStart:
The File: EPRII_i.gbw exists
Trying to determine its content:
     ... Fine, the file contains calculation information
     ... Fine, the calculation information was read
     ... Fine, the file contains a basis set
     ... Fine, the basis set was read
     ... Fine, the file contains a geometry
     ... Fine, the geometry was read
     ... Fine, the file contains a set of orbitals
     ... Fine, the orbitals can be read
     => possible old guess file was deleted
     => GBW file was renamed to GES file
     => GES file is set as startup file
     => Guess is set to MORead
     ... now leaving AutoStart



           ************************************************************
           *        Program running with 16 parallel MPI-processes    *
           *              working on a common directory               *
           ************************************************************
------------------------------------------------------------------------------
                           ORCA GTO INTEGRAL CALCULATION
                           -- RI-GTO INTEGRALS CHOSEN --
------------------------------------------------------------------------------
------------------------------------------------------------------------------
                   ___                                                        
                  /   \      - P O W E R E D   B Y -                         
                 /     \                                                     
                 |  |  |   _    _      __       _____    __    __             
                 |  |  |  | |  | |    /  \     |  _  \  |  |  /  |          
                  \  \/   | |  | |   /    \    | | | |  |  | /  /          
                 / \  \   | |__| |  /  /\  \   | |_| |  |  |/  /          
                |  |  |   |  __  | /  /__\  \  |    /   |      \           
                |  |  |   | |  | | |   __   |  |    \   |  |\   \          
                \     /   | |  | | |  |  |  |  | |\  \  |  | \   \       
                 \___/    |_|  |_| |__|  |__|  |_| \__\ |__|  \__/        
                                                                              
                      - O R C A' S   B I G   F R I E N D -                    
                                      &                                       
                       - I N T E G R A L  F E E D E R -                       
                                                                              
 v1 FN, 2020, v2 2021                                                         
------------------------------------------------------------------------------


Reading SHARK input file EPRII_i.SHARKINP.tmp ... ok
----------------------
SHARK INTEGRAL PACKAGE
----------------------

Number of atoms                             ...     48
Number of basis functions                   ...    566
Number of shells                            ...    332
Maximum angular momentum                    ...      2
Integral batch strategy                     ... SHARK/LIBINT Hybrid
RI-J (if used) integral strategy            ... SPLIT-RIJ (Revised 2003 algorithm where possible)
Printlevel                                  ...      1
Contraction scheme used                     ... SEGMENTED contraction
Coulomb Range Separation                    ... NOT USED
Exchange Range Separation                   ... NOT USED
Finite Nucleus Model                        ... NOT USED
Auxiliary Coulomb fitting basis             ... AVAILABLE
   # of basis functions in Aux-J            ...   3940
   # of shells in Aux-J                     ...   1562
   Maximum angular momentum in Aux-J        ...      3
Auxiliary J/K fitting basis                 ... AVAILABLE
   # of basis functions in Aux-JK           ...   3940
   # of shells in Aux-JK                    ...   1562
   Maximum angular momentum in Aux-JK       ...      3
Auxiliary Correlation fitting basis         ... AVAILABLE
   # of basis functions in Aux-C            ...   3940
   # of shells in Aux-C                     ...   1562
   Maximum angular momentum in Aux-C        ...      3
Auxiliary 'external' fitting basis          ... NOT available
Integral threshold                          ...     1.000000e-10
Primitive cut-off                           ...     1.000000e-11
Primitive pair pre-selection threshold      ...     1.000000e-11

Calculating pre-screening integrals         ... done (  0.0 sec) Dimension = 332
Organizing shell pair data                  ... done (  0.2 sec)
Shell pair information
Total number of shell pairs                 ...     55278
Shell pairs after pre-screening             ...     28098
Total number of primitive shell pairs       ...    148139
Primitive shell pairs kept                  ...     52968
          la=0 lb=0:  12931 shell pairs
          la=1 lb=0:   9671 shell pairs
          la=1 lb=1:   1730 shell pairs
          la=2 lb=0:   2625 shell pairs
          la=2 lb=1:    989 shell pairs
          la=2 lb=2:    152 shell pairs

Calculating one electron integrals          ... done (  0.0 sec)
Calculating RI/J V-Matrix + Cholesky decomp.... done (  0.9 sec)
Calculating RI/JK V-Matrix + Cholesky decomp... done (  0.9 sec)
Calculating RI/C V-Matrix + Cholesky decomp.... done (  0.9 sec)
Calculating Nuclear repulsion               ... done (  0.0 sec) ENN=   1626.478833306787 Eh

SHARK setup successfully completed in   3.3 seconds

Maximum memory used throughout the entire GTOINT-calculation: 56.4 MB


           ************************************************************
           *        Program running with 16 parallel MPI-processes    *
           *              working on a common directory               *
           ************************************************************
-------------------------------------------------------------------------------
                                 ORCA SCF
-------------------------------------------------------------------------------

------------
SCF SETTINGS
------------
Hamiltonian:
 Density Functional     Method          .... DFT(GTOs)
 Exchange Functional    Exchange        .... B88
   X-Alpha parameter    XAlpha          ....  0.666667
   Becke's b parameter  XBeta           ....  0.004200
 Correlation Functional Correlation     .... LYP
 LDA part of GGA corr.  LDAOpt          .... VWN-5
 Gradients option       PostSCFGGA      .... off
 Hybrid DFT is turned on
   Fraction HF Exchange ScalHFX         ....  0.200000
   Scaling of DF-GGA-X  ScalDFX         ....  0.720000
   Scaling of DF-GGA-C  ScalDFC         ....  0.810000
   Scaling of DF-LDA-C  ScalLDAC        ....  1.000000
   Perturbative correction              ....  0.000000
   Density functional embedding theory  .... OFF
   NL short-range parameter             ....  4.800000
 RI-approximation to the Coulomb term is turned on
   Number of AuxJ basis functions       .... 3940
   RIJ-COSX (HFX calculated with COS-X)).... on


General Settings:
 Integral files         IntName         .... EPRII_i
 Hartree-Fock type      HFTyp           .... UHF
 Total Charge           Charge          ....    0
 Multiplicity           Mult            ....    2
 Number of Electrons    NEL             ....  163
 Basis Dimension        Dim             ....  566
 Nuclear Repulsion      ENuc            ....   1626.4788333068 Eh

Convergence Acceleration:
 DIIS                   CNVDIIS         .... on
   Start iteration      DIISMaxIt       ....    12
   Startup error        DIISStart       ....  0.200000
   # of expansion vecs  DIISMaxEq       ....     5
   Bias factor          DIISBfac        ....   1.050
   Max. coefficient     DIISMaxC        ....  10.000
 Trust-Rad. Augm. Hess. CNVTRAH         .... auto
   Auto Start mean grad. ratio tolernc. ....  1.125000
   Auto Start start iteration           ....     1
   Auto Start num. interpolation iter.  ....    10
   Max. Number of Micro iterations      ....    16
   Max. Number of Macro iterations      .... Maxiter - #DIIS iter
   Number of Davidson start vectors     ....     2
   Converg. threshold I  (grad. norm)   ....   5.000e-05
   Converg. threshold II (energy diff.) ....   1.000e-06
   Grad. Scal. Fac. for Micro threshold ....   0.100
   Minimum threshold for Micro iter.    ....   0.010
   NR start threshold (gradient norm)   ....   0.001
   Initial trust radius                 ....   0.400
   Minimum AH scaling param. (alpha)    ....   1.000
   Maximum AH scaling param. (alpha)    .... 1000.000
   Orbital update algorithm             .... Taylor
   White noise on init. David. guess    .... on
   Maximum white noise                  ....   0.010
   Quad. conv. algorithm                .... NR
 SOSCF                  CNVSOSCF        .... off
 Level Shifting         CNVShift        .... on
   Level shift para.    LevelShift      ....    0.2500
   Turn off err/grad.   ShiftErr        ....    0.0010
 Zerner damping         CNVZerner       .... off
 Static damping         CNVDamp         .... on
   Fraction old density DampFac         ....    0.7000
   Max. Damping (<1)    DampMax         ....    0.9800
   Min. Damping (>=0)   DampMin         ....    0.0000
   Turn off err/grad.   DampErr         ....    0.1000
 Fernandez-Rico         CNVRico         .... off

SCF Procedure:
 Maximum # iterations   MaxIter         ....   125
 SCF integral mode      SCFMode         .... Direct
   Integral package                     .... SHARK and LIBINT hybrid scheme
 Reset frequency        DirectResetFreq ....    20
 Integral Threshold     Thresh          ....  1.000e-10 Eh
 Primitive CutOff       TCut            ....  1.000e-11 Eh

Convergence Tolerance:
 Convergence Check Mode ConvCheckMode   .... Total+1el-Energy
 Convergence forced     ConvForced      .... 0
 Energy Change          TolE            ....  1.000e-06 Eh
 1-El. energy change                    ....  1.000e-03 Eh
 DIIS Error             TolErr          ....  1.000e-06


Diagonalization of the overlap matrix:
Smallest eigenvalue                        ... 7.608e-05
Time for diagonalization                   ...    0.082 sec
Threshold for overlap eigenvalues          ... 1.000e-08
Number of eigenvalues below threshold      ... 0
Time for construction of square roots      ...    0.061 sec
Total time needed                          ...    0.144 sec

---------------------
INITIAL GUESS: MOREAD
---------------------
Guess MOs are being read from file: EPRII_i.ges
Input geometry compatible with but different from current geometry
Input basis set matches current basis set (good)
MOs were renormalized
MOs were reorthogonalized (Cholesky)
                      ------------------
                      INITIAL GUESS DONE (   0.3 sec)
                      ------------------
-------------------
DFT GRID GENERATION
-------------------

General Integration Accuracy     IntAcc      ... 4.388
Radial Grid Type                 RadialGrid  ... OptM3 with GC (2021)
Angular Grid (max. ang.)         AngularGrid ... 4 (Lebedev-302)
Angular grid pruning method      GridPruning ... 4 (adaptive)
Weight generation scheme         WeightScheme... Becke
Basis function cutoff            BFCut       ... 1.0000e-10
Integration weight cutoff        WCut        ... 1.0000e-14
Angular grids for H and He will be reduced by one unit
Partially contracted basis set               ... off
Rotationally invariant grid construction     ... off

Total number of grid points                  ...   217097
Total number of batches                      ...     3417
Average number of points per batch           ...       63
Average number of grid points per atom       ...     4523
Time for grid setup =    1.376 sec

--------------------
COSX GRID GENERATION
--------------------

GRIDX 1
-------
General Integration Accuracy     IntAcc      ... 3.816
Radial Grid Type                 RadialGrid  ... OptM3 with GC (2021)
Angular Grid (max. ang.)         AngularGrid ... 1 (Lebedev-50)
Angular grid pruning method      GridPruning ... 4 (adaptive)
Weight generation scheme         WeightScheme... Becke
Basis function cutoff            BFCut       ... 1.0000e-10
Integration weight cutoff        WCut        ... 1.0000e-14
Angular grids for H and He will be reduced by one unit
Partially contracted basis set               ... on
Rotationally invariant grid construction     ... off

Total number of grid points                  ...    27674
Total number of batches                      ...      457
Average number of points per batch           ...       60
Average number of grid points per atom       ...      577
UseSFitting                                  ... on

GRIDX 2
-------
General Integration Accuracy     IntAcc      ... 4.020
Radial Grid Type                 RadialGrid  ... OptM3 with GC (2021)
Angular Grid (max. ang.)         AngularGrid ... 2 (Lebedev-110)
Angular grid pruning method      GridPruning ... 4 (adaptive)
Weight generation scheme         WeightScheme... Becke
Basis function cutoff            BFCut       ... 1.0000e-10
Integration weight cutoff        WCut        ... 1.0000e-14
Angular grids for H and He will be reduced by one unit
Partially contracted basis set               ... on
Rotationally invariant grid construction     ... off

Total number of grid points                  ...    58880
Total number of batches                      ...      945
Average number of points per batch           ...       62
Average number of grid points per atom       ...     1227
UseSFitting                                  ... on

GRIDX 3
-------
General Integration Accuracy     IntAcc      ... 4.338
Radial Grid Type                 RadialGrid  ... OptM3 with GC (2021)
Angular Grid (max. ang.)         AngularGrid ... 3 (Lebedev-194)
Angular grid pruning method      GridPruning ... 4 (adaptive)
Weight generation scheme         WeightScheme... Becke
Basis function cutoff            BFCut       ... 1.0000e-10
Integration weight cutoff        WCut        ... 1.0000e-14
Angular grids for H and He will be reduced by one unit
Partially contracted basis set               ... on
Rotationally invariant grid construction     ... off

Total number of grid points                  ...   128761
Total number of batches                      ...     2037
Average number of points per batch           ...       63
Average number of grid points per atom       ...     2683
UseSFitting                                  ... on

Time for X-Grid setup             =    2.323 sec

--------------
SCF ITERATIONS
--------------
ITER       Energy         Delta-E        Max-DP      RMS-DP      [F,P]     Damp
               ***  Starting incremental Fock matrix formation  ***
  0   -890.8204466380   0.000000000000 0.00651351  0.00004410  0.0022064 0.7000
  1   -890.8205970184  -0.000150380350 0.00604247  0.00003875  0.0015970 0.7000
                               ***Turning on DIIS***
  2   -890.8207024693  -0.000105450918 0.01515880  0.00009585  0.0011357 0.0000
  3   -890.8209444645  -0.000241995162 0.00194160  0.00001338  0.0003379 0.0000
               *** Restarting incremental Fock matrix formation ***
                                   *** Resetting DIIS ***
  4   -890.8209381879   0.000006276580 0.00114541  0.00001234  0.0003820 0.0000
  5   -890.8209337166   0.000004471316 0.00088403  0.00000753  0.0004490 0.0000
  6   -890.8209448134  -0.000011096772 0.00017739  0.00000166  0.0001393 0.0000
  7   -890.8209448786  -0.000000065210 0.00016492  0.00000132  0.0001736 0.0000
                 **** Energy Check signals convergence ****

               *****************************************************
               *                     SUCCESS                       *
               *           SCF CONVERGED AFTER   8 CYCLES          *
               *****************************************************

Old exchange energy                            =    -25.568883195 Eh
New exchange energy                            =    -25.568866642 Eh
Exchange energy change after final integration =      0.000016553 Eh
Total energy after final integration           =   -890.820928555 Eh
Final COS-X integration done in                =     9.500 sec

----------------
TOTAL SCF ENERGY
----------------

Total Energy       :         -890.82092855 Eh          -24240.46983 eV

Components:
Nuclear Repulsion  :         1626.47883331 Eh           44258.73913 eV
Electronic Energy  :        -2517.29976186 Eh          -68499.20895 eV
One Electron Energy:        -4430.09577264 Eh         -120549.03457 eV
Two Electron Energy:         1912.79601078 Eh           52049.82562 eV
Max COSX asymmetry :            0.00000514 Eh               0.00014 eV

Virial components:
Potential Energy   :        -1774.68016050 Eh          -48291.50226 eV
Kinetic Energy     :          883.85923195 Eh           24051.03243 eV
Virial Ratio       :            2.00787648


DFT components:
N(Alpha)           :       82.000170928498 electrons
N(Beta)            :       81.000168904922 electrons
N(Total)           :      163.000339833420 electrons
E(X)               :     -101.420451088295 Eh       
E(C)               :       -6.327857297597 Eh       
E(XC)              :     -107.748308385892 Eh       
DFET-embed. en.    :        0.000000000000 Eh       

---------------
SCF CONVERGENCE
---------------

  Last Energy change         ...   -2.2906e-07  Tolerance :   1.0000e-06
  Last MAX-Density change    ...    0.0000e+00  Tolerance :   1.0000e-05
  Last RMS-Density change    ...    0.0000e+00  Tolerance :   1.0000e-06
  Last DIIS Error            ...    3.7546e-05  Tolerance :   1.0000e-06

             **** THE GBW FILE WAS UPDATED (EPRII_i.gbw) ****
             **** DENSITY EPRII_i.scfp WAS UPDATED ****
             **** ENERGY FILE WAS UPDATED (EPRII_i.en.tmp) ****
----------------------
UHF SPIN CONTAMINATION
----------------------

Warning: in a DFT calculation there is little theoretical justification to 
         calculate <S**2> as in Hartree-Fock theory. We will do it anyways
         but you should keep in mind that the values have only limited relevance

Expectation value of <S**2>     :     0.756819
Ideal value S*(S+1) for S=0.5   :     0.750000
Deviation                       :     0.006819

             **** THE GBW FILE WAS UPDATED (EPRII_i.gbw) ****
             **** DENSITY EPRII_i.scfp WAS UPDATED ****
----------------
ORBITAL ENERGIES
----------------
                 SPIN UP ORBITALS
  NO   OCC          E(Eh)            E(eV) 
   0   1.0000     -10.253061      -279.0000 
   1   1.0000     -10.245383      -278.7911 
   2   1.0000     -10.228894      -278.3423 
   3   1.0000     -10.228730      -278.3379 
   4   1.0000     -10.222733      -278.1747 
   5   1.0000     -10.222600      -278.1711 
   6   1.0000     -10.222287      -278.1626 
   7   1.0000     -10.221904      -278.1522 
   8   1.0000     -10.221668      -278.1457 
   9   1.0000     -10.219582      -278.0890 
  10   1.0000     -10.219469      -278.0859 
  11   1.0000     -10.215450      -277.9765 
  12   1.0000     -10.210679      -277.8467 
  13   1.0000     -10.195182      -277.4250 
  14   1.0000     -10.191864      -277.3347 
  15   1.0000     -10.188771      -277.2505 
  16   1.0000     -10.187100      -277.2051 
  17   1.0000     -10.186068      -277.1770 
  18   1.0000     -10.183026      -277.0942 
  19   1.0000     -10.181399      -277.0499 
  20   1.0000     -10.179556      -276.9998 
  21   1.0000     -10.173996      -276.8485 
  22   1.0000     -10.171673      -276.7853 
  23   1.0000      -0.880790       -23.9675 
  24   1.0000      -0.876525       -23.8515 
  25   1.0000      -0.822038       -22.3688 
  26   1.0000      -0.807679       -21.9781 
  27   1.0000      -0.794543       -21.6206 
  28   1.0000      -0.786219       -21.3941 
  29   1.0000      -0.770908       -20.9775 
  30   1.0000      -0.766158       -20.8482 
  31   1.0000      -0.742046       -20.1921 
  32   1.0000      -0.732142       -19.9226 
  33   1.0000      -0.704086       -19.1592 
  34   1.0000      -0.675371       -18.3778 
  35   1.0000      -0.656360       -17.8605 
  36   1.0000      -0.635839       -17.3021 
  37   1.0000      -0.625829       -17.0297 
  38   1.0000      -0.625251       -17.0140 
  39   1.0000      -0.598857       -16.2957 
  40   1.0000      -0.583677       -15.8827 
  41   1.0000      -0.568605       -15.4725 
  42   1.0000      -0.557732       -15.1767 
  43   1.0000      -0.535659       -14.5760 
  44   1.0000      -0.519297       -14.1308 
  45   1.0000      -0.498069       -13.5532 
  46   1.0000      -0.482480       -13.1289 
  47   1.0000      -0.477172       -12.9845 
  48   1.0000      -0.472216       -12.8496 
  49   1.0000      -0.471456       -12.8290 
  50   1.0000      -0.452883       -12.3236 
  51   1.0000      -0.442749       -12.0478 
  52   1.0000      -0.441078       -12.0024 
  53   1.0000      -0.429578       -11.6894 
  54   1.0000      -0.427442       -11.6313 
  55   1.0000      -0.425102       -11.5676 
  56   1.0000      -0.420725       -11.4485 
  57   1.0000      -0.414005       -11.2657 
  58   1.0000      -0.410113       -11.1598 
  59   1.0000      -0.397547       -10.8178 
  60   1.0000      -0.382994       -10.4218 
  61   1.0000      -0.378364       -10.2958 
  62   1.0000      -0.375699       -10.2233 
  63   1.0000      -0.368976       -10.0404 
  64   1.0000      -0.367985       -10.0134 
  65   1.0000      -0.365305        -9.9404 
  66   1.0000      -0.362531        -9.8650 
  67   1.0000      -0.350641        -9.5414 
  68   1.0000      -0.335377        -9.1261 
  69   1.0000      -0.331863        -9.0304 
  70   1.0000      -0.331783        -9.0283 
  71   1.0000      -0.329199        -8.9580 
  72   1.0000      -0.328212        -8.9311 
  73   1.0000      -0.324418        -8.8279 
  74   1.0000      -0.322343        -8.7714 
  75   1.0000      -0.289727        -7.8839 
  76   1.0000      -0.287663        -7.8277 
  77   1.0000      -0.273775        -7.4498 
  78   1.0000      -0.258465        -7.0332 
  79   1.0000      -0.249943        -6.8013 
  80   1.0000      -0.235553        -6.4097 
  81   1.0000      -0.163751        -4.4559 
  82   0.0000      -0.113576        -3.0906 
  83   0.0000      -0.045367        -1.2345 
  84   0.0000      -0.030271        -0.8237 
  85   0.0000      -0.012088        -0.3289 
  86   0.0000       0.005440         0.1480 
  87   0.0000       0.017721         0.4822 
  88   0.0000       0.020290         0.5521 
  89   0.0000       0.021304         0.5797 
  90   0.0000       0.025055         0.6818 
  91   0.0000       0.028568         0.7774 
  92   0.0000       0.031126         0.8470 
  93   0.0000       0.035629         0.9695 
  94   0.0000       0.044656         1.2152 
  95   0.0000       0.047643         1.2964 
  96   0.0000       0.053165         1.4467 
  97   0.0000       0.060804         1.6546 
  98   0.0000       0.069589         1.8936 
  99   0.0000       0.077558         2.1105 
 100   0.0000       0.080495         2.1904 
 101   0.0000       0.081772         2.2251 
 102   0.0000       0.089146         2.4258 
 103   0.0000       0.100553         2.7362 
 104   0.0000       0.104833         2.8526 
 105   0.0000       0.112411         3.0589 
 106   0.0000       0.119341         3.2474 
 107   0.0000       0.130655         3.5553 
 108   0.0000       0.132235         3.5983 
 109   0.0000       0.146468         3.9856 
 110   0.0000       0.149037         4.0555 
 111   0.0000       0.154547         4.2054 
 112   0.0000       0.161971         4.4074 
 113   0.0000       0.173311         4.7160 
 114   0.0000       0.174601         4.7511 
 115   0.0000       0.179362         4.8807 
 116   0.0000       0.186155         5.0655 
 117   0.0000       0.189259         5.1500 
 118   0.0000       0.189972         5.1694 
 119   0.0000       0.197421         5.3721 
 120   0.0000       0.198512         5.4018 
 121   0.0000       0.199577         5.4308 
 122   0.0000       0.203151         5.5280 
 123   0.0000       0.209662         5.7052 
 124   0.0000       0.211332         5.7506 
 125   0.0000       0.213003         5.7961 
 126   0.0000       0.213570         5.8115 
 127   0.0000       0.219503         5.9730 
 128   0.0000       0.228531         6.2186 
 129   0.0000       0.231979         6.3125 
 130   0.0000       0.232736         6.3331 
 131   0.0000       0.239478         6.5165 
 132   0.0000       0.242804         6.6070 
 133   0.0000       0.246585         6.7099 
 134   0.0000       0.250537         6.8175 
 135   0.0000       0.252722         6.8769 
 136   0.0000       0.255107         6.9418 
 137   0.0000       0.264296         7.1919 
 138   0.0000       0.266045         7.2394 
 139   0.0000       0.269060         7.3215 
 140   0.0000       0.271140         7.3781 
 141   0.0000       0.273589         7.4447 
 142   0.0000       0.280323         7.6280 
 143   0.0000       0.281538         7.6610 
 144   0.0000       0.284414         7.7393 
 145   0.0000       0.286530         7.7969 
 146   0.0000       0.288481         7.8500 
 147   0.0000       0.295172         8.0320 
 148   0.0000       0.296031         8.0554 
 149   0.0000       0.299509         8.1501 
 150   0.0000       0.301759         8.2113 
 151   0.0000       0.303504         8.2588 
 152   0.0000       0.306462         8.3392 
 153   0.0000       0.306806         8.3486 
 154   0.0000       0.312137         8.4937 
 155   0.0000       0.313089         8.5196 
 156   0.0000       0.324246         8.8232 
 157   0.0000       0.324647         8.8341 
 158   0.0000       0.327377         8.9084 
 159   0.0000       0.332678         9.0526 
 160   0.0000       0.337838         9.1930 
 161   0.0000       0.339401         9.2356 
 162   0.0000       0.340209         9.2576 
 163   0.0000       0.358534         9.7562 
 164   0.0000       0.365593         9.9483 
 165   0.0000       0.368352        10.0234 
 166   0.0000       0.369233        10.0473 
 167   0.0000       0.370081        10.0704 
 168   0.0000       0.370895        10.0926 
 169   0.0000       0.378990        10.3128 
 170   0.0000       0.390442        10.6245 
 171   0.0000       0.392714        10.6863 
 172   0.0000       0.397687        10.8216 
 173   0.0000       0.400973        10.9110 
 174   0.0000       0.404163        10.9978 
 175   0.0000       0.406329        11.0568 
 176   0.0000       0.412254        11.2180 
 177   0.0000       0.416362        11.3298 
 178   0.0000       0.418940        11.3999 
 179   0.0000       0.422703        11.5023 
 180   0.0000       0.427415        11.6305 
 181   0.0000       0.432570        11.7708 
 182   0.0000       0.433147        11.7865 
 183   0.0000       0.435621        11.8539 
 184   0.0000       0.440877        11.9969 
 185   0.0000       0.446915        12.1612 
 186   0.0000       0.452215        12.3054 
 187   0.0000       0.456187        12.4135 
 188   0.0000       0.466240        12.6870 
 189   0.0000       0.469967        12.7884 
 190   0.0000       0.470847        12.8124 
 191   0.0000       0.474843        12.9211 
 192   0.0000       0.478688        13.0258 
 193   0.0000       0.484168        13.1749 
 194   0.0000       0.488679        13.2976 
 195   0.0000       0.499628        13.5956 
 196   0.0000       0.504804        13.7364 
 197   0.0000       0.509275        13.8581 
 198   0.0000       0.515101        14.0166 
 199   0.0000       0.523785        14.2529 
 200   0.0000       0.532316        14.4850 
 201   0.0000       0.535109        14.5611 
 202   0.0000       0.543475        14.7887 
 203   0.0000       0.546348        14.8669 
 204   0.0000       0.549059        14.9407 
 205   0.0000       0.557874        15.1805 
 206   0.0000       0.563196        15.3254 
 207   0.0000       0.563430        15.3317 
 208   0.0000       0.568361        15.4659 
 209   0.0000       0.573993        15.6191 
 210   0.0000       0.590170        16.0593 
 211   0.0000       0.594705        16.1827 
 212   0.0000       0.596236        16.2244 
 213   0.0000       0.613100        16.6833 
 214   0.0000       0.626669        17.0525 
 215   0.0000       0.634656        17.2699 
 216   0.0000       0.646398        17.5894 
 217   0.0000       0.649209        17.6659 
 218   0.0000       0.652440        17.7538 
 219   0.0000       0.661911        18.0115 
 220   0.0000       0.667727        18.1698 
 221   0.0000       0.671954        18.2848 
 222   0.0000       0.695763        18.9327 
 223   0.0000       0.701832        19.0978 
 224   0.0000       0.709796        19.3145 
 225   0.0000       0.744648        20.2629 
 226   0.0000       0.759813        20.6756 
 227   0.0000       0.767846        20.8941 
 228   0.0000       0.771814        21.0021 
 229   0.0000       0.779546        21.2125 
 230   0.0000       0.797263        21.6946 
 231   0.0000       0.807111        21.9626 
 232   0.0000       0.821873        22.3643 
 233   0.0000       0.827917        22.5288 
 234   0.0000       0.837653        22.7937 
 235   0.0000       0.845104        22.9965 
 236   0.0000       0.847594        23.0642 
 237   0.0000       0.849049        23.1038 
 238   0.0000       0.856732        23.3128 
 239   0.0000       0.859606        23.3911 
 240   0.0000       0.866358        23.5748 
 241   0.0000       0.881731        23.9931 
 242   0.0000       0.885152        24.0862 
 243   0.0000       0.893809        24.3218 
 244   0.0000       0.894709        24.3463 
 245   0.0000       0.895741        24.3744 
 246   0.0000       0.907042        24.6819 
 247   0.0000       0.908991        24.7349 
 248   0.0000       0.915599        24.9147 
 249   0.0000       0.920947        25.0602 
 250   0.0000       0.926757        25.2183 
 251   0.0000       0.930050        25.3080 
 252   0.0000       0.931136        25.3375 
 253   0.0000       0.932731        25.3809 
 254   0.0000       0.940782        25.6000 
 255   0.0000       0.946476        25.7549 
 256   0.0000       0.949753        25.8441 
 257   0.0000       0.956953        26.0400 
 258   0.0000       0.965250        26.2658 
 259   0.0000       0.966835        26.3089 
 260   0.0000       0.969991        26.3948 
 261   0.0000       0.974435        26.5157 
 262   0.0000       0.977193        26.5908 
 263   0.0000       0.981250        26.7012 
 264   0.0000       0.982396        26.7324 
 265   0.0000       0.990563        26.9546 
 266   0.0000       0.991915        26.9914 
 267   0.0000       1.002948        27.2916 
 268   0.0000       1.007423        27.4134 
 269   0.0000       1.015992        27.6466 
 270   0.0000       1.022069        27.8119 
 271   0.0000       1.022951        27.8359 
 272   0.0000       1.030593        28.0439 
 273   0.0000       1.036327        28.1999 
 274   0.0000       1.040651        28.3175 
 275   0.0000       1.057596        28.7787 
 276   0.0000       1.057988        28.7893 
 277   0.0000       1.061177        28.8761 
 278   0.0000       1.074495        29.2385 
 279   0.0000       1.085260        29.5314 
 280   0.0000       1.088497        29.6195 
 281   0.0000       1.103180        30.0190 
 282   0.0000       1.103697        30.0331 
 283   0.0000       1.104843        30.0643 
 284   0.0000       1.116018        30.3684 
 285   0.0000       1.122253        30.5381 
 286   0.0000       1.136228        30.9183 
 287   0.0000       1.153507        31.3885 
 288   0.0000       1.153796        31.3964 
 289   0.0000       1.172966        31.9180 
 290   0.0000       1.175326        31.9822 
 291   0.0000       1.178015        32.0554 
 292   0.0000       1.179083        32.0845 
 293   0.0000       1.199473        32.6393 
 294   0.0000       1.203332        32.7443 
 295   0.0000       1.205122        32.7930 
 296   0.0000       1.216960        33.1152 
 297   0.0000       1.222431        33.2640 
 298   0.0000       1.235162        33.6105 
 299   0.0000       1.237835        33.6832 
 300   0.0000       1.240712        33.7615 
 301   0.0000       1.257533        34.2192 
 302   0.0000       1.281878        34.8817 
 303   0.0000       1.284640        34.9568 
 304   0.0000       1.289030        35.0763 
 305   0.0000       1.293163        35.1888 
 306   0.0000       1.304611        35.5003 
 307   0.0000       1.317358        35.8471 
 308   0.0000       1.323301        36.0089 
 309   0.0000       1.333044        36.2740 
 310   0.0000       1.335906        36.3518 
 311   0.0000       1.351761        36.7833 
 312   0.0000       1.358969        36.9794 
 313   0.0000       1.361300        37.0429 
 314   0.0000       1.370189        37.2847 
 315   0.0000       1.381365        37.5888 
 316   0.0000       1.390831        37.8464 
 317   0.0000       1.416061        38.5330 
 318   0.0000       1.419355        38.6226 
 319   0.0000       1.424212        38.7548 
 320   0.0000       1.426328        38.8124 
 321   0.0000       1.427669        38.8488 
 322   0.0000       1.431196        38.9448 
 323   0.0000       1.436978        39.1022 
 324   0.0000       1.437196        39.1081 
 325   0.0000       1.448938        39.4276 
 326   0.0000       1.461061        39.7575 
 327   0.0000       1.477961        40.2174 
 328   0.0000       1.480553        40.2879 
 329   0.0000       1.486522        40.4503 
 330   0.0000       1.489849        40.5409 
 331   0.0000       1.495376        40.6912 
 332   0.0000       1.504861        40.9493 
 333   0.0000       1.511926        41.1416 
 334   0.0000       1.512724        41.1633 
 335   0.0000       1.537705        41.8431 
 336   0.0000       1.547218        42.1020 
 337   0.0000       1.554057        42.2880 
 338   0.0000       1.554200        42.2919 
 339   0.0000       1.556187        42.3460 
 340   0.0000       1.557362        42.3780 
 341   0.0000       1.571239        42.7556 
 342   0.0000       1.578973        42.9660 
 343   0.0000       1.590324        43.2749 
 344   0.0000       1.598482        43.4969 
 345   0.0000       1.599590        43.5271 
 346   0.0000       1.604033        43.6480 
 347   0.0000       1.608778        43.7771 
 348   0.0000       1.611814        43.8597 
 349   0.0000       1.615624        43.9634 
 350   0.0000       1.623853        44.1873 
 351   0.0000       1.624783        44.2126 
 352   0.0000       1.628334        44.3092 
 353   0.0000       1.633855        44.4594 
 354   0.0000       1.635543        44.5054 
 355   0.0000       1.645470        44.7755 
 356   0.0000       1.668711        45.4079 
 357   0.0000       1.669750        45.4362 
 358   0.0000       1.670895        45.4674 
 359   0.0000       1.674721        45.5715 
 360   0.0000       1.684739        45.8441 
 361   0.0000       1.685620        45.8681 
 362   0.0000       1.698991        46.2319 
 363   0.0000       1.702793        46.3354 
 364   0.0000       1.706948        46.4484 
 365   0.0000       1.707988        46.4767 
 366   0.0000       1.723601        46.9016 
 367   0.0000       1.735174        47.2165 
 368   0.0000       1.742649        47.4199 
 369   0.0000       1.743505        47.4432 
 370   0.0000       1.750866        47.6435 
 371   0.0000       1.753207        47.7072 
 372   0.0000       1.756913        47.8080 
 373   0.0000       1.766361        48.0651 
 374   0.0000       1.770005        48.1643 
 375   0.0000       1.772894        48.2429 
 376   0.0000       1.783029        48.5187 
 377   0.0000       1.783975        48.5444 
 378   0.0000       1.793894        48.8143 
 379   0.0000       1.796573        48.8872 
 380   0.0000       1.803199        49.0675 
 381   0.0000       1.817183        49.4481 
 382   0.0000       1.823757        49.6270 
 383   0.0000       1.840064        50.0707 
 384   0.0000       1.840285        50.0767 
 385   0.0000       1.847675        50.2778 
 386   0.0000       1.848688        50.3054 
 387   0.0000       1.874333        51.0032 
 388   0.0000       1.900687        51.7203 
 389   0.0000       1.900835        51.7243 
 390   0.0000       1.911470        52.0137 
 391   0.0000       1.918379        52.2017 
 392   0.0000       1.931246        52.5519 
 393   0.0000       1.940720        52.8097 
 394   0.0000       1.948393        53.0185 
 395   0.0000       1.955671        53.2165 
 396   0.0000       1.959102        53.3099 
 397   0.0000       1.961881        53.3855 
 398   0.0000       1.981147        53.9097 
 399   0.0000       2.012315        54.7579 
 400   0.0000       2.028458        55.1972 
 401   0.0000       2.031879        55.2903 
 402   0.0000       2.046322        55.6832 
 403   0.0000       2.052384        55.8482 
 404   0.0000       2.062739        56.1300 
 405   0.0000       2.077355        56.5277 
 406   0.0000       2.088789        56.8388 
 407   0.0000       2.094847        57.0037 
 408   0.0000       2.127396        57.8894 
 409   0.0000       2.134851        58.0923 
 410   0.0000       2.141174        58.2643 
 411   0.0000       2.155910        58.6653 
 412   0.0000       2.162104        58.8338 
 413   0.0000       2.172758        59.1238 
 414   0.0000       2.207916        60.0804 
 415   0.0000       2.215623        60.2902 
 416   0.0000       2.228552        60.6420 
 417   0.0000       2.236058        60.8462 
 418   0.0000       2.255467        61.3744 
 419   0.0000       2.260670        61.5159 
 420   0.0000       2.261503        61.5386 
 421   0.0000       2.274235        61.8851 
 422   0.0000       2.306888        62.7736 
 423   0.0000       2.310435        62.8701 
 424   0.0000       2.319799        63.1249 
 425   0.0000       2.325271        63.2738 
 426   0.0000       2.327031        63.3217 
 427   0.0000       2.328660        63.3660 
 428   0.0000       2.351444        63.9860 
 429   0.0000       2.355140        64.0866 
 430   0.0000       2.385739        64.9192 
 431   0.0000       2.388849        65.0039 
 432   0.0000       2.400546        65.3222 
 433   0.0000       2.410229        65.5857 
 434   0.0000       2.420864        65.8751 
 435   0.0000       2.426500        66.0284 
 436   0.0000       2.441288        66.4308 
 437   0.0000       2.455680        66.8224 
 438   0.0000       2.456586        66.8471 
 439   0.0000       2.460575        66.9556 
 440   0.0000       2.463044        67.0228 
 441   0.0000       2.480730        67.5041 
 442   0.0000       2.484881        67.6170 
 443   0.0000       2.487238        67.6812 
 444   0.0000       2.494308        67.8736 
 445   0.0000       2.507660        68.2369 
 446   0.0000       2.514725        68.4291 
 447   0.0000       2.519590        68.5615 
 448   0.0000       2.529198        68.8230 
 449   0.0000       2.538708        69.0818 
 450   0.0000       2.549516        69.3759 
 451   0.0000       2.556947        69.5781 
 452   0.0000       2.566583        69.8403 
 453   0.0000       2.576773        70.1175 
 454   0.0000       2.588820        70.4454 
 455   0.0000       2.610733        71.0417 
 456   0.0000       2.613345        71.1127 
 457   0.0000       2.620576        71.3095 
 458   0.0000       2.624838        71.4255 
 459   0.0000       2.629359        71.5485 
 460   0.0000       2.657842        72.3236 
 461   0.0000       2.715174        73.8836 
 462   0.0000       2.726999        74.2054 
 463   0.0000       2.772634        75.4472 
 464   0.0000       2.779115        75.6236 
 465   0.0000       2.809568        76.4522 
 466   0.0000       2.916331        79.3574 
 467   0.0000       3.035260        82.5936 
 468   0.0000       3.221646        87.6654 
 469   0.0000       3.404745        92.6478 
 470   0.0000       4.986248       135.6827 
 471   0.0000       4.989686       135.7762 
 472   0.0000       4.994806       135.9156 
 473   0.0000       5.009881       136.3258 
 474   0.0000       5.013181       136.4156 
 475   0.0000       5.014429       136.4495 
 476   0.0000       5.020047       136.6024 
 477   0.0000       5.033885       136.9790 
 478   0.0000       5.037923       137.0889 
 479   0.0000       5.046307       137.3170 
 480   0.0000       5.050591       137.4336 
 481   0.0000       5.075872       138.1215 
 482   0.0000       5.082821       138.3106 
 483   0.0000       5.162587       140.4811 
 484   0.0000       5.186270       141.1256 
 485   0.0000       5.218432       142.0007 
 486   0.0000       5.231757       142.3633 
 487   0.0000       5.236660       142.4968 
 488   0.0000       5.242734       142.6620 
 489   0.0000       5.261586       143.1750 
 490   0.0000       5.286162       143.8438 
 491   0.0000       5.301486       144.2608 
 492   0.0000       5.306054       144.3851 
 493   0.0000       5.311066       144.5214 
 494   0.0000       5.312984       144.5737 
 495   0.0000       5.351646       145.6257 
 496   0.0000       5.355416       145.7283 
 497   0.0000       5.372086       146.1819 
 498   0.0000       5.396146       146.8366 
 499   0.0000       5.441007       148.0573 
 500   0.0000       5.444225       148.1449 
 501   0.0000       5.470538       148.8609 
 502   0.0000       5.490011       149.3908 
 503   0.0000       5.542232       150.8118 
 504   0.0000       5.554352       151.1416 
 505   0.0000       5.585617       151.9924 
 506   0.0000       5.607125       152.5776 
 507   0.0000       5.628062       153.1474 
 508   0.0000       5.657257       153.9418 
 509   0.0000       5.677192       154.4843 
 510   0.0000       5.735241       156.0639 
 511   0.0000       5.751754       156.5132 
 512   0.0000       5.794688       157.6815 
 513   0.0000       5.847041       159.1061 
 514   0.0000       5.868165       159.6809 
 515   0.0000       5.901109       160.5773 
 516   0.0000       6.114675       166.3888 
 517   0.0000       6.287170       171.0826 
 518   0.0000      29.581420       804.9514 
 519   0.0000      29.707065       808.3703 
 520   0.0000      29.771706       810.1293 
 521   0.0000      29.816045       811.3358 
 522   0.0000      29.836321       811.8876 
 523   0.0000      29.838609       811.9498 
 524   0.0000      29.866298       812.7033 
 525   0.0000      29.948649       814.9442 
 526   0.0000      29.975428       815.6729 
 527   0.0000      29.985714       815.9528 
 528   0.0000      30.020230       816.8920 
 529   0.0000      30.040931       817.4553 
 530   0.0000      30.062409       818.0397 
 531   0.0000      30.109192       819.3128 
 532   0.0000      30.113498       819.4300 
 533   0.0000      30.137317       820.0781 
 534   0.0000      30.182286       821.3018 
 535   0.0000      30.231836       822.6501 
 536   0.0000      30.240280       822.8799 
 537   0.0000      30.271288       823.7236 
 538   0.0000      30.290140       824.2366 
 539   0.0000      30.436026       828.2064 
 540   0.0000      30.513761       830.3216 
 541   0.0000      36.613207       996.2960 
 542   0.0000      36.616532       996.3865 
 543   0.0000      36.627388       996.6819 
 544   0.0000      36.631397       996.7910 
 545   0.0000      36.637160       996.9478 
 546   0.0000      36.641034       997.0532 
 547   0.0000      36.658773       997.5359 
 548   0.0000      36.663062       997.6526 
 549   0.0000      36.670440       997.8534 
 550   0.0000      36.674341       997.9596 
 551   0.0000      36.691849       998.4360 
 552   0.0000      36.705304       998.8021 
 553   0.0000      36.775677      1000.7170 
 554   0.0000      36.813338      1001.7419 
 555   0.0000      36.823904      1002.0294 
 556   0.0000      36.854134      1002.8520 
 557   0.0000      36.865601      1003.1640 
 558   0.0000      36.879169      1003.5332 
 559   0.0000      36.884890      1003.6889 
 560   0.0000      36.921721      1004.6911 
 561   0.0000      36.933960      1005.0242 
 562   0.0000      36.938729      1005.1539 
 563   0.0000      36.996062      1006.7140 
 564   0.0000      37.022129      1007.4234 
 565   0.0000      37.029543      1007.6251 

                 SPIN DOWN ORBITALS
  NO   OCC          E(Eh)            E(eV) 
   0   1.0000     -10.253347      -279.0078 
   1   1.0000     -10.245337      -278.7898 
   2   1.0000     -10.229087      -278.3476 
   3   1.0000     -10.227648      -278.3085 
   4   1.0000     -10.222788      -278.1762 
   5   1.0000     -10.222656      -278.1726 
   6   1.0000     -10.222188      -278.1599 
   7   1.0000     -10.221962      -278.1537 
   8   1.0000     -10.221379      -278.1379 
   9   1.0000     -10.219555      -278.0882 
  10   1.0000     -10.219443      -278.0852 
  11   1.0000     -10.214086      -277.9394 
  12   1.0000     -10.210560      -277.8435 
  13   1.0000     -10.195129      -277.4236 
  14   1.0000     -10.192769      -277.3593 
  15   1.0000     -10.188648      -277.2472 
  16   1.0000     -10.187100      -277.2051 
  17   1.0000     -10.186068      -277.1770 
  18   1.0000     -10.183004      -277.0936 
  19   1.0000     -10.181395      -277.0498 
  20   1.0000     -10.173996      -276.8485 
  21   1.0000     -10.171673      -276.7853 
  22   1.0000     -10.165651      -276.6214 
  23   1.0000      -0.879906       -23.9435 
  24   1.0000      -0.876147       -23.8412 
  25   1.0000      -0.820391       -22.3240 
  26   1.0000      -0.807247       -21.9663 
  27   1.0000      -0.794349       -21.6153 
  28   1.0000      -0.783253       -21.3134 
  29   1.0000      -0.770253       -20.9596 
  30   1.0000      -0.766207       -20.8496 
  31   1.0000      -0.738689       -20.1008 
  32   1.0000      -0.731994       -19.9186 
  33   1.0000      -0.703232       -19.1359 
  34   1.0000      -0.667879       -18.1739 
  35   1.0000      -0.655588       -17.8395 
  36   1.0000      -0.633623       -17.2418 
  37   1.0000      -0.625601       -17.0235 
  38   1.0000      -0.625271       -17.0145 
  39   1.0000      -0.597092       -16.2477 
  40   1.0000      -0.583086       -15.8666 
  41   1.0000      -0.567951       -15.4547 
  42   1.0000      -0.556046       -15.1308 
  43   1.0000      -0.525383       -14.2964 
  44   1.0000      -0.517193       -14.0735 
  45   1.0000      -0.497881       -13.5480 
  46   1.0000      -0.478341       -13.0163 
  47   1.0000      -0.477153       -12.9840 
  48   1.0000      -0.472160       -12.8481 
  49   1.0000      -0.471216       -12.8225 
  50   1.0000      -0.452868       -12.3232 
  51   1.0000      -0.441177       -12.0050 
  52   1.0000      -0.440998       -12.0002 
  53   1.0000      -0.429574       -11.6893 
  54   1.0000      -0.426247       -11.5988 
  55   1.0000      -0.424764       -11.5584 
  56   1.0000      -0.420630       -11.4459 
  57   1.0000      -0.413568       -11.2537 
  58   1.0000      -0.406819       -11.0701 
  59   1.0000      -0.397824       -10.8253 
  60   1.0000      -0.383077       -10.4241 
  61   1.0000      -0.378360       -10.2957 
  62   1.0000      -0.373675       -10.1682 
  63   1.0000      -0.368249       -10.0206 
  64   1.0000      -0.367691       -10.0054 
  65   1.0000      -0.363400        -9.8886 
  66   1.0000      -0.362387        -9.8611 
  67   1.0000      -0.350841        -9.5469 
  68   1.0000      -0.335271        -9.1232 
  69   1.0000      -0.331465        -9.0196 
  70   1.0000      -0.331433        -9.0188 
  71   1.0000      -0.329212        -8.9583 
  72   1.0000      -0.328114        -8.9284 
  73   1.0000      -0.324392        -8.8271 
  74   1.0000      -0.321012        -8.7352 
  75   1.0000      -0.288799        -7.8586 
  76   1.0000      -0.287589        -7.8257 
  77   1.0000      -0.273912        -7.4535 
  78   1.0000      -0.257832        -7.0160 
  79   1.0000      -0.234233        -6.3738 
  80   1.0000      -0.226526        -6.1641 
  81   0.0000      -0.107361        -2.9214 
  82   0.0000      -0.042863        -1.1664 
  83   0.0000      -0.030403        -0.8273 
  84   0.0000      -0.013448        -0.3659 
  85   0.0000      -0.011509        -0.3132 
  86   0.0000       0.005999         0.1632 
  87   0.0000       0.017848         0.4857 
  88   0.0000       0.020729         0.5641 
  89   0.0000       0.025060         0.6819 
  90   0.0000       0.025934         0.7057 
  91   0.0000       0.028652         0.7797 
  92   0.0000       0.031431         0.8553 
  93   0.0000       0.036123         0.9829 
  94   0.0000       0.045407         1.2356 
  95   0.0000       0.047667         1.2971 
  96   0.0000       0.053345         1.4516 
  97   0.0000       0.060862         1.6562 
  98   0.0000       0.069758         1.8982 
  99   0.0000       0.078342         2.1318 
 100   0.0000       0.080502         2.1906 
 101   0.0000       0.083186         2.2636 
 102   0.0000       0.090213         2.4548 
 103   0.0000       0.102592         2.7917 
 104   0.0000       0.106103         2.8872 
 105   0.0000       0.114139         3.1059 
 106   0.0000       0.119425         3.2497 
 107   0.0000       0.131562         3.5800 
[...]
 -----------------------------------------------------------
 Solving for nuclear perturbation:
Forming RHS of the CP-SCF equations         ... 
Calc. nucleus orbit integrals (SHARK)       ... done

------------------------------------------------------------------------------
                           ORCA CP-SCF CALCULATION
------------------------------------------------------------------------------

Input orbitals are from        ... EPRII_i.gbw
Input Perturbation             ... EPRII_i.pin.tmp
Wavefunction output            ... EPRII_i.pout.tmp
Perturbation mode              ... Imaginary perturbation
Solver                         ... POPLE
Max. number of iterations      ... 64
Convergence tolerance          ... 1.000e-03
Integral handling              ... Direct
DFT GridXC                     ... 1
COSX GridX                     ... 1
COSX IntAccX                   ... 3.067
COSX Algorithm                 ... Auto
Number of perturbations        ... 3
Number of operators            ... 2
Orbital ranges used for CP-SCF:
 Operator 0:  Orbitals   0... 81  to  82...565
 Operator 1:  Orbitals   0... 80  to  81...565
Variables per perturbation     ... 78973
DFT calculation                         ... on
XC functional terms                     ... off
Hybrid DFT                              ... on
   Exchange mixing (SCF)                ...  0.200
   Exchange mixing (CP-SCF)             ...  0.200
   GGA exch. scaling(SCF)               ...  0.720
   GGA exch. scaling (CP-SCF)           ...  0.720
   GGA corr. scaling (SCF)              ...  0.810
   GGA corr. scaling (CP-SCF)           ...  0.810

CP-SCF GRID
-----------

General Integration Accuracy     IntAcc      ... 3.467
Radial Grid Type                 RadialGrid  ... OptM3 with GC (2021)
Angular Grid (max. ang.)         AngularGrid ... 1 (Lebedev-50)
Angular grid pruning method      GridPruning ... 4 (adaptive)
Weight generation scheme         WeightScheme... Becke
Basis function cutoff            BFCut       ... 1.0000e-10
Integration weight cutoff        WCut        ... 1.0000e-14
Angular grids for H and He will be reduced by one unit
Partially contracted basis set               ... off
Rotationally invariant grid construction     ... off

Total number of grid points                  ...    30940
Total number of batches                      ...      506
Average number of points per batch           ...       61
Average number of grid points per atom       ...      645

CP-SCF GRIDX
------------

General Integration Accuracy     IntAcc      ... 3.067
Radial Grid Type                 RadialGrid  ... OptM3 with GC (2021)
Angular Grid (max. ang.)         AngularGrid ... 1 (Lebedev-50)
Angular grid pruning method      GridPruning ... 4 (adaptive)
Weight generation scheme         WeightScheme... Becke
Basis function cutoff            BFCut       ... 1.0000e-10
Integration weight cutoff        WCut        ... 1.0000e-14
Angular grids for H and He will be reduced by one unit
Partially contracted basis set               ... on
Rotationally invariant grid construction     ... off

Total number of grid points                  ...    14529
Total number of batches                      ...      257
Average number of points per batch           ...       56
Average number of grid points per atom       ...      303

Memory available               ... 856.4 MB
Memory needed per perturbation ...  18.8 MB
Perturbations treated per batch... 3
Number of batches              ... 1
     CP-SCF ITERATION   0:   4.6180e-02 (   2.2 sec   0/  3 done)
     CP-SCF ITERATION   1:   2.3869e-03 (   2.1 sec   0/  3 done)
     CP-SCF ITERATION   2:   4.4380e-03 (   2.2 sec   2/  3 done)
     CP-SCF ITERATION   3:   2.8693e-03 (   1.4 sec   2/  3 done)
     CP-SCF ITERATION   4:   2.7402e-04 (   1.4 sec   3/  3 done)
                    *** THE CP-SCF HAS CONVERGED ***

Forming final perturbed densities           ... done
Transforming perturbed density to AO basis  ... done

 Raw HFC matrix (all values in MHz): 
 -----------------------------------
                 0.5683              -0.1799              -0.0002
                -0.1800               0.0661              -0.0003
                -0.0002              -0.0003               0.1804

 A(FC)           0.2707               0.2707               0.2707
 A(SD)          -0.2627              -0.0904               0.3530
 A(ORB+DIA)      0.0002               0.0001               0.0023    A(PC) =   0.0009
 A(ORB)          0.0001              -0.0000               0.0023    A(PC) =   0.0008
 A(DIA)          0.0001               0.0001               0.0000    A(PC) =   0.0001
             ----------           ----------           ----------
 A(Tot)          0.0083               0.1804               0.6261    A(iso)=    0.2716
 Orientation: 
  X           0.3058489           -0.0005162            0.9520799
  Y           0.9520779           -0.0019708           -0.3058494
  Z           0.0020343            0.9999979           -0.0001113

Notes:  (1) The A matrix conforms to the "SAI" spin Hamiltonian convention.
        (2) Tensor is right-handed.

 -----------------------------------------------------------
 Nucleus  46H : A:ISTP=    1 I=  0.5 P=533.5514 MHz/au**3
                Q:ISTP=    2 I=  1.0 Q=  0.0029 barn     
 -----------------------------------------------------------
 Solving for nuclear perturbation:
Forming RHS of the CP-SCF equations         ... 
Calc. nucleus orbit integrals (SHARK)       ... done

------------------------------------------------------------------------------
                           ORCA CP-SCF CALCULATION
------------------------------------------------------------------------------

Input orbitals are from        ... EPRII_i.gbw
Input Perturbation             ... EPRII_i.pin.tmp
Wavefunction output            ... EPRII_i.pout.tmp
Perturbation mode              ... Imaginary perturbation
Solver                         ... POPLE
Max. number of iterations      ... 64
Convergence tolerance          ... 1.000e-03
Integral handling              ... Direct
DFT GridXC                     ... 1
COSX GridX                     ... 1
COSX IntAccX                   ... 3.067
COSX Algorithm                 ... Auto
Number of perturbations        ... 3
Number of operators            ... 2
Orbital ranges used for CP-SCF:
 Operator 0:  Orbitals   0... 81  to  82...565
 Operator 1:  Orbitals   0... 80  to  81...565
Variables per perturbation     ... 78973
DFT calculation                         ... on
XC functional terms                     ... off
Hybrid DFT                              ... on
   Exchange mixing (SCF)                ...  0.200
   Exchange mixing (CP-SCF)             ...  0.200
   GGA exch. scaling(SCF)               ...  0.720
   GGA exch. scaling (CP-SCF)           ...  0.720
   GGA corr. scaling (SCF)              ...  0.810
   GGA corr. scaling (CP-SCF)           ...  0.810

CP-SCF GRID
-----------

General Integration Accuracy     IntAcc      ... 3.467
Radial Grid Type                 RadialGrid  ... OptM3 with GC (2021)
Angular Grid (max. ang.)         AngularGrid ... 1 (Lebedev-50)
Angular grid pruning method      GridPruning ... 4 (adaptive)
Weight generation scheme         WeightScheme... Becke
Basis function cutoff            BFCut       ... 1.0000e-10
Integration weight cutoff        WCut        ... 1.0000e-14
Angular grids for H and He will be reduced by one unit
Partially contracted basis set               ... off
Rotationally invariant grid construction     ... off

Total number of grid points                  ...    30940
Total number of batches                      ...      506
Average number of points per batch           ...       61
Average number of grid points per atom       ...      645

CP-SCF GRIDX
------------

General Integration Accuracy     IntAcc      ... 3.067
Radial Grid Type                 RadialGrid  ... OptM3 with GC (2021)
Angular Grid (max. ang.)         AngularGrid ... 1 (Lebedev-50)
Angular grid pruning method      GridPruning ... 4 (adaptive)
Weight generation scheme         WeightScheme... Becke
Basis function cutoff            BFCut       ... 1.0000e-10
Integration weight cutoff        WCut        ... 1.0000e-14
Angular grids for H and He will be reduced by one unit
Partially contracted basis set               ... on
Rotationally invariant grid construction     ... off

Total number of grid points                  ...    14529
Total number of batches                      ...      257
Average number of points per batch           ...       56
Average number of grid points per atom       ...      303

Memory available               ... 855.7 MB
Memory needed per perturbation ...  18.8 MB
Perturbations treated per batch... 3
Number of batches              ... 1
     CP-SCF ITERATION   0:   4.6259e-02 (   2.0 sec   0/  3 done)
     CP-SCF ITERATION   1:   2.6268e-03 (   2.5 sec   0/  3 done)
     CP-SCF ITERATION   2:   6.3823e-03 (   2.1 sec   2/  3 done)
     CP-SCF ITERATION   3:   2.6249e-03 (   1.5 sec   2/  3 done)
     CP-SCF ITERATION   4:   2.7285e-04 (   1.5 sec   3/  3 done)
                    *** THE CP-SCF HAS CONVERGED ***

Forming final perturbed densities           ... done
Transforming perturbed density to AO basis  ... done

 Raw HFC matrix (all values in MHz): 
 -----------------------------------
                 0.5815               0.1484               0.0004
                 0.1482               0.0515              -0.0004
                 0.0004              -0.0004               0.1842

 A(FC)           0.2714               0.2714               0.2714
 A(SD)          -0.2589              -0.0873               0.3462
 A(ORB+DIA)      0.0003               0.0001               0.0026    A(PC) =   0.0010
 A(ORB)          0.0002              -0.0000               0.0026    A(PC) =   0.0009
 A(DIA)          0.0001               0.0001               0.0000    A(PC) =   0.0001
             ----------           ----------           ----------
 A(Tot)          0.0128               0.1842               0.6202    A(iso)=    0.2724
 Orientation: 
  X          -0.2524494            0.0002038            0.9676101
  Y           0.9676051           -0.0031518            0.2524487
  Z           0.0031012            0.9999950            0.0005984

Notes:  (1) The A matrix conforms to the "SAI" spin Hamiltonian convention.
        (2) Tensor is right-handed.

 -----------------------------------------------------------
 Nucleus  47H : A:ISTP=    1 I=  0.5 P=533.5514 MHz/au**3
                Q:ISTP=    2 I=  1.0 Q=  0.0029 barn     
 -----------------------------------------------------------
 Solving for nuclear perturbation:
Forming RHS of the CP-SCF equations         ... 
Calc. nucleus orbit integrals (SHARK)       ... done

------------------------------------------------------------------------------
                           ORCA CP-SCF CALCULATION
------------------------------------------------------------------------------

Input orbitals are from        ... EPRII_i.gbw
Input Perturbation             ... EPRII_i.pin.tmp
Wavefunction output            ... EPRII_i.pout.tmp
Perturbation mode              ... Imaginary perturbation
Solver                         ... POPLE
Max. number of iterations      ... 64
Convergence tolerance          ... 1.000e-03
Integral handling              ... Direct
DFT GridXC                     ... 1
COSX GridX                     ... 1
COSX IntAccX                   ... 3.067
COSX Algorithm                 ... Auto
Number of perturbations        ... 3
Number of operators            ... 2
Orbital ranges used for CP-SCF:
 Operator 0:  Orbitals   0... 81  to  82...565
 Operator 1:  Orbitals   0... 80  to  81...565
Variables per perturbation     ... 78973
DFT calculation                         ... on
XC functional terms                     ... off
Hybrid DFT                              ... on
   Exchange mixing (SCF)                ...  0.200
   Exchange mixing (CP-SCF)             ...  0.200
   GGA exch. scaling(SCF)               ...  0.720
   GGA exch. scaling (CP-SCF)           ...  0.720
   GGA corr. scaling (SCF)              ...  0.810
   GGA corr. scaling (CP-SCF)           ...  0.810

CP-SCF GRID
-----------

General Integration Accuracy     IntAcc      ... 3.467
Radial Grid Type                 RadialGrid  ... OptM3 with GC (2021)
Angular Grid (max. ang.)         AngularGrid ... 1 (Lebedev-50)
Angular grid pruning method      GridPruning ... 4 (adaptive)
Weight generation scheme         WeightScheme... Becke
Basis function cutoff            BFCut       ... 1.0000e-10
Integration weight cutoff        WCut        ... 1.0000e-14
Angular grids for H and He will be reduced by one unit
Partially contracted basis set               ... off
Rotationally invariant grid construction     ... off

Total number of grid points                  ...    30940
Total number of batches                      ...      506
Average number of points per batch           ...       61
Average number of grid points per atom       ...      645

CP-SCF GRIDX
------------

General Integration Accuracy     IntAcc      ... 3.067
Radial Grid Type                 RadialGrid  ... OptM3 with GC (2021)
Angular Grid (max. ang.)         AngularGrid ... 1 (Lebedev-50)
Angular grid pruning method      GridPruning ... 4 (adaptive)
Weight generation scheme         WeightScheme... Becke
Basis function cutoff            BFCut       ... 1.0000e-10
Integration weight cutoff        WCut        ... 1.0000e-14
Angular grids for H and He will be reduced by one unit
Partially contracted basis set               ... on
Rotationally invariant grid construction     ... off

Total number of grid points                  ...    14529
Total number of batches                      ...      257
Average number of points per batch           ...       56
Average number of grid points per atom       ...      303

Memory available               ... 855.0 MB
Memory needed per perturbation ...  18.8 MB
Perturbations treated per batch... 3
Number of batches              ... 1
     CP-SCF ITERATION   0:   4.2145e-02 (   2.1 sec   0/  3 done)
     CP-SCF ITERATION   1:   1.7502e-03 (   2.2 sec   0/  3 done)
     CP-SCF ITERATION   2:   1.3198e-03 (   2.1 sec   2/  3 done)
     CP-SCF ITERATION   3:   1.3624e-03 (   1.6 sec   2/  3 done)
     CP-SCF ITERATION   4:   1.0168e-04 (   1.4 sec   3/  3 done)
                    *** THE CP-SCF HAS CONVERGED ***

Forming final perturbed densities           ... done
Transforming perturbed density to AO basis  ... done

 Raw HFC matrix (all values in MHz): 
 -----------------------------------
                -0.0493              -0.0713              -0.0001
                -0.0715              -0.1616              -0.0000
                -0.0001              -0.0000              -0.1472

 A(FC)          -0.1198              -0.1198              -0.1198
 A(SD)           0.1042              -0.0275              -0.0768
 A(ORB+DIA)      0.0009               0.0001               0.0003    A(PC) =   0.0004
 A(ORB)          0.0009              -0.0000               0.0002    A(PC) =   0.0004
 A(DIA)          0.0000               0.0001               0.0001    A(PC) =   0.0000
             ----------           ----------           ----------
 A(Tot)         -0.0146              -0.1472              -0.1963    A(iso)=   -0.1194
 Orientation: 
  X           0.8996156            0.0001436            0.4366827
  Y          -0.4366825            0.0012478            0.8996148
  Z          -0.0004157           -0.9999992            0.0011853

Notes:  (1) The A matrix conforms to the "SAI" spin Hamiltonian convention.
        (2) Tensor is right-handed.


--------------------------------------------------------------------------------
----------------------------------------------------------------------------
                           ORCA EULER ANGLE PROGRAM
----------------------------------------------------------------------------

Only g-tensor available        -->  using g-tensor as reference tensor

Reference tensor               ...  g

g-tensor ordering              ...  |g_min> --> |gx>
                                    |g_mid> --> |gy>
                                    |g_max> --> |gz>

A- and EFG-tensor ordering     ...  the axes |Ax>, |Qx>, |Ay>, etc. are assigned
                                    such that the Euler rotation is minimal. You
                                    can find the respective eigenvalues as Ax,
                                    EFGx, Ay, etc. in the tables below.
                                    The relation of |Ax>, |Ay>,  etc. to Amin, Amid, etc.
                                    (as printed in the ORCA EPR/NMR CALCULATION Output)
                                    is obtained in the detailed printout.

Euler rotation around          ...  z - y - z
   First rotation              -->  by alpha around z
   Second rotation             -->  by beta around y'
   Third rotation              -->  by gamma around z''
   Positive / Negative angle   -->  clockwise / counterclockwise rotation

Plot EFG-tensors                    (-)
Plot HFC-tensors                    (-)
Detailed Printout                   (-)

-------------------------------------------------------------------------
          Euler rotation of hyperfine tensor to g-tensor
-------------------------------------------------------------------------

-------------------------------------------------------------------
 Atom  |   Alpha    Beta    Gamma   |   Ax       Ay       Az 
       |          [degrees]         |           [MHz]         
-------------------------------------------------------------------
  8H     -179.9     21.6   -179.8       4.40     4.32     7.43
  9H      179.7     25.1   -179.4       8.51    -7.68    -3.95
 11H       58.0     40.3    -43.1       7.87    -2.86    -4.23
 12H      -58.3     40.6     43.9       7.85    -2.93    -4.31
 14H       14.3     40.5     -2.4       1.96    -0.35    -0.33
 15H      -14.0     40.4      2.2       1.95    -0.36    -0.35
 17H       60.0     19.8    -72.2       1.20    -0.64    -0.60
 18H      -60.0     19.9     72.6       1.20    -0.64    -0.60
 20H       29.2     30.3    -41.3       0.48    -0.24    -0.24
 21H      -28.7     30.2     41.0       0.48    -0.24    -0.24
 23H       -1.5     34.0     24.3      -0.33    -0.14     1.47
 24H        1.3     34.0    -23.8      -0.32    -0.13     1.47
 26H     -167.4     29.2    152.3       1.50    -0.89    -0.78
 27H      167.4     29.2   -152.0       1.50    -0.89    -0.78
 29H     -145.3     48.7    143.9       0.49    -0.22    -0.23
 30H      145.7     48.4   -144.0       0.49    -0.22    -0.23
 32H      119.0     39.8   -105.1       0.47    -0.23    -0.23
 33H     -119.0     39.8    105.5       0.47    -0.23    -0.23
 35H       -0.2     14.9      0.4       0.39    -0.22    -0.22
 36H     -174.3     24.5    173.9       0.28    -0.15    -0.15
 43H       -0.2      2.4      0.3       0.42     0.26     0.21
 44H       -0.0     28.6      0.1      -0.20    -0.15    -0.02
 45H     -179.9     12.6   -180.0       0.01     0.18     0.63
 46H        0.1     19.9      0.2       0.01     0.18     0.62
 47H     -180.0     20.6   -179.9      -0.20    -0.15    -0.01
-------------------------------------------------------------------


Maximum memory used throughout the entire EPRNMR-calculation: 267.3 MB

Timings for individual modules:

Sum of individual times         ...     5084.579 sec (=  84.743 min)
GTO integral calculation        ...        5.559 sec (=   0.093 min)   0.1 %
Spin-Orbit-Coupling Matrices    ...       13.709 sec (=   0.228 min)   0.3 %
SCF iterations                  ...       78.746 sec (=   1.312 min)   1.5 %
EPR/NMR calculation             ...     4986.566 sec (=  83.109 min)  98.1 %
                             ****ORCA TERMINATED NORMALLY****
TOTAL RUN TIME: 0 days 1 hours 24 minutes 49 seconds 121 msec
