
                                 *****************
                                 * O   R   C   A *
                                 *****************

                                            #,                                       
                                            ###                                      
                                            ####                                     
                                            #####                                    
                                            ######                                   
                                           ########,                                 
                                     ,,################,,,,,                         
                               ,,#################################,,                 
                          ,,##########################################,,             
                       ,#########################################, ''#####,          
                    ,#############################################,,   '####,        
                  ,##################################################,,,,####,       
                ,###########''''           ''''###############################       
              ,#####''   ,,,,##########,,,,          '''####'''          '####       
            ,##' ,,,,###########################,,,                        '##       
           ' ,,###''''                  '''############,,,                           
         ,,##''                                '''############,,,,        ,,,,,,###''
      ,#''                                            '''#######################'''  
     '                                                          ''''####''''         
             ,#######,   #######,   ,#######,      ##                                
            ,#'     '#,  ##    ##  ,#'     '#,    #''#        ######   ,####,        
            ##       ##  ##   ,#'  ##            #'  '#       #        #'  '#        
            ##       ##  #######   ##           ,######,      #####,   #    #        
            '#,     ,#'  ##    ##  '#,     ,#' ,#      #,         ##   #,  ,#        
             '#######'   ##     ##  '#######'  #'      '#     #####' # '####'        



                  #######################################################
                  #                        -***-                        #
                  #          Department of theory and spectroscopy      #
                  #    Directorship and core code : Frank Neese         #
                  #        Max Planck Institute fuer Kohlenforschung    #
                  #                Kaiser Wilhelm Platz 1               #
                  #                 D-45470 Muelheim/Ruhr               #
                  #                      Germany                        #
                  #                                                     #
                  #                  All rights reserved                #
                  #                        -***-                        #
                  #######################################################


                         Program Version 5.0.4 -  RELEASE  -


 With contributions from (in alphabetic order):
   Daniel Aravena         : Magnetic Suceptibility
   Michael Atanasov       : Ab Initio Ligand Field Theory (pilot matlab implementation)
   Alexander A. Auer      : GIAO ZORA, VPT2 properties, NMR spectrum
   Ute Becker             : Parallelization
   Giovanni Bistoni       : ED, misc. LED, open-shell LED, HFLD
   Martin Brehm           : Molecular dynamics
   Dmytro Bykov           : SCF Hessian
   Vijay G. Chilkuri      : MRCI spin determinant printing, contributions to CSF-ICE
   Dipayan Datta          : RHF DLPNO-CCSD density
   Achintya Kumar Dutta   : EOM-CC, STEOM-CC
   Dmitry Ganyushin       : Spin-Orbit,Spin-Spin,Magnetic field MRCI
   Miquel Garcia          : C-PCM and meta-GGA Hessian, CC/C-PCM, Gaussian charge scheme
   Yang Guo               : DLPNO-NEVPT2, F12-NEVPT2, CIM, IAO-localization
   Andreas Hansen         : Spin unrestricted coupled pair/coupled cluster methods
   Benjamin Helmich-Paris : MC-RPA, TRAH-SCF, COSX integrals
   Lee Huntington         : MR-EOM, pCC
   Robert Izsak           : Overlap fitted RIJCOSX, COSX-SCS-MP3, EOM
   Marcus Kettner         : VPT2
   Christian Kollmar      : KDIIS, OOCD, Brueckner-CCSD(T), CCSD density, CASPT2, CASPT2-K
   Simone Kossmann        : Meta GGA functionals, TD-DFT gradient, OOMP2, MP2 Hessian
   Martin Krupicka        : Initial AUTO-CI
   Lucas Lang             : DCDCAS
   Marvin Lechner         : AUTO-CI (C++ implementation), FIC-MRCC
   Dagmar Lenk            : GEPOL surface, SMD
   Dimitrios Liakos       : Extrapolation schemes; Compound Job, initial MDCI parallelization
   Dimitrios Manganas     : Further ROCIS development; embedding schemes
   Dimitrios Pantazis     : SARC Basis sets
   Anastasios Papadopoulos: AUTO-CI, single reference methods and gradients
   Taras Petrenko         : DFT Hessian,TD-DFT gradient, ASA, ECA, R-Raman, ABS, FL, XAS/XES, NRVS
   Peter Pinski           : DLPNO-MP2, DLPNO-MP2 Gradient
   Christoph Reimann      : Effective Core Potentials
   Marius Retegan         : Local ZFS, SOC
   Christoph Riplinger    : Optimizer, TS searches, QM/MM, DLPNO-CCSD(T), (RO)-DLPNO pert. Triples
   Tobias Risthaus        : Range-separated hybrids, TD-DFT gradient, RPA, STAB
   Michael Roemelt        : Original ROCIS implementation
   Masaaki Saitow         : Open-shell DLPNO-CCSD energy and density
   Barbara Sandhoefer     : DKH picture change effects
   Avijit Sen             : IP-ROCIS
   Kantharuban Sivalingam : CASSCF convergence, NEVPT2, FIC-MRCI
   Bernardo de Souza      : ESD, SOC TD-DFT
   Georgi Stoychev        : AutoAux, RI-MP2 NMR, DLPNO-MP2 response
   Willem Van den Heuvel  : Paramagnetic NMR
   Boris Wezisla          : Elementary symmetry handling
   Frank Wennmohs         : Technical directorship


 We gratefully acknowledge several colleagues who have allowed us to
 interface, adapt or use parts of their codes:
   Stefan Grimme, W. Hujo, H. Kruse, P. Pracht,  : VdW corrections, initial TS optimization,
                  C. Bannwarth, S. Ehlert          DFT functionals, gCP, sTDA/sTD-DF
   Ed Valeev, F. Pavosevic, A. Kumar             : LibInt (2-el integral package), F12 methods
   Garnet Chan, S. Sharma, J. Yang, R. Olivares  : DMRG
   Ulf Ekstrom                                   : XCFun DFT Library
   Mihaly Kallay                                 : mrcc  (arbitrary order and MRCC methods)
   Jiri Pittner, Ondrej Demel                    : Mk-CCSD
   Frank Weinhold                                : gennbo (NPA and NBO analysis)
   Christopher J. Cramer and Donald G. Truhlar   : smd solvation model
   Lars Goerigk                                  : TD-DFT with DH, B97 family of functionals
   V. Asgeirsson, H. Jonsson                     : NEB implementation
   FAccTs GmbH                                   : IRC, NEB, NEB-TS, DLPNO-Multilevel, CI-OPT
                                                   MM, QMMM, 2- and 3-layer-ONIOM, Crystal-QMMM,
                                                   LR-CPCM, SF, NACMEs, symmetry and pop. for TD-DFT,
                                                   nearIR, NL-DFT gradient (VV10), updates on ESD,
                                                   ML-optimized integration grids
   S Lehtola, MJT Oliveira, MAL Marques          : LibXC Library
   Liviu Ungur et al                             : ANISO software


 Your calculation uses the libint2 library for the computation of 2-el integrals
 For citations please refer to: http://libint.valeyev.net

 Your ORCA version has been built with support for libXC version: 5.1.0
 For citations please refer to: https://tddft.org/programs/libxc/

 This ORCA versions uses:
   CBLAS   interface :  Fast vector & matrix operations
   LAPACKE interface :  Fast linear algebra routines
   SCALAPACK package :  Parallel linear algebra routines
   Shared memory     :  Shared parallel matrices
   BLAS/LAPACK       :  OpenBLAS 0.3.15  USE64BITINT DYNAMIC_ARCH NO_AFFINITY SkylakeX SINGLE_THREADED
        Core in use  :  SkylakeX
   Copyright (c) 2011-2014, The OpenBLAS Project




***************************************
The coordinates will be read from file: model.xyz
***************************************


================================================================================

----- Orbital basis set information -----
Your calculation utilizes the basis: cc-pVDZ 
       H, B-Ne : Obtained from the ccRepo (grant-hill.group.shef.ac.uk/ccrepo) Feb. 2017
                 T. H. Dunning, Jr., J. Chem. Phys. 90, 1007 (1989)
            He : Obtained from the ccRepo (grant-hill.group.shef.ac.uk/ccrepo) Feb. 2017
                 D. E. Woon, T. H. Dunning, Jr., J. Chem. Phys. 100, 2975 (1994)
  Li-Be, Na-Mg : Obtained from the ccRepo (grant-hill.group.shef.ac.uk/ccrepo) Feb. 2017
                 B. P. Prascher, D. E. Woon, K. A. Peterson, T. H. Dunning, Jr., A. K. Wilson, Theor. Chem. Acc. 128, 69 (2011)
         Al-Ar : Obtained from the ccRepo (grant-hill.group.shef.ac.uk/ccrepo) Feb. 2017
                 D. E. Woon, T. H. Dunning, Jr., J. Chem. Phys. 98, 1358 (1993)
            Ca : Obtained from the Peterson Research Group Website (tyr0.chem.wsu.edu/~kipeters) Feb. 2017
                 J. Koput, K. A. Peterson, J. Phys. Chem. 106, 9595 (2002)
         Sc-Zn : Obtained from the ccRepo (grant-hill.group.shef.ac.uk/ccrepo) Feb. 2017
                 N. B. Balabanov, K. A. Peterson, J. Chem. Phys. 123, 064107 (2005)
                 N. B. Balabanov, K. A. Peterson, J. Chem. Phys. 125, 074110 (2006)
         Ga-Kr : Obtained from the ccRepo (grant-hill.group.shef.ac.uk/ccrepo) Feb. 2017
                 A. K. Wilson, D. E. Woon, K. A. Peterson, T. H. Dunning, Jr., J. Chem. Phys. 110, 7667 (1999)

----- AuxJ basis set information -----
Your calculation utilizes the auxiliary basis: def2/J
   F. Weigend, Phys. Chem. Chem. Phys. 8, 1057 (2006).

================================================================================
                                        WARNINGS
                       Please study these warnings very carefully!
================================================================================

WARNING: Old DensityContainer found on disk!
         Will remove this file - 
         If you want to keep old densities, please start your calculation with a different basename. 


WARNING: your system is open-shell and RHF/RKS was chosen
  ===> : WILL SWITCH to UHF/UKS


WARNING: Geometry Optimization
  ===> : Switching off AutoStart
         For restart on a previous wavefunction, please use MOREAD

INFO   : the flag for use of the SHARK integral package has been found!

================================================================================
                                       INPUT FILE
================================================================================
NAME = opt.inp
|  1> ! B3LYP cc-pVDZ OPT
|  2> %pal nprocs 16 end
|  3> *XYZFile 0 4 model.xyz
|  4> 
|  5>                          ****END OF INPUT****
================================================================================

                       *****************************
                       * Geometry Optimization Run *
                       *****************************

Geometry optimization settings:
Update method            Update   .... BFGS
Choice of coordinates    CoordSys .... Z-matrix Internals
Initial Hessian          InHess   .... Almoef's Model

Convergence Tolerances:
Energy Change            TolE     ....  5.0000e-06 Eh
Max. Gradient            TolMAXG  ....  3.0000e-04 Eh/bohr
RMS Gradient             TolRMSG  ....  1.0000e-04 Eh/bohr
Max. Displacement        TolMAXD  ....  4.0000e-03 bohr
RMS Displacement         TolRMSD  ....  2.0000e-03 bohr
Strict Convergence                ....  False
------------------------------------------------------------------------------
                        ORCA OPTIMIZATION COORDINATE SETUP
------------------------------------------------------------------------------

The optimization will be done in new redundant internal coordinates
Making redundant internal coordinates   ...  (new redundants) done
Evaluating the initial hessian          ...  (Almloef) done
Evaluating the coordinates              ...  done
Calculating the B-matrix                .... done
Calculating the G-matrix                .... done
Diagonalizing the G-matrix              .... done
Small eigenvalue found = 7.053e-04
Small eigenvalue found = 1.992e-03
Small eigenvalue found = 7.329e-03
Small eigenvalue found = 9.505e-03
Small eigenvalue found = 1.951e-02
Small eigenvalue found = 2.289e-02
Small eigenvalue found = 2.379e-02
Small eigenvalue found = 2.892e-02
Small eigenvalue found = 2.982e-02
The first mode is                       ....  117
The number of degrees of freedom        ....  138

    -----------------------------------------------------------------
                    Redundant Internal Coordinates


    -----------------------------------------------------------------
         Definition                    Initial Value    Approx d2E/dq
    -----------------------------------------------------------------
      1. B(C   2,C   0)                  1.4120         0.576291   
      2. B(C   3,C   2)                  1.4393         0.521362   
      3. B(C   4,C   3)                  1.3869         0.631970   
      4. B(C   5,C   4)                  1.4186         0.562501   
      5. B(C   5,C   1)                  1.4204         0.558754   
      6. B(C   6,C   5)                  1.4286         0.542122   
      7. B(C   7,C   2)                  1.4295         0.540369   
      8. B(C   7,C   6)                  1.3870         0.631759   
      9. B(H   8,C   4)                  1.0905         0.359441   
     10. B(H   9,C   7)                  1.0892         0.361204   
     11. B(C  10,C   3)                  1.5132         0.397311   
     12. B(H  11,C  10)                  1.1070         0.338315   
     13. B(H  12,C  10)                  1.1070         0.338311   
     14. B(C  13,C  10)                  1.5308         0.372532   
     15. B(H  14,C  13)                  1.1060         0.339497   
     16. B(H  15,C  13)                  1.1060         0.339501   
     17. B(C  16,C  13)                  1.5331         0.369382   
     18. B(H  17,C  16)                  1.1063         0.339210   
     19. B(H  18,C  16)                  1.1063         0.339214   
     20. B(C  19,C  16)                  1.5303         0.373182   
     21. B(H  20,C  19)                  1.1040         0.342084   
     22. B(H  21,C  19)                  1.1040         0.342078   
     23. B(C  22,C   6)                  1.5172         0.391596   
     24. B(H  23,C  22)                  1.1061         0.339445   
     25. B(H  24,C  22)                  1.1061         0.339443   
     26. B(C  25,C  22)                  1.5305         0.372901   
     27. B(H  26,C  25)                  1.1061         0.339473   
     28. B(H  27,C  25)                  1.1061         0.339470   
     29. B(C  28,C  25)                  1.5331         0.369332   
     30. B(H  29,C  28)                  1.1063         0.339148   
     31. B(H  30,C  28)                  1.1063         0.339147   
     32. B(C  31,C  28)                  1.5303         0.373166   
     33. B(H  32,C  31)                  1.1040         0.342096   
     34. B(H  33,C  31)                  1.1040         0.342101   
     35. B(C  34,C   1)                  1.2246         1.147233   
     36. B(H  35,C  19)                  1.1019         0.344640   
     37. B(H  36,C  31)                  1.1020         0.344611   
     38. B(C  37,C  34)                  1.4261         0.547172   
     39. B(C  38,C  37)                  1.4129         0.574471   
     40. B(C  39,C  38)                  1.3941         0.615370   
     41. B(C  40,C  39)                  1.3997         0.602905   
     42. B(C  41,C  40)                  1.3998         0.602789   
     43. B(C  42,C  41)                  1.3941         0.615503   
     44. B(C  42,C  37)                  1.4130         0.574218   
     45. B(H  43,C  40)                  1.0928         0.356404   
     46. B(H  44,C  41)                  1.0927         0.356542   
     47. B(H  45,C  38)                  1.0916         0.357969   
     48. B(H  46,C  42)                  1.0917         0.357795   
     49. B(H  47,C  39)                  1.0928         0.356444   
     50. L(C   5,C   1,C  34,C   4, 1) 179.4961         0.476409   
     51. L(C   5,C   1,C  34,C   4, 2) 179.8364         0.476409   
     52. A(C   3,C   2,C   7)          119.9287         0.410630   
     53. A(C   0,C   2,C   7)          119.7263         0.418006   
     54. A(C   0,C   2,C   3)          120.3451         0.415350   
     55. A(C   2,C   3,C  10)          119.2805         0.389004   
     56. A(C   2,C   3,C   4)          117.2081         0.422234   
     57. A(C   4,C   3,C  10)          123.5114         0.402357   
     58. A(C   3,C   4,C   5)          122.8832         0.428012   
     59. A(C   3,C   4,H   8)          119.6433         0.353944   
     60. A(C   5,C   4,H   8)          117.4736         0.347052   
     61. A(C   4,C   5,C   6)          119.9368         0.416447   
     62. A(C   1,C   5,C   4)          119.1196         0.418694   
     63. A(C   1,C   5,C   6)          120.9435         0.415952   
     64. A(C   5,C   6,C   7)          117.9475         0.425167   
     65. A(C   5,C   6,C  22)          119.4367         0.390676   
     66. A(C   7,C   6,C  22)          122.6158         0.401308   
     67. A(C   6,C   7,H   9)          120.4184         0.354217   
     68. A(C   2,C   7,H   9)          117.4858         0.345001   
     69. A(C   2,C   7,C   6)          122.0958         0.424920   
     70. A(H  12,C  10,C  13)          109.2509         0.320871   
     71. A(C   3,C  10,C  13)          116.9406         0.367028   
     72. A(C   3,C  10,H  12)          108.0015         0.324275   
     73. A(H  11,C  10,C  13)          109.2533         0.320872   
     74. A(C   3,C  10,H  11)          108.0042         0.324276   
     75. A(H  11,C  10,H  12)          104.6926         0.285217   
     76. A(H  15,C  13,C  16)          109.0562         0.320610   
     77. A(H  14,C  13,C  16)          109.0608         0.320609   
     78. A(C  10,C  13,C  16)          112.7038         0.362479   
     79. A(H  14,C  13,H  15)          106.2622         0.285528   
     80. A(C  10,C  13,H  15)          109.7733         0.321055   
     81. A(C  10,C  13,H  14)          109.7750         0.321055   
     82. A(H  17,C  16,H  18)          105.8812         0.285453   
     83. A(C  13,C  16,H  18)          109.2269         0.320565   
     84. A(C  13,C  16,H  17)          109.2270         0.320565   
     85. A(H  18,C  16,C  19)          109.5532         0.321103   
     86. A(H  17,C  16,C  19)          109.5530         0.321102   
     87. A(C  13,C  16,C  19)          113.1415         0.362586   
     88. A(C  16,C  19,H  35)          111.4888         0.321938   
     89. A(H  20,C  19,H  21)          107.3598         0.286203   
     90. A(C  16,C  19,H  21)          111.3056         0.321545   
     91. A(C  16,C  19,H  20)          111.3060         0.321546   
     92. A(H  21,C  19,H  35)          107.5856         0.286536   
     93. A(H  20,C  19,H  35)          107.5868         0.286537   
     94. A(H  24,C  22,C  25)          109.2369         0.321098   
     95. A(H  23,C  22,C  25)          109.2409         0.321099   
     96. A(C   6,C  22,C  25)          116.9398         0.366179   
     97. A(H  23,C  22,H  24)          104.5995         0.285514   
     98. A(C   6,C  22,H  24)          108.0564         0.323682   
     99. A(C   6,C  22,H  23)          108.0590         0.323683   
    100. A(H  27,C  25,C  28)          109.0300         0.320598   
    101. A(H  26,C  25,C  28)          109.0242         0.320598   
    102. A(C  22,C  25,C  28)          112.6492         0.362531   
    103. A(H  26,C  25,H  27)          106.2359         0.285521   
    104. A(C  22,C  25,H  27)          109.8475         0.321103   
    105. A(C  22,C  25,H  26)          109.8449         0.321103   
    106. A(H  30,C  28,C  31)          109.5479         0.321090   
    107. A(H  29,C  28,C  31)          109.5478         0.321090   
    108. A(C  25,C  28,C  31)          113.1602         0.362575   
    109. A(H  29,C  28,H  30)          105.8872         0.285436   
    110. A(C  25,C  28,H  30)          109.2195         0.320548   
    111. A(C  25,C  28,H  29)          109.2194         0.320548   
    112. A(H  32,C  31,H  33)          107.3538         0.286208   
    113. A(C  28,C  31,H  33)          111.3017         0.321546   
    114. A(C  28,C  31,H  32)          111.3013         0.321545   
    115. A(H  33,C  31,H  36)          107.5865         0.286535   
    116. A(H  32,C  31,H  36)          107.5854         0.286534   
    117. A(C  28,C  31,H  36)          111.5033         0.321931   
    118. L(C   1,C  34,C  37,C  42, 2) 179.8569         0.474576   
    119. L(C   1,C  34,C  37,C  42, 1) 179.9665         0.474576   
    120. A(C  38,C  37,C  42)          118.7028         0.422322   
    121. A(C  34,C  37,C  42)          120.6370         0.418670   
    122. A(C  34,C  37,C  38)          120.6602         0.418702   
    123. A(C  39,C  38,H  45)          120.4821         0.352108   
    124. A(C  37,C  38,H  45)          119.1005         0.348044   
    125. A(C  37,C  38,C  39)          120.4174         0.427585   
    126. A(C  40,C  39,H  47)          120.0101         0.350639   
    127. A(C  38,C  39,H  47)          119.6005         0.351854   
    128. A(C  38,C  39,C  40)          120.3894         0.431308   
    129. A(C  41,C  40,H  43)          120.1739         0.350621   
    130. A(C  39,C  40,H  43)          120.1409         0.350633   
    131. A(C  39,C  40,C  41)          119.6852         0.429711   
    132. A(C  42,C  41,H  44)          119.5965         0.351883   
    133. A(C  40,C  41,H  44)          120.0449         0.350644   
    134. A(C  40,C  41,C  42)          120.3586         0.431310   
    135. A(C  41,C  42,H  46)          120.4628         0.352092   
    136. A(C  37,C  42,H  46)          119.0905         0.347990   
    137. A(C  37,C  42,C  41)          120.4467         0.427568   
    138. D(C  10,C   3,C   2,C   7)    179.9939         0.018539   
    139. D(C   4,C   3,C   2,C   7)     -0.0030         0.018539   
    140. D(C   4,C   3,C   2,C   0)    179.9982         0.018539   
    141. D(C  10,C   3,C   2,C   0)     -0.0050         0.018539   
    142. D(C   5,C   4,C   3,C  10)   -179.9951         0.027703   
    143. D(H   8,C   4,C   3,C  10)      0.0039         0.027703   
    144. D(H   8,C   4,C   3,C   2)   -179.9994         0.027703   
    145. D(C   5,C   4,C   3,C   2)      0.0016         0.027703   
    146. D(C   1,C   5,C   4,H   8)      0.0016         0.021681   
    147. D(C   6,C   5,C   4,H   8)   -179.9960         0.021681   
    148. D(C   6,C   5,C   4,C   3)      0.0030         0.021681   
    149. D(C   1,C   5,C   4,C   3)   -179.9994         0.021681   
    150. D(C   7,C   6,C   5,C   4)     -0.0063         0.020086   
    151. D(C  22,C   6,C   5,C   1)      0.0055         0.020086   
    152. D(C   7,C   6,C   5,C   1)    179.9962         0.020086   
    153. D(C  22,C   6,C   5,C   4)   -179.9970         0.020086   
    154. D(H   9,C   7,C   6,C  22)     -0.0048         0.027683   
    155. D(C   2,C   7,C   6,C  22)    179.9954         0.027683   
    156. D(C   2,C   7,C   6,C   5)      0.0050         0.027683   
    157. D(H   9,C   7,C   6,C   5)   -179.9953         0.027683   
    158. D(C   6,C   7,C   2,C   3)     -0.0004         0.019953   
    159. D(C   6,C   7,C   2,C   0)    179.9985         0.019953   
    160. D(H   9,C   7,C   2,C   3)    179.9999         0.019953   
    161. D(H   9,C   7,C   2,C   0)     -0.0013         0.019953   
    162. D(C  13,C  10,C   3,C   4)      0.0133         0.011722   
    163. D(C  13,C  10,C   3,C   2)   -179.9834         0.011722   
    164. D(H  12,C  10,C   3,C   4)    123.6567         0.011722   
    165. D(H  11,C  10,C   3,C   4)   -123.6357         0.011722   
    166. D(H  12,C  10,C   3,C   2)    -56.3399         0.011722   
    167. D(H  11,C  10,C   3,C   2)     56.3676         0.011722   
    168. D(H  14,C  13,C  10,C   3)    -58.2299         0.011085   
    169. D(C  16,C  13,C  10,H  11)    -56.9978         0.011085   
    170. D(C  16,C  13,C  10,C   3)    179.9935         0.011085   
    171. D(H  15,C  13,C  10,H  12)    -64.7789         0.011085   
    172. D(H  15,C  13,C  10,H  11)   -178.7673         0.011085   
    173. D(H  15,C  13,C  10,C   3)     58.2240         0.011085   
    174. D(H  14,C  13,C  10,H  12)    178.7672         0.011085   
    175. D(C  16,C  13,C  10,H  12)     56.9906         0.011085   
    176. D(H  14,C  13,C  10,H  11)     64.7788         0.011085   
    177. D(C  19,C  16,C  13,H  15)    -57.8143         0.010910   
    178. D(C  19,C  16,C  13,C  10)   -179.9888         0.010910   
    179. D(H  18,C  16,C  13,H  15)    179.8738         0.010910   
    180. D(H  18,C  16,C  13,H  14)    -64.4805         0.010910   
    181. D(H  18,C  16,C  13,C  10)     57.6994         0.010910   
    182. D(H  17,C  16,C  13,H  15)     64.4973         0.010910   
    183. D(C  19,C  16,C  13,H  14)     57.8314         0.010910   
    184. D(H  17,C  16,C  13,H  14)   -179.8569         0.010910   
    185. D(H  17,C  16,C  13,C  10)    -57.6771         0.010910   
    186. D(H  35,C  19,C  16,H  18)    -57.8641         0.011122   
    187. D(H  35,C  19,C  16,H  17)     57.8767         0.011122   
    188. D(H  35,C  19,C  16,C  13)   -179.9937         0.011122   
    189. D(H  21,C  19,C  16,H  18)     62.2720         0.011122   
    190. D(H  21,C  19,C  16,H  17)    178.0128         0.011122   
    191. D(H  21,C  19,C  16,C  13)    -59.8577         0.011122   
    192. D(H  20,C  19,C  16,H  18)   -178.0020         0.011122   
    193. D(H  20,C  19,C  16,H  17)    -62.2612         0.011122   
    194. D(H  20,C  19,C  16,C  13)     59.8684         0.011122   
    195. D(C  25,C  22,C   6,C   5)    179.9943         0.011404   
    196. D(H  24,C  22,C   6,C   7)   -123.6657         0.011404   
    197. D(H  24,C  22,C   6,C   5)     56.3246         0.011404   
    198. D(H  23,C  22,C   6,C   5)    -56.3286         0.011404   
    199. D(C  25,C  22,C   6,C   7)      0.0040         0.011404   
    200. D(H  23,C  22,C   6,C   7)    123.6811         0.011404   
    201. D(C  28,C  25,C  22,H  24)    -56.9339         0.011106   
    202. D(C  28,C  25,C  22,C   6)   -179.9987         0.011106   
    203. D(H  27,C  25,C  22,H  24)   -178.6856         0.011106   
    204. D(H  27,C  25,C  22,H  23)    -64.8219         0.011106   
    205. D(H  27,C  25,C  22,C   6)     58.2496         0.011106   
    206. D(H  26,C  25,C  22,H  24)     64.8085         0.011106   
    207. D(C  28,C  25,C  22,H  23)     56.9298         0.011106   
    208. D(H  26,C  25,C  22,H  23)    178.6722         0.011106   
    209. D(H  26,C  25,C  22,C   6)    -58.2563         0.011106   
    210. D(C  31,C  28,C  25,H  27)    -57.8023         0.010907   
    211. D(C  31,C  28,C  25,H  26)     57.7777         0.010907   
    212. D(C  31,C  28,C  25,C  22)    179.9840         0.010907   
    213. D(H  30,C  28,C  25,H  27)    179.8853         0.010907   
    214. D(H  30,C  28,C  25,H  26)    -64.5347         0.010907   
    215. D(H  30,C  28,C  25,C  22)     57.6716         0.010907   
    216. D(H  29,C  28,C  25,H  27)     64.5100         0.010907   
    217. D(H  29,C  28,C  25,H  26)   -179.9101         0.010907   
    218. D(H  29,C  28,C  25,C  22)    -57.7037         0.010907   
    219. D(H  36,C  31,C  28,H  30)    -57.8792         0.011121   
    220. D(H  36,C  31,C  28,H  29)     57.8628         0.011121   
    221. D(H  36,C  31,C  28,C  25)    179.9917         0.011121   
    222. D(H  33,C  31,C  28,H  30)     62.2652         0.011121   
    223. D(H  33,C  31,C  28,H  29)    178.0073         0.011121   
    224. D(H  33,C  31,C  28,C  25)    -59.8638         0.011121   
    225. D(H  32,C  31,C  28,H  30)   -178.0220         0.011121   
    226. D(H  32,C  31,C  28,H  29)    -62.2799         0.011121   
    227. D(H  32,C  31,C  28,C  25)     59.8490         0.011121   
    228. D(C  42,C  37,C   5,C   6)      0.3316         0.001500   
    229. D(C  42,C  37,C   5,C   4)   -179.7006         0.001500   
    230. D(C  38,C  37,C   5,C   6)   -179.6873         0.001500   
    231. D(C  38,C  37,C   5,C   4)      0.2805         0.001500   
    232. D(H  45,C  38,C  37,C  42)   -179.9878         0.022654   
    233. D(H  45,C  38,C  37,C  34)      0.0104         0.022654   
    234. D(C  39,C  38,C  37,C  42)      0.0037         0.022654   
    235. D(C  39,C  38,C  37,C  34)   -179.9981         0.022654   
    236. D(H  47,C  39,C  38,H  45)     -0.0026         0.026180   
    237. D(H  47,C  39,C  38,C  37)   -179.9939         0.026180   
    238. D(C  40,C  39,C  38,H  45)    179.9903         0.026180   
    239. D(C  40,C  39,C  38,C  37)     -0.0010         0.026180   
    240. D(H  43,C  40,C  39,H  47)     -0.0096         0.025072   
    241. D(H  43,C  40,C  39,C  38)    179.9975         0.025072   
    242. D(C  41,C  40,C  39,H  47)    179.9922         0.025072   
    243. D(C  41,C  40,C  39,C  38)     -0.0007         0.025072   
    244. D(H  44,C  41,C  40,H  43)     -0.0048         0.025061   
    245. D(H  44,C  41,C  40,C  39)    179.9934         0.025061   
    246. D(C  42,C  41,C  40,H  43)   -179.9985         0.025061   
    247. D(C  42,C  41,C  40,C  39)     -0.0003         0.025061   
    248. D(H  46,C  42,C  41,H  44)     -0.0029         0.026192   
    249. D(H  46,C  42,C  41,C  40)    179.9908         0.026192   
    250. D(C  37,C  42,C  41,H  44)   -179.9908         0.026192   
    251. D(C  37,C  42,C  41,C  40)      0.0030         0.026192   
    252. D(H  46,C  42,C  37,C  38)   -179.9926         0.022633   
    253. D(H  46,C  42,C  37,C  34)      0.0092         0.022633   
    254. D(C  41,C  42,C  37,C  38)     -0.0046         0.022633   
    255. D(C  41,C  42,C  37,C  34)    179.9972         0.022633   
    -----------------------------------------------------------------

Number of atoms                         .... 48
Number of degrees of freedom            .... 255

         *************************************************************
         *                GEOMETRY OPTIMIZATION CYCLE   1            *
         *************************************************************
---------------------------------
CARTESIAN COORDINATES (ANGSTROEM)
---------------------------------
  C     -2.831396    0.021105   -0.012642
  C      2.816857   -0.008329   -0.008943
  C     -1.419538    0.001261   -0.011722
  C     -0.709937   -1.250915   -0.014244
  C      0.675807   -1.194488   -0.013199
  C      1.396890    0.027161   -0.009776
  C      0.693139    1.270435   -0.007169
  C     -0.693327    1.232572   -0.008242
  H      1.253281   -2.119533   -0.015037
  H     -1.270220    2.156410   -0.006421
  C     -1.493370   -2.545554   -0.017776
  H     -2.168844   -2.534335   -0.894719
  H     -2.170258   -2.538203    0.858122
  C     -0.684914   -3.845409   -0.019953
  H     -0.021185   -3.871791   -0.904310
  H     -0.022639   -3.875623    0.865366
  C     -1.573350   -5.094802   -0.023316
  H     -2.240313   -5.069926    0.858937
  H     -2.238686   -5.066329   -0.906684
  C     -0.775094   -6.400390   -0.025238
  H     -0.126178   -6.475107    0.864749
  H     -0.124397   -6.471391   -0.914234
  C      1.475709    2.570201   -0.003587
  H      2.151562    2.561099    0.871942
  H      2.152587    2.565252   -0.878360
  C      0.664476    3.868006   -0.001046
  H      0.001883    3.898365   -0.886151
  H      0.000628    3.894170    0.883255
  C      1.551315    5.118577    0.002456
  H      2.216719    5.090697    0.885857
  H      2.218237    5.094567   -0.879915
  C      0.751789    6.423401    0.004629
  H      0.100998    6.493490    0.893612
  H      0.102721    6.497515   -0.885281
  C      4.040740   -0.049685   -0.010049
  H     -1.439320   -7.279640   -0.027752
  H      1.414954    7.303479    0.007274
  C      5.466067   -0.097029   -0.009572
  C      6.145809   -1.335591   -0.018815
  C      7.539362   -1.375968   -0.018263
  C      8.282105   -0.189619   -0.008565
  C      7.619225    1.043198    0.000607
  C      6.226076    1.094106    0.000117
  H      9.374307   -0.226006   -0.008129
  H      8.193231    1.972960    0.008310
  H      5.565057   -2.259870   -0.026531
  H      5.707313    2.054702    0.007413
  H      8.051398   -2.341332   -0.025579

----------------------------
CARTESIAN COORDINATES (A.U.)
----------------------------
  NO LB      ZA    FRAG     MASS         X           Y           Z
   0 C     6.0000    0    12.011   -5.350563    0.039882   -0.023890
   1 C     6.0000    0    12.011    5.323088   -0.015739   -0.016900
   2 C     6.0000    0    12.011   -2.682537    0.002383   -0.022152
   3 C     6.0000    0    12.011   -1.341587   -2.363887   -0.026917
   4 C     6.0000    0    12.011    1.277090   -2.257256   -0.024942
   5 C     6.0000    0    12.011    2.639739    0.051327   -0.018473
   6 C     6.0000    0    12.011    1.309842    2.400774   -0.013548
   7 C     6.0000    0    12.011   -1.310199    2.329224   -0.015575
   8 H     1.0000    0     1.008    2.368358   -4.005336   -0.028416
   9 H     1.0000    0     1.008   -2.400368    4.075024   -0.012134
  10 C     6.0000    0    12.011   -2.822059   -4.810400   -0.033591
  11 H     1.0000    0     1.008   -4.098521   -4.789200   -1.690774
  12 H     1.0000    0     1.008   -4.101194   -4.796508    1.621615
  13 C     6.0000    0    12.011   -1.294300   -7.266770   -0.037706
  14 H     1.0000    0     1.008   -0.040034   -7.316625   -1.708898
  15 H     1.0000    0     1.008   -0.042781   -7.323867    1.635305
  16 C     6.0000    0    12.011   -2.973200   -9.627780   -0.044060
  17 H     1.0000    0     1.008   -4.233577   -9.580771    1.623156
  18 H     1.0000    0     1.008   -4.230503   -9.573974   -1.713384
  19 C     6.0000    0    12.011   -1.464716  -12.094984   -0.047693
  20 H     1.0000    0     1.008   -0.238442  -12.236179    1.634139
  21 H     1.0000    0     1.008   -0.235076  -12.229156   -1.727652
  22 C     6.0000    0    12.011    2.788687    4.856976   -0.006779
  23 H     1.0000    0     1.008    4.065863    4.839776    1.647731
  24 H     1.0000    0     1.008    4.067800    4.847624   -1.659861
  25 C     6.0000    0    12.011    1.255677    7.309471   -0.001976
  26 H     1.0000    0     1.008    0.003559    7.366842   -1.674583
  27 H     1.0000    0     1.008    0.001187    7.358915    1.669110
  28 C     6.0000    0    12.011    2.931560    9.672708    0.004641
  29 H     1.0000    0     1.008    4.188991    9.620024    1.674028
  30 H     1.0000    0     1.008    4.191860    9.627336   -1.662799
  31 C     6.0000    0    12.011    1.420675   12.138469    0.008747
  32 H     1.0000    0     1.008    0.190858   12.270918    1.688682
  33 H     1.0000    0     1.008    0.194114   12.278524   -1.672939
  34 C     6.0000    0    12.011    7.635892   -0.093891   -0.018989
  35 H     1.0000    0     1.008   -2.719921  -13.756526   -0.052444
  36 H     1.0000    0     1.008    2.673876   13.801576    0.013747
  37 C     6.0000    0    12.011   10.329369   -0.183357   -0.018088
  38 C     6.0000    0    12.011   11.613895   -2.523901   -0.035555
  39 C     6.0000    0    12.011   14.247330   -2.600202   -0.034512
  40 C     6.0000    0    12.011   15.650910   -0.358327   -0.016186
  41 C     6.0000    0    12.011   14.398249    1.971359    0.001146
  42 C     6.0000    0    12.011   11.765578    2.067561    0.000221
  43 H     1.0000    0     1.008   17.714872   -0.427089   -0.015362
  44 H     1.0000    0     1.008   15.482963    3.728355    0.015704
  45 H     1.0000    0     1.008   10.516433   -4.270536   -0.050135
  46 H     1.0000    0     1.008   10.785258    3.882825    0.014008
  47 H     1.0000    0     1.008   15.214938   -4.424477   -0.048337

--------------------------------
INTERNAL COORDINATES (ANGSTROEM)
--------------------------------
 C      0   0   0     0.000000000000     0.00000000     0.00000000
 C      1   0   0     5.648330698726     0.00000000     0.00000000
 C      1   2   0     1.411998155058     0.50666401     0.00000000
 C      3   1   2     1.439265238987   120.34506492   180.11525328
 C      4   3   1     1.386892516390   117.20805508   179.99815785
 C      5   4   3     1.418590951929   122.88316377     0.00000000
 C      6   5   4     1.428636181607   119.93684586     0.00000000
 C      7   6   5     1.386983247305   117.94748895     0.00000000
 H      5   4   3     1.090498800567   119.64325441   180.00063637
 H      8   7   6     1.089166457213   120.41842159   180.00474429
 C      4   3   1     1.513231475843   119.28053488     0.00000000
 H     11   4   3     1.106987508797   108.00424591    56.36764294
 H     11   4   3     1.106990643288   108.00146328   303.66007050
 C     11   4   3     1.530760567701   116.94058367   180.01664009
 H     14  11   4     1.106037532979   109.77497291   301.77011026
 H     14  11   4     1.106034555860   109.77330951    58.22398988
 C     14  11   4     1.533072214958   112.70380937   179.99354042
 H     17  14  11     1.106267694029   109.22695743   302.32287452
 H     17  14  11     1.106265076622   109.22690582    57.69935743
 C     17  14  11     1.530286265789   113.14147319   180.01120664
 H     20  17  14     1.103971126313   111.30604116    59.86838975
 H     20  17  14     1.103975798295   111.30559393   300.14232406
 C      7   6   5     1.517175734789   119.43668219   180.00300853
 H     23   7   6     1.106079208349   108.05897315   303.67141167
 H     23   7   6     1.106081076661   108.05642477    56.32459193
 C     23   7   6     1.530491205541   116.93984404   179.99430067
 H     26  23   7     1.106056894112   109.84494530   301.74373779
 H     26  23   7     1.106059098801   109.84747607    58.24961568
 C     26  23   7     1.533109055252   112.64915645   180.00128704
 H     29  26  23     1.106317372256   109.21938842   302.29627641
 H     29  26  23     1.106318287020   109.21945528    57.67163942
 C     29  26  23     1.530298343723   113.16015569   179.98402264
 H     32  29  26     1.103962174995   111.30133303    59.84898940
 H     32  29  26     1.103957561531   111.30172752   300.13620156
 C      2   1   3     1.224582569050   178.36080690     3.09821264
 H     20  17  14     1.101945046938   111.48883747   180.00626336
 H     32  29  26     1.101967582314   111.50329200   179.99173226
 C     35   2   6     1.426112432090   179.92185727   235.48856427
 C     38  35   2     1.412859371801   120.66022253   115.34492517
 C     39  38  35     1.394138396725   120.41739421   180.00187943
 C     40  39  38     1.399708745254   120.38935887     0.00000000
 C     41  40  39     1.399760975235   119.68520088     0.00000000
 C     42  41  40     1.394079192387   120.35857571     0.00000000
 H     41  40  39     1.092808000278   120.14085465   179.99754521
 H     42  41  40     1.092702759860   120.04494867   179.99343368
 H     39  38  35     1.091615977910   119.10052992     0.00000000
 H     43  42  41     1.091747889528   120.46280318   179.99080512
 H     40  39  38     1.092777911114   119.60050405   180.00605972

---------------------------
INTERNAL COORDINATES (A.U.)
---------------------------
 C      0   0   0     0.000000000000     0.00000000     0.00000000
 C      1   0   0    10.673798134413     0.00000000     0.00000000
 C      1   2   0     2.668289814661     0.50666401     0.00000000
 C      3   1   2     2.719817135757   120.34506492   180.11525328
 C      4   3   1     2.620847033161   117.20805508   179.99815785
 C      5   4   3     2.680748395204   122.88316377     0.00000000
 C      6   5   4     2.699731128249   119.93684586     0.00000000
 C      7   6   5     2.621018489743   117.94748895     0.00000000
 H      5   4   3     2.060744082442   119.64325441   180.00063637
 H      8   7   6     2.058226318387   120.41842159   180.00474429
 C      4   3   1     2.859593066574   119.28053488     0.00000000
 H     11   4   3     2.091903225298   108.00424591    56.36764294
 H     11   4   3     2.091909148628   108.00146328   303.66007050
 C     11   4   3     2.892718249561   116.94058367   180.01664009
 H     14  11   4     2.090108031168   109.77497291   301.77011026
 H     14  11   4     2.090102405229   109.77330951    58.22398988
 C     14  11   4     2.897086629795   112.70380937   179.99354042
 H     17  14  11     2.090542972520   109.22695743   302.32287452
 H     17  14  11     2.090538026337   109.22690582    57.69935743
 C     17  14  11     2.891821948842   113.14147319   180.01120664
 H     20  17  14     2.086203088488   111.30604116    59.86838975
 H     20  17  14     2.086211917255   111.30559393   300.14232406
 C      7   6   5     2.867046635782   119.43668219   180.00300853
 H     23   7   6     2.090186786205   108.05897315   303.67141167
 H     23   7   6     2.090190316801   108.05642477    56.32459193
 C     23   7   6     2.892209228847   116.93984404   179.99430067
 H     26  23   7     2.090144618407   109.84494530   301.74373779
 H     26  23   7     2.090148784666   109.84747607    58.24961568
 C     26  23   7     2.897156247861   112.64915645   180.00128704
 H     29  26  23     2.090636850764   109.21938842   302.29627641
 H     29  26  23     2.090638579418   109.21945528    57.67163942
 C     29  26  23     2.891844772829   113.16015569   179.98402264
 H     32  29  26     2.086186172948   111.30133303    59.84898940
 H     32  29  26     2.086177454765   111.30172752   300.13620156
 C      2   1   3     2.314125683878   178.36080690     3.09821264
 H     20  17  14     2.082374353345   111.48883747   180.00626336
 H     32  29  26     2.082416939032   111.50329200   179.99173226
 C     35   2   6     2.694961932831   179.92185727   235.48856427
 C     38  35   2     2.669917278447   120.66022253   115.34492517
 C     39  38  35     2.634539762595   120.41739421   180.00187943
 C     40  39  38     2.645066195785   120.38935887     0.00000000
 C     41  40  39     2.645164896144   119.68520088     0.00000000
 C     42  41  40     2.634427882610   120.35857571     0.00000000
 H     41  40  39     2.065107837483   120.14085465   179.99754521
 H     42  41  40     2.064908961916   120.04494867   179.99343368
 H     39  38  35     2.062855241663   119.10052992     0.00000000
 H     43  42  41     2.063104518494   120.46280318   179.99080512
 H     40  39  38     2.065050977204   119.60050405   180.00605972

---------------------
BASIS SET INFORMATION
---------------------
There are 2 groups of distinct atoms

 Group   1 Type C   : 17s4p1d contracted to 3s2p1d pattern {881/31/1}
 Group   2 Type H   : 4s1p contracted to 2s1p pattern {31/1}

Atom   0C    basis set group =>   1
Atom   1C    basis set group =>   1
Atom   2C    basis set group =>   1
Atom   3C    basis set group =>   1
Atom   4C    basis set group =>   1
Atom   5C    basis set group =>   1
Atom   6C    basis set group =>   1
Atom   7C    basis set group =>   1
Atom   8H    basis set group =>   2
Atom   9H    basis set group =>   2
Atom  10C    basis set group =>   1
Atom  11H    basis set group =>   2
Atom  12H    basis set group =>   2
Atom  13C    basis set group =>   1
Atom  14H    basis set group =>   2
Atom  15H    basis set group =>   2
Atom  16C    basis set group =>   1
Atom  17H    basis set group =>   2
Atom  18H    basis set group =>   2
Atom  19C    basis set group =>   1
Atom  20H    basis set group =>   2
Atom  21H    basis set group =>   2
Atom  22C    basis set group =>   1
Atom  23H    basis set group =>   2
Atom  24H    basis set group =>   2
Atom  25C    basis set group =>   1
Atom  26H    basis set group =>   2
Atom  27H    basis set group =>   2
Atom  28C    basis set group =>   1
Atom  29H    basis set group =>   2
Atom  30H    basis set group =>   2
Atom  31C    basis set group =>   1
Atom  32H    basis set group =>   2
Atom  33H    basis set group =>   2
Atom  34C    basis set group =>   1
Atom  35H    basis set group =>   2
Atom  36H    basis set group =>   2
Atom  37C    basis set group =>   1
Atom  38C    basis set group =>   1
Atom  39C    basis set group =>   1
Atom  40C    basis set group =>   1
Atom  41C    basis set group =>   1
Atom  42C    basis set group =>   1
Atom  43H    basis set group =>   2
Atom  44H    basis set group =>   2
Atom  45H    basis set group =>   2
Atom  46H    basis set group =>   2
Atom  47H    basis set group =>   2
---------------------------------
AUXILIARY/J BASIS SET INFORMATION
---------------------------------
There are 2 groups of distinct atoms

 Group   1 Type C   : 12s5p4d2f1g contracted to 6s4p3d1f1g pattern {711111/2111/211/2/1}
 Group   2 Type H   : 5s2p1d contracted to 3s1p1d pattern {311/2/1}

Atom   0C    basis set group =>   1
Atom   1C    basis set group =>   1
Atom   2C    basis set group =>   1
Atom   3C    basis set group =>   1
Atom   4C    basis set group =>   1
Atom   5C    basis set group =>   1
Atom   6C    basis set group =>   1
Atom   7C    basis set group =>   1
Atom   8H    basis set group =>   2
Atom   9H    basis set group =>   2
Atom  10C    basis set group =>   1
Atom  11H    basis set group =>   2
Atom  12H    basis set group =>   2
Atom  13C    basis set group =>   1
Atom  14H    basis set group =>   2
Atom  15H    basis set group =>   2
Atom  16C    basis set group =>   1
Atom  17H    basis set group =>   2
Atom  18H    basis set group =>   2
Atom  19C    basis set group =>   1
Atom  20H    basis set group =>   2
Atom  21H    basis set group =>   2
Atom  22C    basis set group =>   1
Atom  23H    basis set group =>   2
Atom  24H    basis set group =>   2
Atom  25C    basis set group =>   1
Atom  26H    basis set group =>   2
Atom  27H    basis set group =>   2
Atom  28C    basis set group =>   1
Atom  29H    basis set group =>   2
Atom  30H    basis set group =>   2
Atom  31C    basis set group =>   1
Atom  32H    basis set group =>   2
Atom  33H    basis set group =>   2
Atom  34C    basis set group =>   1
Atom  35H    basis set group =>   2
Atom  36H    basis set group =>   2
Atom  37C    basis set group =>   1
Atom  38C    basis set group =>   1
Atom  39C    basis set group =>   1
Atom  40C    basis set group =>   1
Atom  41C    basis set group =>   1
Atom  42C    basis set group =>   1
Atom  43H    basis set group =>   2
Atom  44H    basis set group =>   2
Atom  45H    basis set group =>   2
Atom  46H    basis set group =>   2
Atom  47H    basis set group =>   2


           ************************************************************
           *        Program running with 16 parallel MPI-processes    *
           *              working on a common directory               *
           ************************************************************
------------------------------------------------------------------------------
                           ORCA GTO INTEGRAL CALCULATION
                           -- RI-GTO INTEGRALS CHOSEN --
------------------------------------------------------------------------------
------------------------------------------------------------------------------
                   ___                                                        
                  /   \      - P O W E R E D   B Y -                         
                 /     \                                                     
                 |  |  |   _    _      __       _____    __    __             
                 |  |  |  | |  | |    /  \     |  _  \  |  |  /  |          
                  \  \/   | |  | |   /    \    | | | |  |  | /  /          
                 / \  \   | |__| |  /  /\  \   | |_| |  |  |/  /          
                |  |  |   |  __  | /  /__\  \  |    /   |      \           
                |  |  |   | |  | | |   __   |  |    \   |  |\   \          
                \     /   | |  | | |  |  |  |  | |\  \  |  | \   \       
                 \___/    |_|  |_| |__|  |__|  |_| \__\ |__|  \__/        
                                                                              
                      - O R C A' S   B I G   F R I E N D -                    
                                      &                                       
                       - I N T E G R A L  F E E D E R -                       
                                                                              
 v1 FN, 2020, v2 2021                                                         
------------------------------------------------------------------------------


Reading SHARK input file opt.SHARKINP.tmp ... ok
----------------------
SHARK INTEGRAL PACKAGE
----------------------

Number of atoms                             ...     48
Number of basis functions                   ...    585
Number of shells                            ...    351
Maximum angular momentum                    ...      2
Integral batch strategy                     ... SHARK/LIBINT Hybrid
RI-J (if used) integral strategy            ... SPLIT-RIJ (Revised 2003 algorithm where possible)
Printlevel                                  ...      1
Contraction scheme used                     ... PARTIAL GENERAL contraction
Coulomb Range Separation                    ... NOT USED
Exchange Range Separation                   ... NOT USED
Finite Nucleus Model                        ... NOT USED
Auxiliary Coulomb fitting basis             ... AVAILABLE
   # of basis functions in Aux-J            ...   1402
   # of shells in Aux-J                     ...    470
   Maximum angular momentum in Aux-J        ...      4
Auxiliary J/K fitting basis                 ... NOT available
Auxiliary Correlation fitting basis         ... NOT available
Auxiliary 'external' fitting basis          ... NOT available
Integral threshold                          ...     2.500000e-11
Primitive cut-off                           ...     2.500000e-12
Primitive pair pre-selection threshold      ...     2.500000e-12

Calculating pre-screening integrals         ... done (  0.0 sec) Dimension = 351
Calculating pre-screening integrals (ORCA)  ... done (  0.1 sec) Dimension = 213
Organizing shell pair data                  ... done (  0.2 sec)
Shell pair information
Total number of shell pairs                 ...     61776
Shell pairs after pre-screening             ...     25190
Total number of primitive shell pairs       ...    100272
Primitive shell pairs kept                  ...     34336
          la=0 lb=0:  10968 shell pairs
          la=1 lb=0:   8886 shell pairs
          la=1 lb=1:   1584 shell pairs
          la=2 lb=0:   2657 shell pairs
          la=2 lb=1:    942 shell pairs
          la=2 lb=2:    153 shell pairs

Calculating one electron integrals          ... done (  0.0 sec)
Calculating RI/J V-Matrix + Cholesky decomp.... done (  0.2 sec)
Calculating Nuclear repulsion               ... done (  0.0 sec) ENN=   1629.770043396349 Eh

SHARK setup successfully completed in   0.9 seconds

Maximum memory used throughout the entire GTOINT-calculation: 36.3 MB


           ************************************************************
           *        Program running with 16 parallel MPI-processes    *
           *              working on a common directory               *
           ************************************************************
-------------------------------------------------------------------------------
                                 ORCA SCF
-------------------------------------------------------------------------------

------------
SCF SETTINGS
------------
Hamiltonian:
 Density Functional     Method          .... DFT(GTOs)
 Exchange Functional    Exchange        .... B88
   X-Alpha parameter    XAlpha          ....  0.666667
   Becke's b parameter  XBeta           ....  0.004200
 Correlation Functional Correlation     .... LYP
 LDA part of GGA corr.  LDAOpt          .... VWN-5
 Gradients option       PostSCFGGA      .... off
 Hybrid DFT is turned on
   Fraction HF Exchange ScalHFX         ....  0.200000
   Scaling of DF-GGA-X  ScalDFX         ....  0.720000
   Scaling of DF-GGA-C  ScalDFC         ....  0.810000
   Scaling of DF-LDA-C  ScalLDAC        ....  1.000000
   Perturbative correction              ....  0.000000
   Density functional embedding theory  .... OFF
   NL short-range parameter             ....  4.800000
 RI-approximation to the Coulomb term is turned on
   Number of AuxJ basis functions       .... 1402
   RIJ-COSX (HFX calculated with COS-X)).... on


General Settings:
 Integral files         IntName         .... opt
 Hartree-Fock type      HFTyp           .... UHF
 Total Charge           Charge          ....    0
 Multiplicity           Mult            ....    4
 Number of Electrons    NEL             ....  163
 Basis Dimension        Dim             ....  447
 Nuclear Repulsion      ENuc            ....   1629.7700433963 Eh

Convergence Acceleration:
 DIIS                   CNVDIIS         .... on
   Start iteration      DIISMaxIt       ....    12
   Startup error        DIISStart       ....  0.200000
   # of expansion vecs  DIISMaxEq       ....     5
   Bias factor          DIISBfac        ....   1.050
   Max. coefficient     DIISMaxC        ....  10.000
 Trust-Rad. Augm. Hess. CNVTRAH         .... auto
   Auto Start mean grad. ratio tolernc. ....  1.125000
   Auto Start start iteration           ....    20
   Auto Start num. interpolation iter.  ....    10
   Max. Number of Micro iterations      ....    16
   Max. Number of Macro iterations      .... Maxiter - #DIIS iter
   Number of Davidson start vectors     ....     2
   Converg. threshold I  (grad. norm)   ....   1.000e-05
   Converg. threshold II (energy diff.) ....   1.000e-08
   Grad. Scal. Fac. for Micro threshold ....   0.100
   Minimum threshold for Micro iter.    ....   0.010
   NR start threshold (gradient norm)   ....   0.001
   Initial trust radius                 ....   0.400
   Minimum AH scaling param. (alpha)    ....   1.000
   Maximum AH scaling param. (alpha)    .... 1000.000
   Orbital update algorithm             .... Taylor
   White noise on init. David. guess    .... on
   Maximum white noise                  ....   0.010
   Quad. conv. algorithm                .... NR
 SOSCF                  CNVSOSCF        .... off
 Level Shifting         CNVShift        .... on
   Level shift para.    LevelShift      ....    0.2500
   Turn off err/grad.   ShiftErr        ....    0.0010
 Zerner damping         CNVZerner       .... off
 Static damping         CNVDamp         .... on
   Fraction old density DampFac         ....    0.7000
   Max. Damping (<1)    DampMax         ....    0.9800
   Min. Damping (>=0)   DampMin         ....    0.0000
   Turn off err/grad.   DampErr         ....    0.1000
 Fernandez-Rico         CNVRico         .... off

SCF Procedure:
 Maximum # iterations   MaxIter         ....   125
 SCF integral mode      SCFMode         .... Direct
   Integral package                     .... SHARK and LIBINT hybrid scheme
 Reset frequency        DirectResetFreq ....    20
 Integral Threshold     Thresh          ....  2.500e-11 Eh
 Primitive CutOff       TCut            ....  2.500e-12 Eh

Convergence Tolerance:
 Convergence Check Mode ConvCheckMode   .... Total+1el-Energy
 Convergence forced     ConvForced      .... 0
 Energy Change          TolE            ....  1.000e-08 Eh
 1-El. energy change                    ....  1.000e-05 Eh
 DIIS Error             TolErr          ....  5.000e-07


Diagonalization of the overlap matrix:
Smallest eigenvalue                        ... 5.265e-05
Time for diagonalization                   ...    0.037 sec
Threshold for overlap eigenvalues          ... 1.000e-08
Number of eigenvalues below threshold      ... 0
Time for construction of square roots      ...    0.044 sec
Total time needed                          ...    0.083 sec

Time for model grid setup =    0.339 sec

------------------------------
INITIAL GUESS: MODEL POTENTIAL
------------------------------
Loading Hartree-Fock densities                     ... done
Calculating cut-offs                               ... done
Initializing the effective Hamiltonian             ... done
Setting up the integral package (SHARK)            ... done
Starting the Coulomb interaction                   ... done (   0.2 sec)
Reading the grid                                   ... done
Mapping shells                                     ... done
Starting the XC term evaluation                    ... done (   0.1 sec)
  promolecular density results
     # of electrons  =    162.999155408
     EX              =   -125.507423169
     EC              =     -5.359648351
     EX+EC           =   -130.867071520
Transforming the Hamiltonian                       ... done (   0.0 sec)
Diagonalizing the Hamiltonian                      ... done (   0.0 sec)
Back transforming the eigenvectors                 ... done (   0.0 sec)
Now organizing SCF variables                       ... done
                      ------------------
                      INITIAL GUESS DONE (   1.0 sec)
                      ------------------
-------------------
DFT GRID GENERATION
-------------------

General Integration Accuracy     IntAcc      ... 4.388
Radial Grid Type                 RadialGrid  ... OptM3 with GC (2021)
Angular Grid (max. ang.)         AngularGrid ... 4 (Lebedev-302)
Angular grid pruning method      GridPruning ... 4 (adaptive)
Weight generation scheme         WeightScheme... Becke
Basis function cutoff            BFCut       ... 1.0000e-11
Integration weight cutoff        WCut        ... 1.0000e-14
Angular grids for H and He will be reduced by one unit
Partially contracted basis set               ... off
Rotationally invariant grid construction     ... off

Total number of grid points                  ...   217077
Total number of batches                      ...     3417
Average number of points per batch           ...       63
Average number of grid points per atom       ...     4522
Time for grid setup =    1.392 sec

--------------------
COSX GRID GENERATION
--------------------

GRIDX 1
-------
General Integration Accuracy     IntAcc      ... 3.816
Radial Grid Type                 RadialGrid  ... OptM3 with GC (2021)
Angular Grid (max. ang.)         AngularGrid ... 1 (Lebedev-50)
Angular grid pruning method      GridPruning ... 4 (adaptive)
Weight generation scheme         WeightScheme... Becke
Basis function cutoff            BFCut       ... 1.0000e-11
Integration weight cutoff        WCut        ... 1.0000e-14
Angular grids for H and He will be reduced by one unit
Partially contracted basis set               ... on
Rotationally invariant grid construction     ... off

Total number of grid points                  ...    27661
Total number of batches                      ...      458
Average number of points per batch           ...       60
Average number of grid points per atom       ...      576
UseSFitting                                  ... on

GRIDX 2
-------
General Integration Accuracy     IntAcc      ... 4.020
Radial Grid Type                 RadialGrid  ... OptM3 with GC (2021)
Angular Grid (max. ang.)         AngularGrid ... 2 (Lebedev-110)
Angular grid pruning method      GridPruning ... 4 (adaptive)
Weight generation scheme         WeightScheme... Becke
Basis function cutoff            BFCut       ... 1.0000e-11
Integration weight cutoff        WCut        ... 1.0000e-14
Angular grids for H and He will be reduced by one unit
Partially contracted basis set               ... on
Rotationally invariant grid construction     ... off

Total number of grid points                  ...    58854
Total number of batches                      ...      944
Average number of points per batch           ...       62
Average number of grid points per atom       ...     1226
UseSFitting                                  ... on

GRIDX 3
-------
General Integration Accuracy     IntAcc      ... 4.338
Radial Grid Type                 RadialGrid  ... OptM3 with GC (2021)
Angular Grid (max. ang.)         AngularGrid ... 3 (Lebedev-194)
Angular grid pruning method      GridPruning ... 4 (adaptive)
Weight generation scheme         WeightScheme... Becke
Basis function cutoff            BFCut       ... 1.0000e-11
Integration weight cutoff        WCut        ... 1.0000e-14
Angular grids for H and He will be reduced by one unit
Partially contracted basis set               ... on
Rotationally invariant grid construction     ... off

Total number of grid points                  ...   128750
Total number of batches                      ...     2038
Average number of points per batch           ...       63
Average number of grid points per atom       ...     2682
UseSFitting                                  ... on

Time for X-Grid setup             =    2.322 sec

 re-compute Schwartz prescreening matrix in partically contracted basis (1) ...done (   0.123 sec)
--------------
SCF ITERATIONS
--------------
ITER       Energy         Delta-E        Max-DP      RMS-DP      [F,P]     Damp
               ***  Starting incremental Fock matrix formation  ***
  0   -890.1416953407   0.000000000000 0.05735229  0.00078028  0.0875299 0.7000
  1   -890.3728896862  -0.231194345447 0.05544963  0.00064416  0.0462631 0.7000
                               ***Turning on DIIS***
  2   -890.4768908710  -0.104001184809 0.13621950  0.00133879  0.0182749 0.0000
  3   -890.6220855805  -0.145194709521 0.02545434  0.00039410  0.0253756 0.0000
  4   -890.6625414709  -0.040455890382 0.02154510  0.00021199  0.0088079 0.0000
  5   -890.6656245323  -0.003083061406 0.00660987  0.00006900  0.0031652 0.0000
  6   -890.6662074893  -0.000582956948 0.00219346  0.00003154  0.0013362 0.0000
  7   -890.6664584855  -0.000250996237 0.00228739  0.00002409  0.0010056 0.0000
  8   -890.6666212990  -0.000162813542 0.00526869  0.00006494  0.0008537 0.0000
               *** Restarting incremental Fock matrix formation ***
                                   *** Resetting DIIS ***
  9   -890.6671795166  -0.000558217597 0.00146635  0.00002005  0.0011198 0.0000
 10   -890.6672076377  -0.000028121064 0.00207271  0.00002918  0.0009978 0.0000
 11   -890.6672733814  -0.000065743691 0.00528517  0.00005742  0.0007875 0.0000
 12   -890.6673938733  -0.000120491919 0.00322273  0.00003494  0.0009018 0.0000
 13   -890.6675094280  -0.000115554721 0.00025627  0.00000330  0.0012584 0.0000
 14   -890.6675029073   0.000006520716 0.00014835  0.00000166  0.0012839 0.0000
 15   -890.6674961798   0.000006727468 0.00039866  0.00000404  0.0013031 0.0000
 16   -890.6674953582   0.000000821670 0.00042854  0.00000489  0.0012552 0.0000
 17   -890.6675122803  -0.000016922119 0.00153805  0.00001936  0.0012132 0.0000
 18   -890.6675901593  -0.000077879045 0.00151711  0.00001498  0.0012293 0.0000
 19   -890.6676684375  -0.000078278112 0.00137164  0.00001359  0.0012640 0.0000

 WARNING: the maximum gradient error descreased on average only by a factor   1.0
          during the last 20 iterations

                      *** Initiating the TRAH-SCF procedure ***


TRAH GRIDX
----------

General Integration Accuracy     IntAcc      ... 3.067
Radial Grid Type                 RadialGrid  ... OptM3 with GC (2021)
Angular Grid (max. ang.)         AngularGrid ... 1 (Lebedev-50)
Angular grid pruning method      GridPruning ... 4 (adaptive)
Weight generation scheme         WeightScheme... Becke
Basis function cutoff            BFCut       ... 1.0000e-11
Integration weight cutoff        WCut        ... 1.0000e-14
Angular grids for H and He will be reduced by one unit
Partially contracted basis set               ... on
Rotationally invariant grid construction     ... off

Total number of grid points                  ...    14528
Total number of batches                      ...      255
Average number of points per batch           ...       56
Average number of grid points per atom       ...      303


TRAH GRID
---------

General Integration Accuracy     IntAcc      ... 3.467
Radial Grid Type                 RadialGrid  ... OptM3 with GC (2021)
Angular Grid (max. ang.)         AngularGrid ... 1 (Lebedev-50)
Angular grid pruning method      GridPruning ... 4 (adaptive)
Weight generation scheme         WeightScheme... Becke
Basis function cutoff            BFCut       ... 1.0000e-11
Integration weight cutoff        WCut        ... 1.0000e-14
Angular grids for H and He will be reduced by one unit
Partially contracted basis set               ... off
Rotationally invariant grid construction     ... off

Total number of grid points                  ...    30931
Total number of batches                      ...      504
Average number of points per batch           ...       61
Average number of grid points per atom       ...      644

 --------------------------------------------------------------------------------------------
   Iter.        energy            ||Error||_2        Shift      TRadius  Mac/Mic        Rej.
 --------------------------------------------------------------------------------------------
    0       -890.667745869460     4.215600e-03                     0.400 (TRAH MAcro)   No
WARNING : small    HOMO - LUMO gap : (op =  beta) 0.009124
    0     dE    -8.298160e-05     1.813917e-02    -8.2949e-05      0.020 (TRAH MIcro)
    0     dE    -5.817729e-03     4.508307e-02    -3.2321e-02      0.372 (TRAH MIcro)
    0     dE    -7.366031e-03     1.550877e-02    -3.6824e-02      0.400 (TRAH MIcro)
    0     dE    -7.575592e-03     8.487260e-03    -3.7959e-02      0.400 (TRAH MIcro)
    0     dE    -7.636874e-03     3.201096e-03    -3.8275e-02      0.400 (TRAH MIcro)
    0     dE    -7.647936e-03     1.886923e-03    -3.8327e-02      0.400 (TRAH MIcro)
    0     dE    -7.651024e-03     9.087676e-04    -3.8342e-02      0.400 (TRAH MIcro)
    0     dE    -7.651806e-03     4.682615e-04    -3.8349e-02      0.400 (TRAH MIcro)
    0     dE    -7.651939e-03     1.715576e-04    -3.8351e-02      0.400 (TRAH MIcro)
    1       -890.672867280103     4.405621e-02                     0.400 (TRAH MAcro)   No
    1     dE    -1.185367e-03     4.129721e-02    -1.1845e-03      0.027 (TRAH MIcro)
    1     dE    -1.013635e-02     3.495153e-02    -2.6457e-02      0.400 (TRAH MIcro)
    1     dE    -1.094771e-02     1.739532e-02    -3.0608e-02      0.400 (TRAH MIcro)
    1     dE    -1.122833e-02     1.089669e-02    -3.1176e-02      0.400 (TRAH MIcro)
    1     dE    -1.129839e-02     3.663610e-03    -3.1986e-02      0.400 (TRAH MIcro)
    2       -890.684677737017     1.975372e-02                     0.480 (TRAH MAcro)   No
    2     dE    -4.543632e-04     3.326574e-02    -4.5412e-04      0.023 (TRAH MIcro)
    2     dE    -4.084899e-03     8.607367e-02    -3.7890e-03      0.279 (TRAH MIcro)
    2     dE    -1.172674e-02     3.498154e-02    -2.1400e-02      0.480 (TRAH MIcro)
    2     dE    -1.217100e-02     1.457872e-02    -2.5761e-02      0.465 (TRAH MIcro)
    2     dE    -1.254444e-02     7.323027e-03    -2.6201e-02      0.472 (TRAH MIcro)
    2     dE    -1.260046e-02     3.329799e-03    -2.6279e-02      0.473 (TRAH MIcro)
    2     dE    -1.260941e-02     1.795370e-03    -2.6296e-02      0.473 (TRAH MIcro)
    3       -890.695350434384     1.883845e-02                     0.576 (TRAH MAcro)   No
    3     dE    -2.467221e-04     2.477415e-02    -2.4668e-04      0.013 (TRAH MIcro)
    3     dE    -1.302016e-03     2.425868e-02    -1.2826e-03      0.123 (TRAH MIcro)
    3     dE    -2.040638e-03     1.604601e-02    -1.9547e-03      0.210 (TRAH MIcro)
    3     dE    -2.244789e-03     8.325222e-03    -2.1260e-03      0.236 (TRAH MIcro)
    3     dE    -2.327687e-03     3.264462e-03    -2.1925e-03      0.248 (TRAH MIcro)
    3     dE    -2.338387e-03     2.015085e-03    -2.2010e-03      0.250 (TRAH MIcro)
    3     dE    -2.342099e-03     9.625520e-04    -2.2041e-03      0.250 (TRAH MIcro)
    4       -890.697743414442     1.654214e-02                     0.691 (TRAH MAcro)   No
    4     dE    -1.689639e-04     1.398874e-02    -1.6895e-04      0.010 (TRAH MIcro)
    4     dE    -2.838194e-04     4.388070e-03    -2.8357e-04      0.030 (TRAH MIcro)
    4     dE    -3.072041e-04     3.666235e-03    -3.0675e-04      0.038 (TRAH MIcro)
    4     dE    -3.194908e-04     1.647866e-03    -3.1879e-04      0.047 (TRAH MIcro)
    5       -890.698078334850     1.814964e-03                     0.829 (TRAH MAcro)   No
    5     dE    -1.558819e-06     1.960810e-03    -1.5588e-06      0.001 (TRAH MIcro)
    5     dE    -1.080514e-05     2.129300e-03    -1.0803e-05      0.015 (TRAH MIcro)
    5     dE    -1.275115e-05     1.099582e-03    -1.2747e-05      0.019 (TRAH MIcro)
    5     dE    -1.342080e-05     3.728307e-04    -1.3415e-05      0.020 (TRAH MIcro)
    5     dE    -1.354532e-05     2.369906e-04    -1.3540e-05      0.021 (TRAH MIcro)
    5     dE    -1.357237e-05     6.561358e-05    -1.3567e-05      0.021 (TRAH MIcro)
    6       -890.698091954741     1.381937e-04                           (NR   MAcro)
    6     dE    -1.461927e-08     4.544722e-05                           (NR   MIcro)
    6     dE    -1.705479e-08     2.702868e-05                           (NR   MIcro)
    6     dE    -1.780483e-08     1.370328e-05                           (NR   MIcro)
    6     dE    -1.795053e-08     7.142047e-06                           (NR   MIcro)
    6     dE    -1.799335e-08     3.985188e-06                           (NR   MIcro)
    6     dE    -1.801153e-08     2.445661e-06                           (NR   MIcro)
    6     dE    -1.801899e-08     1.314666e-06                           (NR   MIcro)
    6     dE    -1.802074e-08     6.904340e-07                           (NR   MIcro)
    7       -890.698091973306     7.070304e-07                           (NR   MAcro)
    7     dE    -3.635790e-13     3.353720e-07                           (NR   MIcro)
    8       -890.698091973308     3.354185e-07                           (NR   MAcro)

               *****************************************************
               *                     SUCCESS                       *
               *           SCF CONVERGED AFTER  76 CYCLES          *
               *****************************************************

Old exchange energy                            =    -25.612602548 Eh
New exchange energy                            =    -25.612699058 Eh
Exchange energy change after final integration =     -0.000096509 Eh
Total energy after final integration           =   -890.698188483 Eh
Final COS-X integration done in                =     7.782 sec

----------------
TOTAL SCF ENERGY
----------------

Total Energy       :         -890.69818848 Eh          -24237.12990 eV

Components:
Nuclear Repulsion  :         1629.77004340 Eh           44348.29750 eV
Electronic Energy  :        -2520.46823188 Eh          -68585.42741 eV
One Electron Energy:        -4437.72629170 Eh         -120756.67155 eV
Two Electron Energy:         1917.25805982 Eh           52171.24414 eV
Max COSX asymmetry :            0.00000125 Eh               0.00003 eV

Virial components:
Potential Energy   :        -1775.24018721 Eh          -48306.74136 eV
Kinetic Energy     :          884.54199873 Eh           24069.61146 eV
Virial Ratio       :            2.00695975


DFT components:
N(Alpha)           :       83.000199553372 electrons
N(Beta)            :       80.000196285492 electrons
N(Total)           :      163.000395838864 electrons
E(X)               :     -101.560526062690 Eh       
E(C)               :       -6.300343865418 Eh       
E(XC)              :     -107.860869928108 Eh       
DFET-embed. en.    :        0.000000000000 Eh       

---------------
SCF CONVERGENCE
---------------

  Last Energy change         ...   -2.1600e-12  Tolerance :   1.0000e-08
  Last Orbital Gradient      ...    3.3542e-07  Tolerance :   1.0000e-05
  Last Orbital Rotation      ...    7.1473e-07

             **** THE GBW FILE WAS UPDATED (opt.gbw) ****
             **** DENSITY opt.scfp WAS UPDATED ****
             **** ENERGY FILE WAS UPDATED (opt.en.tmp) ****
----------------------
UHF SPIN CONTAMINATION
----------------------

Warning: in a DFT calculation there is little theoretical justification to 
         calculate <S**2> as in Hartree-Fock theory. We will do it anyways
         but you should keep in mind that the values have only limited relevance

Expectation value of <S**2>     :     3.802865
Ideal value S*(S+1) for S=1.5   :     3.750000
Deviation                       :     0.052865

             **** THE GBW FILE WAS UPDATED (opt.gbw) ****
             **** DENSITY opt.scfp WAS UPDATED ****
----------------
ORBITAL ENERGIES
----------------
                 SPIN UP ORBITALS
  NO   OCC          E(Eh)            E(eV) 
   0   1.0000     -10.240826      -278.6670 
   1   1.0000     -10.222440      -278.1667 
   2   1.0000     -10.215814      -277.9864 
   3   1.0000     -10.212366      -277.8926 
   4   1.0000     -10.203320      -277.6465 
   5   1.0000     -10.200077      -277.5582 
   6   1.0000     -10.196948      -277.4731 
   7   1.0000     -10.196811      -277.4693 
   8   1.0000     -10.195724      -277.4397 
   9   1.0000     -10.194908      -277.4175 
  10   1.0000     -10.194758      -277.4135 
  11   1.0000     -10.193444      -277.3777 
  12   1.0000     -10.191201      -277.3167 
  13   1.0000     -10.190178      -277.2888 
  14   1.0000     -10.188774      -277.2506 
  15   1.0000     -10.187382      -277.2128 
  16   1.0000     -10.187012      -277.2027 
  17   1.0000     -10.182944      -277.0920 
  18   1.0000     -10.182536      -277.0809 
  19   1.0000     -10.182268      -277.0736 
  20   1.0000     -10.181968      -277.0654 
  21   1.0000     -10.176238      -276.9095 
  22   1.0000     -10.175936      -276.9013 
  23   1.0000      -0.875295       -23.8180 
  24   1.0000      -0.863154       -23.4876 
  25   1.0000      -0.819568       -22.3016 
  26   1.0000      -0.797748       -21.7078 
  27   1.0000      -0.796009       -21.6605 
  28   1.0000      -0.777886       -21.1674 
  29   1.0000      -0.766681       -20.8624 
  30   1.0000      -0.750832       -20.4312 
  31   1.0000      -0.736559       -20.0428 
  32   1.0000      -0.724488       -19.7143 
  33   1.0000      -0.701649       -19.0928 
  34   1.0000      -0.674633       -18.3577 
  35   1.0000      -0.653558       -17.7842 
  36   1.0000      -0.626562       -17.0496 
  37   1.0000      -0.615477       -16.7480 
  38   1.0000      -0.608673       -16.5628 
  39   1.0000      -0.596835       -16.2407 
  40   1.0000      -0.579837       -15.7782 
  41   1.0000      -0.565092       -15.3769 
  42   1.0000      -0.554157       -15.0794 
  43   1.0000      -0.534622       -14.5478 
  44   1.0000      -0.507780       -13.8174 
  45   1.0000      -0.479908       -13.0590 
  46   1.0000      -0.478749       -13.0274 
  47   1.0000      -0.471936       -12.8420 
  48   1.0000      -0.470245       -12.7960 
  49   1.0000      -0.457394       -12.4463 
  50   1.0000      -0.437407       -11.9025 
  51   1.0000      -0.435908       -11.8617 
  52   1.0000      -0.426746       -11.6123 
  53   1.0000      -0.424732       -11.5576 
  54   1.0000      -0.423953       -11.5364 
  55   1.0000      -0.423180       -11.5153 
  56   1.0000      -0.417539       -11.3618 
  57   1.0000      -0.412849       -11.2342 
  58   1.0000      -0.410303       -11.1649 
  59   1.0000      -0.385017       -10.4768 
  60   1.0000      -0.381430       -10.3792 
  61   1.0000      -0.377625       -10.2757 
  62   1.0000      -0.370429       -10.0799 
  63   1.0000      -0.366152        -9.9635 
  64   1.0000      -0.360620        -9.8130 
  65   1.0000      -0.358865        -9.7652 
  66   1.0000      -0.350179        -9.5289 
  67   1.0000      -0.346058        -9.4167 
  68   1.0000      -0.343245        -9.3402 
  69   1.0000      -0.333711        -9.0807 
  70   1.0000      -0.330419        -8.9912 
  71   1.0000      -0.327241        -8.9047 
  72   1.0000      -0.326200        -8.8764 
  73   1.0000      -0.322878        -8.7860 
  74   1.0000      -0.321758        -8.7555 
  75   1.0000      -0.321180        -8.7397 
  76   1.0000      -0.291195        -7.9238 
  77   1.0000      -0.267680        -7.2839 
  78   1.0000      -0.259166        -7.0523 
  79   1.0000      -0.249984        -6.8024 
  80   1.0000      -0.237494        -6.4625 
  81   1.0000      -0.225030        -6.1234 
  82   1.0000      -0.180595        -4.9142 
  83   0.0000      -0.041954        -1.1416 
  84   0.0000      -0.010549        -0.2871 
  85   0.0000      -0.002823        -0.0768 
  86   0.0000       0.012338         0.3357 
  87   0.0000       0.045769         1.2454 
  88   0.0000       0.054212         1.4752 
  89   0.0000       0.061260         1.6670 
  90   0.0000       0.063762         1.7351 
  91   0.0000       0.079071         2.1516 
  92   0.0000       0.083638         2.2759 
  93   0.0000       0.086787         2.3616 
  94   0.0000       0.090145         2.4530 
  95   0.0000       0.094017         2.5583 
  96   0.0000       0.094465         2.5705 
  97   0.0000       0.101343         2.7577 
  98   0.0000       0.103840         2.8256 
  99   0.0000       0.113363         3.0848 
 100   0.0000       0.126067         3.4305 
 101   0.0000       0.129699         3.5293 
 102   0.0000       0.137929         3.7532 
 103   0.0000       0.143605         3.9077 
 104   0.0000       0.143853         3.9145 
 105   0.0000       0.146288         3.9807 
 106   0.0000       0.152615         4.1529 
 107   0.0000       0.155987         4.2446 
 108   0.0000       0.158590         4.3155 
 109   0.0000       0.160961         4.3800 
 110   0.0000       0.161174         4.3858 
 111   0.0000       0.164708         4.4819 
 112   0.0000       0.172990         4.7073 
 113   0.0000       0.175939         4.7875 
 114   0.0000       0.176679         4.8077 
 115   0.0000       0.203547         5.5388 
 116   0.0000       0.207931         5.6581 
 117   0.0000       0.211353         5.7512 
 118   0.0000       0.212784         5.7901 
 119   0.0000       0.219472         5.9721 
 120   0.0000       0.223385         6.0786 
 121   0.0000       0.237516         6.4631 
 122   0.0000       0.241484         6.5711 
 123   0.0000       0.261351         7.1117 
 124   0.0000       0.269352         7.3294 
 125   0.0000       0.279455         7.6044 
 126   0.0000       0.280941         7.6448 
 127   0.0000       0.288589         7.8529 
 128   0.0000       0.294601         8.0165 
 129   0.0000       0.312447         8.5021 
 130   0.0000       0.315375         8.5818 
 131   0.0000       0.333470         9.0742 
 132   0.0000       0.346070         9.4170 
 133   0.0000       0.361333         9.8324 
 134   0.0000       0.369724        10.0607 
 135   0.0000       0.377577        10.2744 
 136   0.0000       0.405374        11.0308 
 137   0.0000       0.409258        11.1365 
 138   0.0000       0.411218        11.1898 
 139   0.0000       0.411727        11.2037 
 140   0.0000       0.418045        11.3756 
 141   0.0000       0.418365        11.3843 
 142   0.0000       0.419854        11.4248 
[...]
  1 C s       :    -0.003815  s :    -0.003815
      pz      :    -0.043956  p :    -0.057456
      px      :    -0.002773
      py      :    -0.010726
      dz2     :     0.000228  d :     0.019858
      dxz     :     0.018206
      dyz     :     0.000003
      dx2y2   :     0.000646
      dxy     :     0.000775
  2 C s       :     0.001118  s :     0.001118
      pz      :    -0.118357  p :    -0.044368
      px      :     0.077918
      py      :    -0.003929
      dz2     :     0.001413  d :     0.086299
      dxz     :     0.032697
      dyz     :     0.003190
      dx2y2   :     0.003051
      dxy     :     0.045949
  3 C s       :     0.013754  s :     0.013754
      pz      :     0.149827  p :     0.183186
      px      :     0.016476
      py      :     0.016882
      dz2     :    -0.000080  d :    -0.004804
      dxz     :    -0.004297
      dyz     :    -0.002527
      dx2y2   :     0.002903
      dxy     :    -0.000802
  4 C s       :    -0.002819  s :    -0.002819
      pz      :    -0.077551  p :    -0.080237
      px      :     0.001200
      py      :    -0.003886
      dz2     :     0.000492  d :     0.018230
      dxz     :     0.010975
      dyz     :     0.003737
      dx2y2   :     0.000686
      dxy     :     0.002340
  5 C s       :     0.006006  s :     0.006006
      pz      :     0.163474  p :     0.172440
      px      :     0.004251
      py      :     0.004715
      dz2     :    -0.000790  d :    -0.008869
      dxz     :    -0.003224
      dyz     :    -0.003407
      dx2y2   :    -0.000473
      dxy     :    -0.000974
  6 C s       :    -0.002622  s :    -0.002622
      pz      :    -0.076186  p :    -0.078200
      px      :     0.001631
      py      :    -0.003644
      dz2     :     0.000515  d :     0.016489
      dxz     :     0.010335
      dyz     :     0.003491
      dx2y2   :     0.000658
      dxy     :     0.001491
  7 C s       :     0.015377  s :     0.015377
      pz      :     0.155919  p :     0.186752
      px      :     0.017271
      py      :     0.013563
      dz2     :    -0.000030  d :    -0.005190
      dxz     :    -0.004897
      dyz     :    -0.002433
      dx2y2   :     0.002428
      dxy     :    -0.000258
  8 H s       :     0.005783  s :     0.005783
      pz      :    -0.002274  p :    -0.002563
      px      :     0.000023
      py      :    -0.000312
  9 H s       :    -0.001632  s :    -0.001632
      pz      :     0.004208  p :     0.005981
      px      :     0.000527
      py      :     0.001246
 10 C s       :    -0.000129  s :    -0.000129
      pz      :    -0.001695  p :     0.000494
      px      :     0.003679
      py      :    -0.001490
      dz2     :     0.000325  d :     0.008151
      dxz     :     0.004003
      dyz     :     0.002270
      dx2y2   :     0.000699
      dxy     :     0.000855
 11 H s       :     0.008015  s :     0.008015
      pz      :     0.000271  p :     0.000486
      px      :     0.000082
      py      :     0.000133
 12 H s       :     0.008016  s :     0.008016
      pz      :     0.000273  p :     0.000488
      px      :     0.000084
      py      :     0.000132
 13 C s       :     0.000373  s :     0.000373
      pz      :    -0.000020  p :     0.001682
      px      :     0.000871
      py      :     0.000831
      dz2     :     0.000001  d :     0.000133
      dxz     :     0.000004
      dyz     :    -0.000059
      dx2y2   :     0.000125
      dxy     :     0.000063
 14 H s       :     0.000214  s :     0.000214
      pz      :     0.000004  p :     0.000085
      px      :     0.000042
      py      :     0.000040
 15 H s       :     0.000213  s :     0.000213
      pz      :     0.000004  p :     0.000085
      px      :     0.000042
      py      :     0.000040
 16 C s       :     0.000040  s :     0.000040
      pz      :     0.000116  p :     0.000102
      px      :     0.000015
      py      :    -0.000028
      dz2     :    -0.000003  d :     0.000012
      dxz     :     0.000000
      dyz     :     0.000008
      dx2y2   :     0.000013
      dxy     :    -0.000007
 17 H s       :     0.000090  s :     0.000090
      pz      :     0.000002  p :     0.000018
      px      :     0.000007
      py      :     0.000009
 18 H s       :     0.000090  s :     0.000090
      pz      :     0.000002  p :     0.000018
      px      :     0.000007
      py      :     0.000009
 19 C s       :    -0.000013  s :    -0.000013
      pz      :    -0.000004  p :    -0.000051
      px      :    -0.000008
      py      :    -0.000039
      dz2     :    -0.000001  d :     0.000006
      dxz     :     0.000008
      dyz     :     0.000004
      dx2y2   :    -0.000005
      dxy     :     0.000001
 20 H s       :     0.000015  s :     0.000015
      pz      :     0.000001  p :    -0.000001
      px      :    -0.000001
      py      :    -0.000001
 21 H s       :     0.000015  s :     0.000015
      pz      :     0.000001  p :    -0.000001
      px      :    -0.000001
      py      :    -0.000001
 22 C s       :     0.000931  s :     0.000931
      pz      :     0.000554  p :     0.005116
      px      :     0.002154
      py      :     0.002408
      dz2     :    -0.000073  d :    -0.003567
      dxz     :    -0.002057
      dyz     :    -0.001304
      dx2y2   :    -0.000001
      dxy     :    -0.000132
 23 H s       :    -0.003144  s :    -0.003144
      pz      :     0.000036  p :     0.000211
      px      :     0.000111
      py      :     0.000065
 24 H s       :    -0.003143  s :    -0.003143
      pz      :     0.000036  p :     0.000211
      px      :     0.000111
      py      :     0.000064
 25 C s       :    -0.000037  s :    -0.000037
      pz      :     0.000276  p :     0.000054
      px      :    -0.000050
      py      :    -0.000172
      dz2     :     0.000008  d :     0.000110
      dxz     :    -0.000042
      dyz     :     0.000031
      dx2y2   :     0.000091
      dxy     :     0.000022
 26 H s       :     0.000095  s :     0.000095
      pz      :    -0.000002  p :     0.000017
      px      :     0.000014
      py      :     0.000005
 27 H s       :     0.000095  s :     0.000095
      pz      :    -0.000002  p :     0.000017
      px      :     0.000014
      py      :     0.000005
 28 C s       :     0.000033  s :     0.000033
      pz      :    -0.000063  p :    -0.000023
      px      :    -0.000003
      py      :     0.000042
      dz2     :     0.000001  d :     0.000020
      dxz     :     0.000017
      dyz     :     0.000001
      dx2y2   :    -0.000005
      dxy     :     0.000006
 29 H s       :     0.000010  s :     0.000010
      pz      :     0.000001  p :    -0.000007
      px      :    -0.000001
      py      :    -0.000007
 30 H s       :     0.000010  s :     0.000010
      pz      :     0.000001  p :    -0.000007
      px      :    -0.000001
      py      :    -0.000007
 31 C s       :     0.000002  s :     0.000002
      pz      :     0.000002  p :     0.000028
      px      :     0.000009
      py      :     0.000018
      dz2     :    -0.000001  d :    -0.000009
      dxz     :    -0.000004
      dyz     :    -0.000003
      dx2y2   :    -0.000000
      dxy     :    -0.000002
 32 H s       :    -0.000006  s :    -0.000006
      pz      :     0.000000  p :     0.000001
      px      :     0.000000
      py      :     0.000001
 33 H s       :    -0.000006  s :    -0.000006
      pz      :     0.000000  p :     0.000001
      px      :     0.000000
      py      :     0.000001
 34 C s       :     0.003421  s :     0.003421
      pz      :     0.092936  p :     0.105711
      px      :     0.001611
      py      :     0.011164
      dz2     :    -0.000385  d :    -0.004892
      dxz     :    -0.003487
      dyz     :    -0.000003
      dx2y2   :    -0.000411
      dxy     :    -0.000606
 35 H s       :    -0.000012  s :    -0.000012
      pz      :    -0.000000  p :    -0.000004
      px      :    -0.000000
      py      :    -0.000003
 36 H s       :    -0.000005  s :    -0.000005
      pz      :     0.000000  p :     0.000002
      px      :     0.000001
      py      :     0.000001
 37 C s       :    -0.001329  s :    -0.001329
      pz      :    -0.017528  p :    -0.020778
      px      :    -0.002289
      py      :    -0.000961
      dz2     :     0.000117  d :     0.007231
      dxz     :     0.005495
      dyz     :     0.000587
      dx2y2   :     0.000356
      dxy     :     0.000675
 38 C s       :     0.001086  s :     0.001086
      pz      :     0.027338  p :     0.028973
      px      :     0.000808
      py      :     0.000827
      dz2     :    -0.000113  d :    -0.001483
      dxz     :    -0.000652
      dyz     :    -0.000405
      dx2y2   :    -0.000157
      dxy     :    -0.000156
 39 C s       :    -0.000641  s :    -0.000641
      pz      :    -0.012356  p :    -0.013658
      px      :    -0.000753
      py      :    -0.000550
      dz2     :     0.000062  d :     0.002802
      dxz     :     0.001941
      dyz     :     0.000567
      dx2y2   :     0.000113
      dxy     :     0.000120
 40 C s       :     0.001041  s :     0.001041
      pz      :     0.029843  p :     0.031310
      px      :     0.000678
      py      :     0.000789
      dz2     :    -0.000130  d :    -0.001092
      dxz     :    -0.000131
      dyz     :    -0.000630
      dx2y2   :    -0.000101
      dxy     :    -0.000100
 41 C s       :    -0.000640  s :    -0.000640
      pz      :    -0.012340  p :    -0.013642
      px      :    -0.000728
      py      :    -0.000574
      dz2     :     0.000061  d :     0.002801
      dxz     :     0.001800
      dyz     :     0.000707
      dx2y2   :     0.000116
      dxy     :     0.000117
 42 C s       :     0.001085  s :     0.001085
      pz      :     0.027308  p :     0.028940
      px      :     0.000828
      py      :     0.000804
      dz2     :    -0.000113  d :    -0.001482
      dxz     :    -0.000707
      dyz     :    -0.000349
      dx2y2   :    -0.000171
      dxy     :    -0.000142
 43 H s       :    -0.000945  s :    -0.000945
      pz      :     0.000914  p :     0.001061
      px      :     0.000130
      py      :     0.000017
 44 H s       :     0.000392  s :     0.000392
      pz      :    -0.000356  p :    -0.000437
      px      :    -0.000034
      py      :    -0.000046
 45 H s       :    -0.000861  s :    -0.000861
      pz      :     0.000739  p :     0.000883
      px      :     0.000046
      py      :     0.000098
 46 H s       :    -0.000853  s :    -0.000853
      pz      :     0.000739  p :     0.000883
      px      :     0.000039
      py      :     0.000105
 47 H s       :     0.000392  s :     0.000392
      pz      :    -0.000357  p :    -0.000437
      px      :    -0.000032
      py      :    -0.000048


                      *****************************
                      * MAYER POPULATION ANALYSIS *
                      *****************************

  NA   - Mulliken gross atomic population
  ZA   - Total nuclear charge
  QA   - Mulliken gross atomic charge
  VA   - Mayer's total valence
  BVA  - Mayer's bonded valence
  FA   - Mayer's free valence

  ATOM       NA         ZA         QA         VA         BVA        FA
  0 C      6.1978     6.0000    -0.1978     3.6583     1.5751     2.0832
  1 C      5.7466     6.0000     0.2534     2.5688     2.5649     0.0039
  2 C      5.8830     6.0000     0.1170     3.9480     3.9045     0.0434
  3 C      6.0489     6.0000    -0.0489     4.1014     4.0677     0.0338
  4 C      5.9930     6.0000     0.0070     3.8998     3.8904     0.0093
  5 C      6.1731     6.0000    -0.1731     3.8328     3.7946     0.0382
  6 C      6.0727     6.0000    -0.0727     4.1533     4.1441     0.0092
  7 C      5.9649     6.0000     0.0351     3.8906     3.8556     0.0350
  8 H      1.0547     1.0000    -0.0547     1.0032     1.0031     0.0001
  9 H      1.0495     1.0000    -0.0495     1.0015     1.0014     0.0001
 10 C      5.9521     6.0000     0.0479     4.0186     4.0183     0.0003
 11 H      0.9708     1.0000     0.0292     0.9696     0.9695     0.0001
 12 H      0.9708     1.0000     0.0292     0.9696     0.9695     0.0001
 13 C      6.0367     6.0000    -0.0367     4.1172     4.1172     0.0000
 14 H      0.9832     1.0000     0.0168     0.9632     0.9632     0.0000
 15 H      0.9833     1.0000     0.0167     0.9632     0.9632     0.0000
 16 C      6.0245     6.0000    -0.0245     4.1172     4.1172     0.0000
 17 H      0.9938     1.0000     0.0062     0.9673     0.9673     0.0000
 18 H      0.9938     1.0000     0.0062     0.9673     0.9673     0.0000
 19 C      5.9974     6.0000     0.0026     4.0178     4.0178     0.0000
 20 H      0.9831     1.0000     0.0169     0.9773     0.9773     0.0000
 21 H      0.9831     1.0000     0.0169     0.9773     0.9773     0.0000
 22 C      5.9608     6.0000     0.0392     4.0298     4.0297     0.0001
 23 H      0.9683     1.0000     0.0317     0.9692     0.9692     0.0000
 24 H      0.9683     1.0000     0.0317     0.9692     0.9692     0.0000
 25 C      6.0337     6.0000    -0.0337     4.1135     4.1135     0.0000
 26 H      0.9839     1.0000     0.0161     0.9633     0.9633     0.0000
 27 H      0.9839     1.0000     0.0161     0.9633     0.9633     0.0000
 28 C      6.0252     6.0000    -0.0252     4.1186     4.1186     0.0000
 29 H      0.9947     1.0000     0.0053     0.9674     0.9674     0.0000
 30 H      0.9947     1.0000     0.0053     0.9674     0.9674     0.0000
 31 C      5.9960     6.0000     0.0040     4.0169     4.0169     0.0000
 32 H      0.9829     1.0000     0.0171     0.9773     0.9773     0.0000
 33 H      0.9829     1.0000     0.0171     0.9773     0.9773     0.0000
 34 C      5.8505     6.0000     0.1495     2.6583     2.6461     0.0122
 35 H      0.9870     1.0000     0.0130     0.9735     0.9735     0.0000
 36 H      0.9876     1.0000     0.0124     0.9734     0.9734     0.0000
 37 C      6.2517     6.0000    -0.2517     3.9281     3.9275     0.0006
 38 C      5.9693     6.0000     0.0307     3.9941     3.9931     0.0010
 39 C      5.9591     6.0000     0.0409     3.9989     3.9987     0.0002
 40 C      5.9670     6.0000     0.0330     3.9984     3.9972     0.0012
 41 C      5.9593     6.0000     0.0407     3.9986     3.9983     0.0002
 42 C      5.9719     6.0000     0.0281     3.9934     3.9924     0.0010
 43 H      1.0278     1.0000    -0.0278     0.9687     0.9687     0.0000
 44 H      1.0278     1.0000    -0.0278     0.9684     0.9684     0.0000
 45 H      1.0409     1.0000    -0.0409     0.9835     0.9835     0.0000
 46 H      1.0402     1.0000    -0.0402     0.9832     0.9831     0.0000
 47 H      1.0277     1.0000    -0.0277     0.9683     0.9683     0.0000

  Mayer bond orders larger than 0.100000
B(  0-C ,  2-C ) :   1.2831 B(  1-C ,  5-C ) :   0.9206 B(  1-C , 34-C ) :   1.7428 
B(  1-C , 37-C ) :  -0.1710 B(  2-C ,  3-C ) :   1.2595 B(  2-C ,  7-C ) :   1.2375 
B(  3-C ,  4-C ) :   1.4812 B(  3-C , 10-C ) :   1.0769 B(  4-C ,  5-C ) :   1.3441 
B(  4-C ,  8-H ) :   0.9228 B(  5-C ,  6-C ) :   1.3551 B(  6-C ,  7-C ) :   1.4900 
B(  6-C , 22-C ) :   1.0906 B(  7-C ,  9-H ) :   0.9184 B( 10-C , 11-H ) :   0.9010 
B( 10-C , 12-H ) :   0.9010 B( 10-C , 13-C ) :   1.1033 B( 13-C , 14-H ) :   0.9295 
B( 13-C , 15-H ) :   0.9295 B( 13-C , 16-C ) :   1.0749 B( 16-C , 17-H ) :   0.9413 
B( 16-C , 18-H ) :   0.9413 B( 16-C , 19-C ) :   1.1059 B( 19-C , 20-H ) :   0.9663 
B( 19-C , 21-H ) :   0.9663 B( 19-C , 35-H ) :   0.9619 B( 22-C , 23-H ) :   0.8979 
B( 22-C , 24-H ) :   0.8980 B( 22-C , 25-C ) :   1.1041 B( 25-C , 26-H ) :   0.9292 
B( 25-C , 27-H ) :   0.9292 B( 25-C , 28-C ) :   1.0752 B( 28-C , 29-H ) :   0.9411 
B( 28-C , 30-H ) :   0.9411 B( 28-C , 31-C ) :   1.1061 B( 31-C , 32-H ) :   0.9662 
B( 31-C , 33-H ) :   0.9662 B( 31-C , 36-H ) :   0.9617 B( 34-C , 37-C ) :   0.9346 
B( 37-C , 38-C ) :   1.4371 B( 37-C , 42-C ) :   1.4348 B( 38-C , 39-C ) :   1.4719 
B( 38-C , 45-H ) :   0.9402 B( 39-C , 40-C ) :   1.4427 B( 39-C , 47-H ) :   0.9379 
B( 40-C , 41-C ) :   1.4421 B( 40-C , 43-H ) :   0.9433 B( 41-C , 42-C ) :   1.4720 
B( 41-C , 44-H ) :   0.9379 B( 42-C , 46-H ) :   0.9406 

-------
TIMINGS
-------

Total SCF time: 0 days 0 hours 0 min 59 sec 

Total time                  ....      59.745 sec
Sum of individual times     ....      56.505 sec  ( 94.6%)

Fock matrix formation       ....      50.294 sec  ( 84.2%)
  Split-RI-J                ....       3.933 sec  (  7.8% of F)
  Chain of spheres X        ....      33.081 sec  ( 65.8% of F)
  XC integration            ....      10.219 sec  ( 20.3% of F)
    Basis function eval.    ....       0.987 sec  (  9.7% of XC)
    Density eval.           ....       1.124 sec  ( 11.0% of XC)
    XC-Functional eval.     ....       0.245 sec  (  2.4% of XC)
    XC-Potential eval.      ....       0.631 sec  (  6.2% of XC)
Diagonalization             ....       1.009 sec  (  1.7%)
Density matrix formation    ....       0.108 sec  (  0.2%)
Population analysis         ....       0.713 sec  (  1.2%)
Initial guess               ....       0.156 sec  (  0.3%)
Orbital Transformation      ....       0.000 sec  (  0.0%)
Orbital Orthonormalization  ....       0.115 sec  (  0.2%)
DIIS solution               ....       0.682 sec  (  1.1%)
Grid generation             ....       3.543 sec  (  5.9%)

Maximum memory used throughout the entire SCF-calculation: 116.8 MB

-------------------------   --------------------
FINAL SINGLE POINT ENERGY      -890.698191020662
-------------------------   --------------------

                                *** OPTIMIZATION RUN DONE ***

                            ***************************************
                            *     ORCA property calculations      *
                            ***************************************

                                    ---------------------
                                    Active property flags
                                    ---------------------
   (+) Dipole Moment


------------------------------------------------------------------------------
                       ORCA ELECTRIC PROPERTIES CALCULATION
------------------------------------------------------------------------------

Dipole Moment Calculation                       ... on
Quadrupole Moment Calculation                   ... off
Polarizability Calculation                      ... off
GBWName                                         ... opt.gbw
Electron density                                ... opt.scfp
The origin for moment calculation is the CENTER OF MASS  = ( 3.631700, -0.057870 -0.019270)

-------------
DIPOLE MOMENT
-------------
                                X             Y             Z
Electronic contribution:     11.10088      -0.25285      -0.00083
Nuclear contribution   :    -10.65062       0.21075       0.00090
                        -----------------------------------------
Total Dipole Moment    :      0.45026      -0.04210       0.00007
                        -----------------------------------------
Magnitude (a.u.)       :      0.45223
Magnitude (Debye)      :      1.14947



--------------------
Rotational spectrum 
--------------------
 
Rotational constants in cm-1:     0.006748     0.004694     0.002780 
Rotational constants in MHz :   202.285640   140.716091    83.331498 

 Dipole components along the rotational axes: 
x,y,z [a.u.] :     0.365194     0.266728     0.000055 
x,y,z [Debye]:     0.928249     0.677969     0.000139 

 

Timings for individual modules:

Sum of individual times         ...      479.647 sec (=   7.994 min)
GTO integral calculation        ...        9.642 sec (=   0.161 min)   2.0 %
SCF iterations                  ...      426.653 sec (=   7.111 min)  89.0 %
SCF Gradient evaluation         ...       42.823 sec (=   0.714 min)   8.9 %
Geometry relaxation             ...        0.529 sec (=   0.009 min)   0.1 %
                             ****ORCA TERMINATED NORMALLY****
TOTAL RUN TIME: 0 days 0 hours 8 minutes 7 seconds 328 msec
