
                                 *****************
                                 * O   R   C   A *
                                 *****************

                                            #,                                       
                                            ###                                      
                                            ####                                     
                                            #####                                    
                                            ######                                   
                                           ########,                                 
                                     ,,################,,,,,                         
                               ,,#################################,,                 
                          ,,##########################################,,             
                       ,#########################################, ''#####,          
                    ,#############################################,,   '####,        
                  ,##################################################,,,,####,       
                ,###########''''           ''''###############################       
              ,#####''   ,,,,##########,,,,          '''####'''          '####       
            ,##' ,,,,###########################,,,                        '##       
           ' ,,###''''                  '''############,,,                           
         ,,##''                                '''############,,,,        ,,,,,,###''
      ,#''                                            '''#######################'''  
     '                                                          ''''####''''         
             ,#######,   #######,   ,#######,      ##                                
            ,#'     '#,  ##    ##  ,#'     '#,    #''#        ######   ,####,        
            ##       ##  ##   ,#'  ##            #'  '#       #        #'  '#        
            ##       ##  #######   ##           ,######,      #####,   #    #        
            '#,     ,#'  ##    ##  '#,     ,#' ,#      #,         ##   #,  ,#        
             '#######'   ##     ##  '#######'  #'      '#     #####' # '####'        



                  #######################################################
                  #                        -***-                        #
                  #          Department of theory and spectroscopy      #
                  #    Directorship and core code : Frank Neese         #
                  #        Max Planck Institute fuer Kohlenforschung    #
                  #                Kaiser Wilhelm Platz 1               #
                  #                 D-45470 Muelheim/Ruhr               #
                  #                      Germany                        #
                  #                                                     #
                  #                  All rights reserved                #
                  #                        -***-                        #
                  #######################################################


                         Program Version 5.0.4 -  RELEASE  -


 With contributions from (in alphabetic order):
   Daniel Aravena         : Magnetic Suceptibility
   Michael Atanasov       : Ab Initio Ligand Field Theory (pilot matlab implementation)
   Alexander A. Auer      : GIAO ZORA, VPT2 properties, NMR spectrum
   Ute Becker             : Parallelization
   Giovanni Bistoni       : ED, misc. LED, open-shell LED, HFLD
   Martin Brehm           : Molecular dynamics
   Dmytro Bykov           : SCF Hessian
   Vijay G. Chilkuri      : MRCI spin determinant printing, contributions to CSF-ICE
   Dipayan Datta          : RHF DLPNO-CCSD density
   Achintya Kumar Dutta   : EOM-CC, STEOM-CC
   Dmitry Ganyushin       : Spin-Orbit,Spin-Spin,Magnetic field MRCI
   Miquel Garcia          : C-PCM and meta-GGA Hessian, CC/C-PCM, Gaussian charge scheme
   Yang Guo               : DLPNO-NEVPT2, F12-NEVPT2, CIM, IAO-localization
   Andreas Hansen         : Spin unrestricted coupled pair/coupled cluster methods
   Benjamin Helmich-Paris : MC-RPA, TRAH-SCF, COSX integrals
   Lee Huntington         : MR-EOM, pCC
   Robert Izsak           : Overlap fitted RIJCOSX, COSX-SCS-MP3, EOM
   Marcus Kettner         : VPT2
   Christian Kollmar      : KDIIS, OOCD, Brueckner-CCSD(T), CCSD density, CASPT2, CASPT2-K
   Simone Kossmann        : Meta GGA functionals, TD-DFT gradient, OOMP2, MP2 Hessian
   Martin Krupicka        : Initial AUTO-CI
   Lucas Lang             : DCDCAS
   Marvin Lechner         : AUTO-CI (C++ implementation), FIC-MRCC
   Dagmar Lenk            : GEPOL surface, SMD
   Dimitrios Liakos       : Extrapolation schemes; Compound Job, initial MDCI parallelization
   Dimitrios Manganas     : Further ROCIS development; embedding schemes
   Dimitrios Pantazis     : SARC Basis sets
   Anastasios Papadopoulos: AUTO-CI, single reference methods and gradients
   Taras Petrenko         : DFT Hessian,TD-DFT gradient, ASA, ECA, R-Raman, ABS, FL, XAS/XES, NRVS
   Peter Pinski           : DLPNO-MP2, DLPNO-MP2 Gradient
   Christoph Reimann      : Effective Core Potentials
   Marius Retegan         : Local ZFS, SOC
   Christoph Riplinger    : Optimizer, TS searches, QM/MM, DLPNO-CCSD(T), (RO)-DLPNO pert. Triples
   Tobias Risthaus        : Range-separated hybrids, TD-DFT gradient, RPA, STAB
   Michael Roemelt        : Original ROCIS implementation
   Masaaki Saitow         : Open-shell DLPNO-CCSD energy and density
   Barbara Sandhoefer     : DKH picture change effects
   Avijit Sen             : IP-ROCIS
   Kantharuban Sivalingam : CASSCF convergence, NEVPT2, FIC-MRCI
   Bernardo de Souza      : ESD, SOC TD-DFT
   Georgi Stoychev        : AutoAux, RI-MP2 NMR, DLPNO-MP2 response
   Willem Van den Heuvel  : Paramagnetic NMR
   Boris Wezisla          : Elementary symmetry handling
   Frank Wennmohs         : Technical directorship


 We gratefully acknowledge several colleagues who have allowed us to
 interface, adapt or use parts of their codes:
   Stefan Grimme, W. Hujo, H. Kruse, P. Pracht,  : VdW corrections, initial TS optimization,
                  C. Bannwarth, S. Ehlert          DFT functionals, gCP, sTDA/sTD-DF
   Ed Valeev, F. Pavosevic, A. Kumar             : LibInt (2-el integral package), F12 methods
   Garnet Chan, S. Sharma, J. Yang, R. Olivares  : DMRG
   Ulf Ekstrom                                   : XCFun DFT Library
   Mihaly Kallay                                 : mrcc  (arbitrary order and MRCC methods)
   Jiri Pittner, Ondrej Demel                    : Mk-CCSD
   Frank Weinhold                                : gennbo (NPA and NBO analysis)
   Christopher J. Cramer and Donald G. Truhlar   : smd solvation model
   Lars Goerigk                                  : TD-DFT with DH, B97 family of functionals
   V. Asgeirsson, H. Jonsson                     : NEB implementation
   FAccTs GmbH                                   : IRC, NEB, NEB-TS, DLPNO-Multilevel, CI-OPT
                                                   MM, QMMM, 2- and 3-layer-ONIOM, Crystal-QMMM,
                                                   LR-CPCM, SF, NACMEs, symmetry and pop. for TD-DFT,
                                                   nearIR, NL-DFT gradient (VV10), updates on ESD,
                                                   ML-optimized integration grids
   S Lehtola, MJT Oliveira, MAL Marques          : LibXC Library
   Liviu Ungur et al                             : ANISO software


 Your calculation uses the libint2 library for the computation of 2-el integrals
 For citations please refer to: http://libint.valeyev.net

 Your ORCA version has been built with support for libXC version: 5.1.0
 For citations please refer to: https://tddft.org/programs/libxc/

 This ORCA versions uses:
   CBLAS   interface :  Fast vector & matrix operations
   LAPACKE interface :  Fast linear algebra routines
   SCALAPACK package :  Parallel linear algebra routines
   Shared memory     :  Shared parallel matrices
   BLAS/LAPACK       :  OpenBLAS 0.3.15  USE64BITINT DYNAMIC_ARCH NO_AFFINITY SkylakeX SINGLE_THREADED
        Core in use  :  SkylakeX
   Copyright (c) 2011-2014, The OpenBLAS Project




***************************************
The coordinates will be read from file: model.xyz
***************************************


================================================================================

----- Orbital basis set information -----
Your calculation utilizes the basis: cc-pVDZ 
       H, B-Ne : Obtained from the ccRepo (grant-hill.group.shef.ac.uk/ccrepo) Feb. 2017
                 T. H. Dunning, Jr., J. Chem. Phys. 90, 1007 (1989)
            He : Obtained from the ccRepo (grant-hill.group.shef.ac.uk/ccrepo) Feb. 2017
                 D. E. Woon, T. H. Dunning, Jr., J. Chem. Phys. 100, 2975 (1994)
  Li-Be, Na-Mg : Obtained from the ccRepo (grant-hill.group.shef.ac.uk/ccrepo) Feb. 2017
                 B. P. Prascher, D. E. Woon, K. A. Peterson, T. H. Dunning, Jr., A. K. Wilson, Theor. Chem. Acc. 128, 69 (2011)
         Al-Ar : Obtained from the ccRepo (grant-hill.group.shef.ac.uk/ccrepo) Feb. 2017
                 D. E. Woon, T. H. Dunning, Jr., J. Chem. Phys. 98, 1358 (1993)
            Ca : Obtained from the Peterson Research Group Website (tyr0.chem.wsu.edu/~kipeters) Feb. 2017
                 J. Koput, K. A. Peterson, J. Phys. Chem. 106, 9595 (2002)
         Sc-Zn : Obtained from the ccRepo (grant-hill.group.shef.ac.uk/ccrepo) Feb. 2017
                 N. B. Balabanov, K. A. Peterson, J. Chem. Phys. 123, 064107 (2005)
                 N. B. Balabanov, K. A. Peterson, J. Chem. Phys. 125, 074110 (2006)
         Ga-Kr : Obtained from the ccRepo (grant-hill.group.shef.ac.uk/ccrepo) Feb. 2017
                 A. K. Wilson, D. E. Woon, K. A. Peterson, T. H. Dunning, Jr., J. Chem. Phys. 110, 7667 (1999)

----- AuxJ basis set information -----
Your calculation utilizes the auxiliary basis: def2/J
   F. Weigend, Phys. Chem. Chem. Phys. 8, 1057 (2006).

================================================================================
                                        WARNINGS
                       Please study these warnings very carefully!
================================================================================

WARNING: Old DensityContainer found on disk!
         Will remove this file - 
         If you want to keep old densities, please start your calculation with a different basename. 


WARNING: your system is open-shell and RHF/RKS was chosen
  ===> : WILL SWITCH to UHF/UKS


WARNING: Geometry Optimization
  ===> : Switching off AutoStart
         For restart on a previous wavefunction, please use MOREAD

INFO   : the flag for use of the SHARK integral package has been found!

================================================================================
                                       INPUT FILE
================================================================================
NAME = opt.inp
|  1> ! B3LYP cc-pVDZ OPT
|  2> %pal nprocs 16 end
|  3> *XYZFile 0 2 model.xyz
|  4> 
|  5>                          ****END OF INPUT****
================================================================================

                       *****************************
                       * Geometry Optimization Run *
                       *****************************

Geometry optimization settings:
Update method            Update   .... BFGS
Choice of coordinates    CoordSys .... Z-matrix Internals
Initial Hessian          InHess   .... Almoef's Model

Convergence Tolerances:
Energy Change            TolE     ....  5.0000e-06 Eh
Max. Gradient            TolMAXG  ....  3.0000e-04 Eh/bohr
RMS Gradient             TolRMSG  ....  1.0000e-04 Eh/bohr
Max. Displacement        TolMAXD  ....  4.0000e-03 bohr
RMS Displacement         TolRMSD  ....  2.0000e-03 bohr
Strict Convergence                ....  False
------------------------------------------------------------------------------
                        ORCA OPTIMIZATION COORDINATE SETUP
------------------------------------------------------------------------------

The optimization will be done in new redundant internal coordinates
Making redundant internal coordinates   ...  (new redundants) done
Evaluating the initial hessian          ...  (Almloef) done
Evaluating the coordinates              ...  done
Calculating the B-matrix                .... done
Calculating the G-matrix                .... done
Diagonalizing the G-matrix              .... done
Small eigenvalue found = 7.053e-04
Small eigenvalue found = 1.992e-03
Small eigenvalue found = 7.329e-03
Small eigenvalue found = 9.505e-03
Small eigenvalue found = 1.951e-02
Small eigenvalue found = 2.289e-02
Small eigenvalue found = 2.379e-02
Small eigenvalue found = 2.892e-02
Small eigenvalue found = 2.982e-02
The first mode is                       ....  117
The number of degrees of freedom        ....  138

    -----------------------------------------------------------------
                    Redundant Internal Coordinates


    -----------------------------------------------------------------
         Definition                    Initial Value    Approx d2E/dq
    -----------------------------------------------------------------
      1. B(C   2,C   0)                  1.4120         0.576291   
      2. B(C   3,C   2)                  1.4393         0.521362   
      3. B(C   4,C   3)                  1.3869         0.631970   
      4. B(C   5,C   4)                  1.4186         0.562501   
      5. B(C   5,C   1)                  1.4204         0.558754   
      6. B(C   6,C   5)                  1.4286         0.542122   
      7. B(C   7,C   2)                  1.4295         0.540369   
      8. B(C   7,C   6)                  1.3870         0.631759   
      9. B(H   8,C   4)                  1.0905         0.359441   
     10. B(H   9,C   7)                  1.0892         0.361204   
     11. B(C  10,C   3)                  1.5132         0.397311   
     12. B(H  11,C  10)                  1.1070         0.338315   
     13. B(H  12,C  10)                  1.1070         0.338311   
     14. B(C  13,C  10)                  1.5308         0.372532   
     15. B(H  14,C  13)                  1.1060         0.339497   
     16. B(H  15,C  13)                  1.1060         0.339501   
     17. B(C  16,C  13)                  1.5331         0.369382   
     18. B(H  17,C  16)                  1.1063         0.339210   
     19. B(H  18,C  16)                  1.1063         0.339214   
     20. B(C  19,C  16)                  1.5303         0.373182   
     21. B(H  20,C  19)                  1.1040         0.342084   
     22. B(H  21,C  19)                  1.1040         0.342078   
     23. B(C  22,C   6)                  1.5172         0.391596   
     24. B(H  23,C  22)                  1.1061         0.339445   
     25. B(H  24,C  22)                  1.1061         0.339443   
     26. B(C  25,C  22)                  1.5305         0.372901   
     27. B(H  26,C  25)                  1.1061         0.339473   
     28. B(H  27,C  25)                  1.1061         0.339470   
     29. B(C  28,C  25)                  1.5331         0.369332   
     30. B(H  29,C  28)                  1.1063         0.339148   
     31. B(H  30,C  28)                  1.1063         0.339147   
     32. B(C  31,C  28)                  1.5303         0.373166   
     33. B(H  32,C  31)                  1.1040         0.342096   
     34. B(H  33,C  31)                  1.1040         0.342101   
     35. B(C  34,C   1)                  1.2246         1.147233   
     36. B(H  35,C  19)                  1.1019         0.344640   
     37. B(H  36,C  31)                  1.1020         0.344611   
     38. B(C  37,C  34)                  1.4261         0.547172   
     39. B(C  38,C  37)                  1.4129         0.574471   
     40. B(C  39,C  38)                  1.3941         0.615370   
     41. B(C  40,C  39)                  1.3997         0.602905   
     42. B(C  41,C  40)                  1.3998         0.602789   
     43. B(C  42,C  41)                  1.3941         0.615503   
     44. B(C  42,C  37)                  1.4130         0.574218   
     45. B(H  43,C  40)                  1.0928         0.356404   
     46. B(H  44,C  41)                  1.0927         0.356542   
     47. B(H  45,C  38)                  1.0916         0.357969   
     48. B(H  46,C  42)                  1.0917         0.357795   
     49. B(H  47,C  39)                  1.0928         0.356444   
     50. L(C   5,C   1,C  34,C   4, 1) 179.4961         0.476409   
     51. L(C   5,C   1,C  34,C   4, 2) 179.8364         0.476409   
     52. A(C   3,C   2,C   7)          119.9287         0.410630   
     53. A(C   0,C   2,C   7)          119.7263         0.418006   
     54. A(C   0,C   2,C   3)          120.3451         0.415350   
     55. A(C   2,C   3,C  10)          119.2805         0.389004   
     56. A(C   2,C   3,C   4)          117.2081         0.422234   
     57. A(C   4,C   3,C  10)          123.5114         0.402357   
     58. A(C   3,C   4,C   5)          122.8832         0.428012   
     59. A(C   3,C   4,H   8)          119.6433         0.353944   
     60. A(C   5,C   4,H   8)          117.4736         0.347052   
     61. A(C   4,C   5,C   6)          119.9368         0.416447   
     62. A(C   1,C   5,C   4)          119.1196         0.418694   
     63. A(C   1,C   5,C   6)          120.9435         0.415952   
     64. A(C   5,C   6,C   7)          117.9475         0.425167   
     65. A(C   5,C   6,C  22)          119.4367         0.390676   
     66. A(C   7,C   6,C  22)          122.6158         0.401308   
     67. A(C   6,C   7,H   9)          120.4184         0.354217   
     68. A(C   2,C   7,H   9)          117.4858         0.345001   
     69. A(C   2,C   7,C   6)          122.0958         0.424920   
     70. A(H  12,C  10,C  13)          109.2509         0.320871   
     71. A(C   3,C  10,C  13)          116.9406         0.367028   
     72. A(C   3,C  10,H  12)          108.0015         0.324275   
     73. A(H  11,C  10,C  13)          109.2533         0.320872   
     74. A(C   3,C  10,H  11)          108.0042         0.324276   
     75. A(H  11,C  10,H  12)          104.6926         0.285217   
     76. A(H  15,C  13,C  16)          109.0562         0.320610   
     77. A(H  14,C  13,C  16)          109.0608         0.320609   
     78. A(C  10,C  13,C  16)          112.7038         0.362479   
     79. A(H  14,C  13,H  15)          106.2622         0.285528   
     80. A(C  10,C  13,H  15)          109.7733         0.321055   
     81. A(C  10,C  13,H  14)          109.7750         0.321055   
     82. A(H  17,C  16,H  18)          105.8812         0.285453   
     83. A(C  13,C  16,H  18)          109.2269         0.320565   
     84. A(C  13,C  16,H  17)          109.2270         0.320565   
     85. A(H  18,C  16,C  19)          109.5532         0.321103   
     86. A(H  17,C  16,C  19)          109.5530         0.321102   
     87. A(C  13,C  16,C  19)          113.1415         0.362586   
     88. A(C  16,C  19,H  35)          111.4888         0.321938   
     89. A(H  20,C  19,H  21)          107.3598         0.286203   
     90. A(C  16,C  19,H  21)          111.3056         0.321545   
     91. A(C  16,C  19,H  20)          111.3060         0.321546   
     92. A(H  21,C  19,H  35)          107.5856         0.286536   
     93. A(H  20,C  19,H  35)          107.5868         0.286537   
     94. A(H  24,C  22,C  25)          109.2369         0.321098   
     95. A(H  23,C  22,C  25)          109.2409         0.321099   
     96. A(C   6,C  22,C  25)          116.9398         0.366179   
     97. A(H  23,C  22,H  24)          104.5995         0.285514   
     98. A(C   6,C  22,H  24)          108.0564         0.323682   
     99. A(C   6,C  22,H  23)          108.0590         0.323683   
    100. A(H  27,C  25,C  28)          109.0300         0.320598   
    101. A(H  26,C  25,C  28)          109.0242         0.320598   
    102. A(C  22,C  25,C  28)          112.6492         0.362531   
    103. A(H  26,C  25,H  27)          106.2359         0.285521   
    104. A(C  22,C  25,H  27)          109.8475         0.321103   
    105. A(C  22,C  25,H  26)          109.8449         0.321103   
    106. A(H  30,C  28,C  31)          109.5479         0.321090   
    107. A(H  29,C  28,C  31)          109.5478         0.321090   
    108. A(C  25,C  28,C  31)          113.1602         0.362575   
    109. A(H  29,C  28,H  30)          105.8872         0.285436   
    110. A(C  25,C  28,H  30)          109.2195         0.320548   
    111. A(C  25,C  28,H  29)          109.2194         0.320548   
    112. A(H  32,C  31,H  33)          107.3538         0.286208   
    113. A(C  28,C  31,H  33)          111.3017         0.321546   
    114. A(C  28,C  31,H  32)          111.3013         0.321545   
    115. A(H  33,C  31,H  36)          107.5865         0.286535   
    116. A(H  32,C  31,H  36)          107.5854         0.286534   
    117. A(C  28,C  31,H  36)          111.5033         0.321931   
    118. L(C   1,C  34,C  37,C  42, 2) 179.8569         0.474576   
    119. L(C   1,C  34,C  37,C  42, 1) 179.9665         0.474576   
    120. A(C  38,C  37,C  42)          118.7028         0.422322   
    121. A(C  34,C  37,C  42)          120.6370         0.418670   
    122. A(C  34,C  37,C  38)          120.6602         0.418702   
    123. A(C  39,C  38,H  45)          120.4821         0.352108   
    124. A(C  37,C  38,H  45)          119.1005         0.348044   
    125. A(C  37,C  38,C  39)          120.4174         0.427585   
    126. A(C  40,C  39,H  47)          120.0101         0.350639   
    127. A(C  38,C  39,H  47)          119.6005         0.351854   
    128. A(C  38,C  39,C  40)          120.3894         0.431308   
    129. A(C  41,C  40,H  43)          120.1739         0.350621   
    130. A(C  39,C  40,H  43)          120.1409         0.350633   
    131. A(C  39,C  40,C  41)          119.6852         0.429711   
    132. A(C  42,C  41,H  44)          119.5965         0.351883   
    133. A(C  40,C  41,H  44)          120.0449         0.350644   
    134. A(C  40,C  41,C  42)          120.3586         0.431310   
    135. A(C  41,C  42,H  46)          120.4628         0.352092   
    136. A(C  37,C  42,H  46)          119.0905         0.347990   
    137. A(C  37,C  42,C  41)          120.4467         0.427568   
    138. D(C  10,C   3,C   2,C   7)    179.9939         0.018539   
    139. D(C   4,C   3,C   2,C   7)     -0.0030         0.018539   
    140. D(C   4,C   3,C   2,C   0)    179.9982         0.018539   
    141. D(C  10,C   3,C   2,C   0)     -0.0050         0.018539   
    142. D(C   5,C   4,C   3,C  10)   -179.9951         0.027703   
    143. D(H   8,C   4,C   3,C  10)      0.0039         0.027703   
    144. D(H   8,C   4,C   3,C   2)   -179.9994         0.027703   
    145. D(C   5,C   4,C   3,C   2)      0.0016         0.027703   
    146. D(C   1,C   5,C   4,H   8)      0.0016         0.021681   
    147. D(C   6,C   5,C   4,H   8)   -179.9960         0.021681   
    148. D(C   6,C   5,C   4,C   3)      0.0030         0.021681   
    149. D(C   1,C   5,C   4,C   3)   -179.9994         0.021681   
    150. D(C   7,C   6,C   5,C   4)     -0.0063         0.020086   
    151. D(C  22,C   6,C   5,C   1)      0.0055         0.020086   
    152. D(C   7,C   6,C   5,C   1)    179.9962         0.020086   
    153. D(C  22,C   6,C   5,C   4)   -179.9970         0.020086   
    154. D(H   9,C   7,C   6,C  22)     -0.0048         0.027683   
    155. D(C   2,C   7,C   6,C  22)    179.9954         0.027683   
    156. D(C   2,C   7,C   6,C   5)      0.0050         0.027683   
    157. D(H   9,C   7,C   6,C   5)   -179.9953         0.027683   
    158. D(C   6,C   7,C   2,C   3)     -0.0004         0.019953   
    159. D(C   6,C   7,C   2,C   0)    179.9985         0.019953   
    160. D(H   9,C   7,C   2,C   3)    179.9999         0.019953   
    161. D(H   9,C   7,C   2,C   0)     -0.0013         0.019953   
    162. D(C  13,C  10,C   3,C   4)      0.0133         0.011722   
    163. D(C  13,C  10,C   3,C   2)   -179.9834         0.011722   
    164. D(H  12,C  10,C   3,C   4)    123.6567         0.011722   
    165. D(H  11,C  10,C   3,C   4)   -123.6357         0.011722   
    166. D(H  12,C  10,C   3,C   2)    -56.3399         0.011722   
    167. D(H  11,C  10,C   3,C   2)     56.3676         0.011722   
    168. D(H  14,C  13,C  10,C   3)    -58.2299         0.011085   
    169. D(C  16,C  13,C  10,H  11)    -56.9978         0.011085   
    170. D(C  16,C  13,C  10,C   3)    179.9935         0.011085   
    171. D(H  15,C  13,C  10,H  12)    -64.7789         0.011085   
    172. D(H  15,C  13,C  10,H  11)   -178.7673         0.011085   
    173. D(H  15,C  13,C  10,C   3)     58.2240         0.011085   
    174. D(H  14,C  13,C  10,H  12)    178.7672         0.011085   
    175. D(C  16,C  13,C  10,H  12)     56.9906         0.011085   
    176. D(H  14,C  13,C  10,H  11)     64.7788         0.011085   
    177. D(C  19,C  16,C  13,H  15)    -57.8143         0.010910   
    178. D(C  19,C  16,C  13,C  10)   -179.9888         0.010910   
    179. D(H  18,C  16,C  13,H  15)    179.8738         0.010910   
    180. D(H  18,C  16,C  13,H  14)    -64.4805         0.010910   
    181. D(H  18,C  16,C  13,C  10)     57.6994         0.010910   
    182. D(H  17,C  16,C  13,H  15)     64.4973         0.010910   
    183. D(C  19,C  16,C  13,H  14)     57.8314         0.010910   
    184. D(H  17,C  16,C  13,H  14)   -179.8569         0.010910   
    185. D(H  17,C  16,C  13,C  10)    -57.6771         0.010910   
    186. D(H  35,C  19,C  16,H  18)    -57.8641         0.011122   
    187. D(H  35,C  19,C  16,H  17)     57.8767         0.011122   
    188. D(H  35,C  19,C  16,C  13)   -179.9937         0.011122   
    189. D(H  21,C  19,C  16,H  18)     62.2720         0.011122   
    190. D(H  21,C  19,C  16,H  17)    178.0128         0.011122   
    191. D(H  21,C  19,C  16,C  13)    -59.8577         0.011122   
    192. D(H  20,C  19,C  16,H  18)   -178.0020         0.011122   
    193. D(H  20,C  19,C  16,H  17)    -62.2612         0.011122   
    194. D(H  20,C  19,C  16,C  13)     59.8684         0.011122   
    195. D(C  25,C  22,C   6,C   5)    179.9943         0.011404   
    196. D(H  24,C  22,C   6,C   7)   -123.6657         0.011404   
    197. D(H  24,C  22,C   6,C   5)     56.3246         0.011404   
    198. D(H  23,C  22,C   6,C   5)    -56.3286         0.011404   
    199. D(C  25,C  22,C   6,C   7)      0.0040         0.011404   
    200. D(H  23,C  22,C   6,C   7)    123.6811         0.011404   
    201. D(C  28,C  25,C  22,H  24)    -56.9339         0.011106   
    202. D(C  28,C  25,C  22,C   6)   -179.9987         0.011106   
    203. D(H  27,C  25,C  22,H  24)   -178.6856         0.011106   
    204. D(H  27,C  25,C  22,H  23)    -64.8219         0.011106   
    205. D(H  27,C  25,C  22,C   6)     58.2496         0.011106   
    206. D(H  26,C  25,C  22,H  24)     64.8085         0.011106   
    207. D(C  28,C  25,C  22,H  23)     56.9298         0.011106   
    208. D(H  26,C  25,C  22,H  23)    178.6722         0.011106   
    209. D(H  26,C  25,C  22,C   6)    -58.2563         0.011106   
    210. D(C  31,C  28,C  25,H  27)    -57.8023         0.010907   
    211. D(C  31,C  28,C  25,H  26)     57.7777         0.010907   
    212. D(C  31,C  28,C  25,C  22)    179.9840         0.010907   
    213. D(H  30,C  28,C  25,H  27)    179.8853         0.010907   
    214. D(H  30,C  28,C  25,H  26)    -64.5347         0.010907   
    215. D(H  30,C  28,C  25,C  22)     57.6716         0.010907   
    216. D(H  29,C  28,C  25,H  27)     64.5100         0.010907   
    217. D(H  29,C  28,C  25,H  26)   -179.9101         0.010907   
    218. D(H  29,C  28,C  25,C  22)    -57.7037         0.010907   
    219. D(H  36,C  31,C  28,H  30)    -57.8792         0.011121   
    220. D(H  36,C  31,C  28,H  29)     57.8628         0.011121   
    221. D(H  36,C  31,C  28,C  25)    179.9917         0.011121   
    222. D(H  33,C  31,C  28,H  30)     62.2652         0.011121   
    223. D(H  33,C  31,C  28,H  29)    178.0073         0.011121   
    224. D(H  33,C  31,C  28,C  25)    -59.8638         0.011121   
    225. D(H  32,C  31,C  28,H  30)   -178.0220         0.011121   
    226. D(H  32,C  31,C  28,H  29)    -62.2799         0.011121   
    227. D(H  32,C  31,C  28,C  25)     59.8490         0.011121   
    228. D(C  42,C  37,C   5,C   6)      0.3316         0.001500   
    229. D(C  42,C  37,C   5,C   4)   -179.7006         0.001500   
    230. D(C  38,C  37,C   5,C   6)   -179.6873         0.001500   
    231. D(C  38,C  37,C   5,C   4)      0.2805         0.001500   
    232. D(H  45,C  38,C  37,C  42)   -179.9878         0.022654   
    233. D(H  45,C  38,C  37,C  34)      0.0104         0.022654   
    234. D(C  39,C  38,C  37,C  42)      0.0037         0.022654   
    235. D(C  39,C  38,C  37,C  34)   -179.9981         0.022654   
    236. D(H  47,C  39,C  38,H  45)     -0.0026         0.026180   
    237. D(H  47,C  39,C  38,C  37)   -179.9939         0.026180   
    238. D(C  40,C  39,C  38,H  45)    179.9903         0.026180   
    239. D(C  40,C  39,C  38,C  37)     -0.0010         0.026180   
    240. D(H  43,C  40,C  39,H  47)     -0.0096         0.025072   
    241. D(H  43,C  40,C  39,C  38)    179.9975         0.025072   
    242. D(C  41,C  40,C  39,H  47)    179.9922         0.025072   
    243. D(C  41,C  40,C  39,C  38)     -0.0007         0.025072   
    244. D(H  44,C  41,C  40,H  43)     -0.0048         0.025061   
    245. D(H  44,C  41,C  40,C  39)    179.9934         0.025061   
    246. D(C  42,C  41,C  40,H  43)   -179.9985         0.025061   
    247. D(C  42,C  41,C  40,C  39)     -0.0003         0.025061   
    248. D(H  46,C  42,C  41,H  44)     -0.0029         0.026192   
    249. D(H  46,C  42,C  41,C  40)    179.9908         0.026192   
    250. D(C  37,C  42,C  41,H  44)   -179.9908         0.026192   
    251. D(C  37,C  42,C  41,C  40)      0.0030         0.026192   
    252. D(H  46,C  42,C  37,C  38)   -179.9926         0.022633   
    253. D(H  46,C  42,C  37,C  34)      0.0092         0.022633   
    254. D(C  41,C  42,C  37,C  38)     -0.0046         0.022633   
    255. D(C  41,C  42,C  37,C  34)    179.9972         0.022633   
    -----------------------------------------------------------------

Number of atoms                         .... 48
Number of degrees of freedom            .... 255

         *************************************************************
         *                GEOMETRY OPTIMIZATION CYCLE   1            *
         *************************************************************
---------------------------------
CARTESIAN COORDINATES (ANGSTROEM)
---------------------------------
  C     -2.831396    0.021105   -0.012642
  C      2.816857   -0.008329   -0.008943
  C     -1.419538    0.001261   -0.011722
  C     -0.709937   -1.250915   -0.014244
  C      0.675807   -1.194488   -0.013199
  C      1.396890    0.027161   -0.009776
  C      0.693139    1.270435   -0.007169
  C     -0.693327    1.232572   -0.008242
  H      1.253281   -2.119533   -0.015037
  H     -1.270220    2.156410   -0.006421
  C     -1.493370   -2.545554   -0.017776
  H     -2.168844   -2.534335   -0.894719
  H     -2.170258   -2.538203    0.858122
  C     -0.684914   -3.845409   -0.019953
  H     -0.021185   -3.871791   -0.904310
  H     -0.022639   -3.875623    0.865366
  C     -1.573350   -5.094802   -0.023316
  H     -2.240313   -5.069926    0.858937
  H     -2.238686   -5.066329   -0.906684
  C     -0.775094   -6.400390   -0.025238
  H     -0.126178   -6.475107    0.864749
  H     -0.124397   -6.471391   -0.914234
  C      1.475709    2.570201   -0.003587
  H      2.151562    2.561099    0.871942
  H      2.152587    2.565252   -0.878360
  C      0.664476    3.868006   -0.001046
  H      0.001883    3.898365   -0.886151
  H      0.000628    3.894170    0.883255
  C      1.551315    5.118577    0.002456
  H      2.216719    5.090697    0.885857
  H      2.218237    5.094567   -0.879915
  C      0.751789    6.423401    0.004629
  H      0.100998    6.493490    0.893612
  H      0.102721    6.497515   -0.885281
  C      4.040740   -0.049685   -0.010049
  H     -1.439320   -7.279640   -0.027752
  H      1.414954    7.303479    0.007274
  C      5.466067   -0.097029   -0.009572
  C      6.145809   -1.335591   -0.018815
  C      7.539362   -1.375968   -0.018263
  C      8.282105   -0.189619   -0.008565
  C      7.619225    1.043198    0.000607
  C      6.226076    1.094106    0.000117
  H      9.374307   -0.226006   -0.008129
  H      8.193231    1.972960    0.008310
  H      5.565057   -2.259870   -0.026531
  H      5.707313    2.054702    0.007413
  H      8.051398   -2.341332   -0.025579

----------------------------
CARTESIAN COORDINATES (A.U.)
----------------------------
  NO LB      ZA    FRAG     MASS         X           Y           Z
   0 C     6.0000    0    12.011   -5.350563    0.039882   -0.023890
   1 C     6.0000    0    12.011    5.323088   -0.015739   -0.016900
   2 C     6.0000    0    12.011   -2.682537    0.002383   -0.022152
   3 C     6.0000    0    12.011   -1.341587   -2.363887   -0.026917
   4 C     6.0000    0    12.011    1.277090   -2.257256   -0.024942
   5 C     6.0000    0    12.011    2.639739    0.051327   -0.018473
   6 C     6.0000    0    12.011    1.309842    2.400774   -0.013548
   7 C     6.0000    0    12.011   -1.310199    2.329224   -0.015575
   8 H     1.0000    0     1.008    2.368358   -4.005336   -0.028416
   9 H     1.0000    0     1.008   -2.400368    4.075024   -0.012134
  10 C     6.0000    0    12.011   -2.822059   -4.810400   -0.033591
  11 H     1.0000    0     1.008   -4.098521   -4.789200   -1.690774
  12 H     1.0000    0     1.008   -4.101194   -4.796508    1.621615
  13 C     6.0000    0    12.011   -1.294300   -7.266770   -0.037706
  14 H     1.0000    0     1.008   -0.040034   -7.316625   -1.708898
  15 H     1.0000    0     1.008   -0.042781   -7.323867    1.635305
  16 C     6.0000    0    12.011   -2.973200   -9.627780   -0.044060
  17 H     1.0000    0     1.008   -4.233577   -9.580771    1.623156
  18 H     1.0000    0     1.008   -4.230503   -9.573974   -1.713384
  19 C     6.0000    0    12.011   -1.464716  -12.094984   -0.047693
  20 H     1.0000    0     1.008   -0.238442  -12.236179    1.634139
  21 H     1.0000    0     1.008   -0.235076  -12.229156   -1.727652
  22 C     6.0000    0    12.011    2.788687    4.856976   -0.006779
  23 H     1.0000    0     1.008    4.065863    4.839776    1.647731
  24 H     1.0000    0     1.008    4.067800    4.847624   -1.659861
  25 C     6.0000    0    12.011    1.255677    7.309471   -0.001976
  26 H     1.0000    0     1.008    0.003559    7.366842   -1.674583
  27 H     1.0000    0     1.008    0.001187    7.358915    1.669110
  28 C     6.0000    0    12.011    2.931560    9.672708    0.004641
  29 H     1.0000    0     1.008    4.188991    9.620024    1.674028
  30 H     1.0000    0     1.008    4.191860    9.627336   -1.662799
  31 C     6.0000    0    12.011    1.420675   12.138469    0.008747
  32 H     1.0000    0     1.008    0.190858   12.270918    1.688682
  33 H     1.0000    0     1.008    0.194114   12.278524   -1.672939
  34 C     6.0000    0    12.011    7.635892   -0.093891   -0.018989
  35 H     1.0000    0     1.008   -2.719921  -13.756526   -0.052444
  36 H     1.0000    0     1.008    2.673876   13.801576    0.013747
  37 C     6.0000    0    12.011   10.329369   -0.183357   -0.018088
  38 C     6.0000    0    12.011   11.613895   -2.523901   -0.035555
  39 C     6.0000    0    12.011   14.247330   -2.600202   -0.034512
  40 C     6.0000    0    12.011   15.650910   -0.358327   -0.016186
  41 C     6.0000    0    12.011   14.398249    1.971359    0.001146
  42 C     6.0000    0    12.011   11.765578    2.067561    0.000221
  43 H     1.0000    0     1.008   17.714872   -0.427089   -0.015362
  44 H     1.0000    0     1.008   15.482963    3.728355    0.015704
  45 H     1.0000    0     1.008   10.516433   -4.270536   -0.050135
  46 H     1.0000    0     1.008   10.785258    3.882825    0.014008
  47 H     1.0000    0     1.008   15.214938   -4.424477   -0.048337

--------------------------------
INTERNAL COORDINATES (ANGSTROEM)
--------------------------------
 C      0   0   0     0.000000000000     0.00000000     0.00000000
 C      1   0   0     5.648330698726     0.00000000     0.00000000
 C      1   2   0     1.411998155058     0.50666401     0.00000000
 C      3   1   2     1.439265238987   120.34506492   180.11525328
 C      4   3   1     1.386892516390   117.20805508   179.99815785
 C      5   4   3     1.418590951929   122.88316377     0.00000000
 C      6   5   4     1.428636181607   119.93684586     0.00000000
 C      7   6   5     1.386983247305   117.94748895     0.00000000
 H      5   4   3     1.090498800567   119.64325441   180.00063637
 H      8   7   6     1.089166457213   120.41842159   180.00474429
 C      4   3   1     1.513231475843   119.28053488     0.00000000
 H     11   4   3     1.106987508797   108.00424591    56.36764294
 H     11   4   3     1.106990643288   108.00146328   303.66007050
 C     11   4   3     1.530760567701   116.94058367   180.01664009
 H     14  11   4     1.106037532979   109.77497291   301.77011026
 H     14  11   4     1.106034555860   109.77330951    58.22398988
 C     14  11   4     1.533072214958   112.70380937   179.99354042
 H     17  14  11     1.106267694029   109.22695743   302.32287452
 H     17  14  11     1.106265076622   109.22690582    57.69935743
 C     17  14  11     1.530286265789   113.14147319   180.01120664
 H     20  17  14     1.103971126313   111.30604116    59.86838975
 H     20  17  14     1.103975798295   111.30559393   300.14232406
 C      7   6   5     1.517175734789   119.43668219   180.00300853
 H     23   7   6     1.106079208349   108.05897315   303.67141167
 H     23   7   6     1.106081076661   108.05642477    56.32459193
 C     23   7   6     1.530491205541   116.93984404   179.99430067
 H     26  23   7     1.106056894112   109.84494530   301.74373779
 H     26  23   7     1.106059098801   109.84747607    58.24961568
 C     26  23   7     1.533109055252   112.64915645   180.00128704
 H     29  26  23     1.106317372256   109.21938842   302.29627641
 H     29  26  23     1.106318287020   109.21945528    57.67163942
 C     29  26  23     1.530298343723   113.16015569   179.98402264
 H     32  29  26     1.103962174995   111.30133303    59.84898940
 H     32  29  26     1.103957561531   111.30172752   300.13620156
 C      2   1   3     1.224582569050   178.36080690     3.09821264
 H     20  17  14     1.101945046938   111.48883747   180.00626336
 H     32  29  26     1.101967582314   111.50329200   179.99173226
 C     35   2   6     1.426112432090   179.92185727   235.48856427
 C     38  35   2     1.412859371801   120.66022253   115.34492517
 C     39  38  35     1.394138396725   120.41739421   180.00187943
 C     40  39  38     1.399708745254   120.38935887     0.00000000
 C     41  40  39     1.399760975235   119.68520088     0.00000000
 C     42  41  40     1.394079192387   120.35857571     0.00000000
 H     41  40  39     1.092808000278   120.14085465   179.99754521
 H     42  41  40     1.092702759860   120.04494867   179.99343368
 H     39  38  35     1.091615977910   119.10052992     0.00000000
 H     43  42  41     1.091747889528   120.46280318   179.99080512
 H     40  39  38     1.092777911114   119.60050405   180.00605972

---------------------------
INTERNAL COORDINATES (A.U.)
---------------------------
 C      0   0   0     0.000000000000     0.00000000     0.00000000
 C      1   0   0    10.673798134413     0.00000000     0.00000000
 C      1   2   0     2.668289814661     0.50666401     0.00000000
 C      3   1   2     2.719817135757   120.34506492   180.11525328
 C      4   3   1     2.620847033161   117.20805508   179.99815785
 C      5   4   3     2.680748395204   122.88316377     0.00000000
 C      6   5   4     2.699731128249   119.93684586     0.00000000
 C      7   6   5     2.621018489743   117.94748895     0.00000000
 H      5   4   3     2.060744082442   119.64325441   180.00063637
 H      8   7   6     2.058226318387   120.41842159   180.00474429
 C      4   3   1     2.859593066574   119.28053488     0.00000000
 H     11   4   3     2.091903225298   108.00424591    56.36764294
 H     11   4   3     2.091909148628   108.00146328   303.66007050
 C     11   4   3     2.892718249561   116.94058367   180.01664009
 H     14  11   4     2.090108031168   109.77497291   301.77011026
 H     14  11   4     2.090102405229   109.77330951    58.22398988
 C     14  11   4     2.897086629795   112.70380937   179.99354042
 H     17  14  11     2.090542972520   109.22695743   302.32287452
 H     17  14  11     2.090538026337   109.22690582    57.69935743
 C     17  14  11     2.891821948842   113.14147319   180.01120664
 H     20  17  14     2.086203088488   111.30604116    59.86838975
 H     20  17  14     2.086211917255   111.30559393   300.14232406
 C      7   6   5     2.867046635782   119.43668219   180.00300853
 H     23   7   6     2.090186786205   108.05897315   303.67141167
 H     23   7   6     2.090190316801   108.05642477    56.32459193
 C     23   7   6     2.892209228847   116.93984404   179.99430067
 H     26  23   7     2.090144618407   109.84494530   301.74373779
 H     26  23   7     2.090148784666   109.84747607    58.24961568
 C     26  23   7     2.897156247861   112.64915645   180.00128704
 H     29  26  23     2.090636850764   109.21938842   302.29627641
 H     29  26  23     2.090638579418   109.21945528    57.67163942
 C     29  26  23     2.891844772829   113.16015569   179.98402264
 H     32  29  26     2.086186172948   111.30133303    59.84898940
 H     32  29  26     2.086177454765   111.30172752   300.13620156
 C      2   1   3     2.314125683878   178.36080690     3.09821264
 H     20  17  14     2.082374353345   111.48883747   180.00626336
 H     32  29  26     2.082416939032   111.50329200   179.99173226
 C     35   2   6     2.694961932831   179.92185727   235.48856427
 C     38  35   2     2.669917278447   120.66022253   115.34492517
 C     39  38  35     2.634539762595   120.41739421   180.00187943
 C     40  39  38     2.645066195785   120.38935887     0.00000000
 C     41  40  39     2.645164896144   119.68520088     0.00000000
 C     42  41  40     2.634427882610   120.35857571     0.00000000
 H     41  40  39     2.065107837483   120.14085465   179.99754521
 H     42  41  40     2.064908961916   120.04494867   179.99343368
 H     39  38  35     2.062855241663   119.10052992     0.00000000
 H     43  42  41     2.063104518494   120.46280318   179.99080512
 H     40  39  38     2.065050977204   119.60050405   180.00605972

---------------------
BASIS SET INFORMATION
---------------------
There are 2 groups of distinct atoms

 Group   1 Type C   : 17s4p1d contracted to 3s2p1d pattern {881/31/1}
 Group   2 Type H   : 4s1p contracted to 2s1p pattern {31/1}

Atom   0C    basis set group =>   1
Atom   1C    basis set group =>   1
Atom   2C    basis set group =>   1
Atom   3C    basis set group =>   1
Atom   4C    basis set group =>   1
Atom   5C    basis set group =>   1
Atom   6C    basis set group =>   1
Atom   7C    basis set group =>   1
Atom   8H    basis set group =>   2
Atom   9H    basis set group =>   2
Atom  10C    basis set group =>   1
Atom  11H    basis set group =>   2
Atom  12H    basis set group =>   2
Atom  13C    basis set group =>   1
Atom  14H    basis set group =>   2
Atom  15H    basis set group =>   2
Atom  16C    basis set group =>   1
Atom  17H    basis set group =>   2
Atom  18H    basis set group =>   2
Atom  19C    basis set group =>   1
Atom  20H    basis set group =>   2
Atom  21H    basis set group =>   2
Atom  22C    basis set group =>   1
Atom  23H    basis set group =>   2
Atom  24H    basis set group =>   2
Atom  25C    basis set group =>   1
Atom  26H    basis set group =>   2
Atom  27H    basis set group =>   2
Atom  28C    basis set group =>   1
Atom  29H    basis set group =>   2
Atom  30H    basis set group =>   2
Atom  31C    basis set group =>   1
Atom  32H    basis set group =>   2
Atom  33H    basis set group =>   2
Atom  34C    basis set group =>   1
Atom  35H    basis set group =>   2
Atom  36H    basis set group =>   2
Atom  37C    basis set group =>   1
Atom  38C    basis set group =>   1
Atom  39C    basis set group =>   1
Atom  40C    basis set group =>   1
Atom  41C    basis set group =>   1
Atom  42C    basis set group =>   1
Atom  43H    basis set group =>   2
Atom  44H    basis set group =>   2
Atom  45H    basis set group =>   2
Atom  46H    basis set group =>   2
Atom  47H    basis set group =>   2
---------------------------------
AUXILIARY/J BASIS SET INFORMATION
---------------------------------
There are 2 groups of distinct atoms

 Group   1 Type C   : 12s5p4d2f1g contracted to 6s4p3d1f1g pattern {711111/2111/211/2/1}
 Group   2 Type H   : 5s2p1d contracted to 3s1p1d pattern {311/2/1}

Atom   0C    basis set group =>   1
Atom   1C    basis set group =>   1
Atom   2C    basis set group =>   1
Atom   3C    basis set group =>   1
Atom   4C    basis set group =>   1
Atom   5C    basis set group =>   1
Atom   6C    basis set group =>   1
Atom   7C    basis set group =>   1
Atom   8H    basis set group =>   2
Atom   9H    basis set group =>   2
Atom  10C    basis set group =>   1
Atom  11H    basis set group =>   2
Atom  12H    basis set group =>   2
Atom  13C    basis set group =>   1
Atom  14H    basis set group =>   2
Atom  15H    basis set group =>   2
Atom  16C    basis set group =>   1
Atom  17H    basis set group =>   2
Atom  18H    basis set group =>   2
Atom  19C    basis set group =>   1
Atom  20H    basis set group =>   2
Atom  21H    basis set group =>   2
Atom  22C    basis set group =>   1
Atom  23H    basis set group =>   2
Atom  24H    basis set group =>   2
Atom  25C    basis set group =>   1
Atom  26H    basis set group =>   2
Atom  27H    basis set group =>   2
Atom  28C    basis set group =>   1
Atom  29H    basis set group =>   2
Atom  30H    basis set group =>   2
Atom  31C    basis set group =>   1
Atom  32H    basis set group =>   2
Atom  33H    basis set group =>   2
Atom  34C    basis set group =>   1
Atom  35H    basis set group =>   2
Atom  36H    basis set group =>   2
Atom  37C    basis set group =>   1
Atom  38C    basis set group =>   1
Atom  39C    basis set group =>   1
Atom  40C    basis set group =>   1
Atom  41C    basis set group =>   1
Atom  42C    basis set group =>   1
Atom  43H    basis set group =>   2
Atom  44H    basis set group =>   2
Atom  45H    basis set group =>   2
Atom  46H    basis set group =>   2
Atom  47H    basis set group =>   2


           ************************************************************
           *        Program running with 16 parallel MPI-processes    *
           *              working on a common directory               *
           ************************************************************
------------------------------------------------------------------------------
                           ORCA GTO INTEGRAL CALCULATION
                           -- RI-GTO INTEGRALS CHOSEN --
------------------------------------------------------------------------------
------------------------------------------------------------------------------
                   ___                                                        
                  /   \      - P O W E R E D   B Y -                         
                 /     \                                                     
                 |  |  |   _    _      __       _____    __    __             
                 |  |  |  | |  | |    /  \     |  _  \  |  |  /  |          
                  \  \/   | |  | |   /    \    | | | |  |  | /  /          
                 / \  \   | |__| |  /  /\  \   | |_| |  |  |/  /          
                |  |  |   |  __  | /  /__\  \  |    /   |      \           
                |  |  |   | |  | | |   __   |  |    \   |  |\   \          
                \     /   | |  | | |  |  |  |  | |\  \  |  | \   \       
                 \___/    |_|  |_| |__|  |__|  |_| \__\ |__|  \__/        
                                                                              
                      - O R C A' S   B I G   F R I E N D -                    
                                      &                                       
                       - I N T E G R A L  F E E D E R -                       
                                                                              
 v1 FN, 2020, v2 2021                                                         
------------------------------------------------------------------------------


Reading SHARK input file opt.SHARKINP.tmp ... ok
----------------------
SHARK INTEGRAL PACKAGE
----------------------

Number of atoms                             ...     48
Number of basis functions                   ...    585
Number of shells                            ...    351
Maximum angular momentum                    ...      2
Integral batch strategy                     ... SHARK/LIBINT Hybrid
RI-J (if used) integral strategy            ... SPLIT-RIJ (Revised 2003 algorithm where possible)
Printlevel                                  ...      1
Contraction scheme used                     ... PARTIAL GENERAL contraction
Coulomb Range Separation                    ... NOT USED
Exchange Range Separation                   ... NOT USED
Finite Nucleus Model                        ... NOT USED
Auxiliary Coulomb fitting basis             ... AVAILABLE
   # of basis functions in Aux-J            ...   1402
   # of shells in Aux-J                     ...    470
   Maximum angular momentum in Aux-J        ...      4
Auxiliary J/K fitting basis                 ... NOT available
Auxiliary Correlation fitting basis         ... NOT available
Auxiliary 'external' fitting basis          ... NOT available
Integral threshold                          ...     2.500000e-11
Primitive cut-off                           ...     2.500000e-12
Primitive pair pre-selection threshold      ...     2.500000e-12

Calculating pre-screening integrals         ... done (  0.0 sec) Dimension = 351
Calculating pre-screening integrals (ORCA)  ... done (  0.1 sec) Dimension = 213
Organizing shell pair data                  ... done (  0.2 sec)
Shell pair information
Total number of shell pairs                 ...     61776
Shell pairs after pre-screening             ...     25190
Total number of primitive shell pairs       ...    100272
Primitive shell pairs kept                  ...     34336
          la=0 lb=0:  10968 shell pairs
          la=1 lb=0:   8886 shell pairs
          la=1 lb=1:   1584 shell pairs
          la=2 lb=0:   2657 shell pairs
          la=2 lb=1:    942 shell pairs
          la=2 lb=2:    153 shell pairs

Calculating one electron integrals          ... done (  0.0 sec)
Calculating RI/J V-Matrix + Cholesky decomp.... done (  0.2 sec)
Calculating Nuclear repulsion               ... done (  0.0 sec) ENN=   1629.770043396349 Eh

SHARK setup successfully completed in   0.9 seconds

Maximum memory used throughout the entire GTOINT-calculation: 36.3 MB


           ************************************************************
           *        Program running with 16 parallel MPI-processes    *
           *              working on a common directory               *
           ************************************************************
-------------------------------------------------------------------------------
                                 ORCA SCF
-------------------------------------------------------------------------------

------------
SCF SETTINGS
------------
Hamiltonian:
 Density Functional     Method          .... DFT(GTOs)
 Exchange Functional    Exchange        .... B88
   X-Alpha parameter    XAlpha          ....  0.666667
   Becke's b parameter  XBeta           ....  0.004200
 Correlation Functional Correlation     .... LYP
 LDA part of GGA corr.  LDAOpt          .... VWN-5
 Gradients option       PostSCFGGA      .... off
 Hybrid DFT is turned on
   Fraction HF Exchange ScalHFX         ....  0.200000
   Scaling of DF-GGA-X  ScalDFX         ....  0.720000
   Scaling of DF-GGA-C  ScalDFC         ....  0.810000
   Scaling of DF-LDA-C  ScalLDAC        ....  1.000000
   Perturbative correction              ....  0.000000
   Density functional embedding theory  .... OFF
   NL short-range parameter             ....  4.800000
 RI-approximation to the Coulomb term is turned on
   Number of AuxJ basis functions       .... 1402
   RIJ-COSX (HFX calculated with COS-X)).... on


General Settings:
 Integral files         IntName         .... opt
 Hartree-Fock type      HFTyp           .... UHF
 Total Charge           Charge          ....    0
 Multiplicity           Mult            ....    2
 Number of Electrons    NEL             ....  163
 Basis Dimension        Dim             ....  447
 Nuclear Repulsion      ENuc            ....   1629.7700433963 Eh

Convergence Acceleration:
 DIIS                   CNVDIIS         .... on
   Start iteration      DIISMaxIt       ....    12
   Startup error        DIISStart       ....  0.200000
   # of expansion vecs  DIISMaxEq       ....     5
   Bias factor          DIISBfac        ....   1.050
   Max. coefficient     DIISMaxC        ....  10.000
 Trust-Rad. Augm. Hess. CNVTRAH         .... auto
   Auto Start mean grad. ratio tolernc. ....  1.125000
   Auto Start start iteration           ....    20
   Auto Start num. interpolation iter.  ....    10
   Max. Number of Micro iterations      ....    16
   Max. Number of Macro iterations      .... Maxiter - #DIIS iter
   Number of Davidson start vectors     ....     2
   Converg. threshold I  (grad. norm)   ....   1.000e-05
   Converg. threshold II (energy diff.) ....   1.000e-08
   Grad. Scal. Fac. for Micro threshold ....   0.100
   Minimum threshold for Micro iter.    ....   0.010
   NR start threshold (gradient norm)   ....   0.001
   Initial trust radius                 ....   0.400
   Minimum AH scaling param. (alpha)    ....   1.000
   Maximum AH scaling param. (alpha)    .... 1000.000
   Orbital update algorithm             .... Taylor
   White noise on init. David. guess    .... on
   Maximum white noise                  ....   0.010
   Quad. conv. algorithm                .... NR
 SOSCF                  CNVSOSCF        .... off
 Level Shifting         CNVShift        .... on
   Level shift para.    LevelShift      ....    0.2500
   Turn off err/grad.   ShiftErr        ....    0.0010
 Zerner damping         CNVZerner       .... off
 Static damping         CNVDamp         .... on
   Fraction old density DampFac         ....    0.7000
   Max. Damping (<1)    DampMax         ....    0.9800
   Min. Damping (>=0)   DampMin         ....    0.0000
   Turn off err/grad.   DampErr         ....    0.1000
 Fernandez-Rico         CNVRico         .... off

SCF Procedure:
 Maximum # iterations   MaxIter         ....   125
 SCF integral mode      SCFMode         .... Direct
   Integral package                     .... SHARK and LIBINT hybrid scheme
 Reset frequency        DirectResetFreq ....    20
 Integral Threshold     Thresh          ....  2.500e-11 Eh
 Primitive CutOff       TCut            ....  2.500e-12 Eh

Convergence Tolerance:
 Convergence Check Mode ConvCheckMode   .... Total+1el-Energy
 Convergence forced     ConvForced      .... 0
 Energy Change          TolE            ....  1.000e-08 Eh
 1-El. energy change                    ....  1.000e-05 Eh
 DIIS Error             TolErr          ....  5.000e-07


Diagonalization of the overlap matrix:
Smallest eigenvalue                        ... 5.265e-05
Time for diagonalization                   ...    0.036 sec
Threshold for overlap eigenvalues          ... 1.000e-08
Number of eigenvalues below threshold      ... 0
Time for construction of square roots      ...    0.040 sec
Total time needed                          ...    0.078 sec

Time for model grid setup =    0.338 sec

------------------------------
INITIAL GUESS: MODEL POTENTIAL
------------------------------
Loading Hartree-Fock densities                     ... done
Calculating cut-offs                               ... done
Initializing the effective Hamiltonian             ... done
Setting up the integral package (SHARK)            ... done
Starting the Coulomb interaction                   ... done (   0.3 sec)
Reading the grid                                   ... done
Mapping shells                                     ... done
Starting the XC term evaluation                    ... done (   0.1 sec)
  promolecular density results
     # of electrons  =    162.999155408
     EX              =   -125.507423169
     EC              =     -5.359648351
     EX+EC           =   -130.867071520
Transforming the Hamiltonian                       ... done (   0.0 sec)
Diagonalizing the Hamiltonian                      ... done (   0.0 sec)
Back transforming the eigenvectors                 ... done (   0.0 sec)
Now organizing SCF variables                       ... done
                      ------------------
                      INITIAL GUESS DONE (   1.0 sec)
                      ------------------
-------------------
DFT GRID GENERATION
-------------------

General Integration Accuracy     IntAcc      ... 4.388
Radial Grid Type                 RadialGrid  ... OptM3 with GC (2021)
Angular Grid (max. ang.)         AngularGrid ... 4 (Lebedev-302)
Angular grid pruning method      GridPruning ... 4 (adaptive)
Weight generation scheme         WeightScheme... Becke
Basis function cutoff            BFCut       ... 1.0000e-11
Integration weight cutoff        WCut        ... 1.0000e-14
Angular grids for H and He will be reduced by one unit
Partially contracted basis set               ... off
Rotationally invariant grid construction     ... off

Total number of grid points                  ...   217077
Total number of batches                      ...     3417
Average number of points per batch           ...       63
Average number of grid points per atom       ...     4522
Time for grid setup =    1.373 sec

--------------------
COSX GRID GENERATION
--------------------

GRIDX 1
-------
General Integration Accuracy     IntAcc      ... 3.816
Radial Grid Type                 RadialGrid  ... OptM3 with GC (2021)
Angular Grid (max. ang.)         AngularGrid ... 1 (Lebedev-50)
Angular grid pruning method      GridPruning ... 4 (adaptive)
Weight generation scheme         WeightScheme... Becke
Basis function cutoff            BFCut       ... 1.0000e-11
Integration weight cutoff        WCut        ... 1.0000e-14
Angular grids for H and He will be reduced by one unit
Partially contracted basis set               ... on
Rotationally invariant grid construction     ... off

Total number of grid points                  ...    27661
Total number of batches                      ...      458
Average number of points per batch           ...       60
Average number of grid points per atom       ...      576
UseSFitting                                  ... on

GRIDX 2
-------
General Integration Accuracy     IntAcc      ... 4.020
Radial Grid Type                 RadialGrid  ... OptM3 with GC (2021)
Angular Grid (max. ang.)         AngularGrid ... 2 (Lebedev-110)
Angular grid pruning method      GridPruning ... 4 (adaptive)
Weight generation scheme         WeightScheme... Becke
Basis function cutoff            BFCut       ... 1.0000e-11
Integration weight cutoff        WCut        ... 1.0000e-14
Angular grids for H and He will be reduced by one unit
Partially contracted basis set               ... on
Rotationally invariant grid construction     ... off

Total number of grid points                  ...    58854
Total number of batches                      ...      944
Average number of points per batch           ...       62
Average number of grid points per atom       ...     1226
UseSFitting                                  ... on

GRIDX 3
-------
General Integration Accuracy     IntAcc      ... 4.338
Radial Grid Type                 RadialGrid  ... OptM3 with GC (2021)
Angular Grid (max. ang.)         AngularGrid ... 3 (Lebedev-194)
Angular grid pruning method      GridPruning ... 4 (adaptive)
Weight generation scheme         WeightScheme... Becke
Basis function cutoff            BFCut       ... 1.0000e-11
Integration weight cutoff        WCut        ... 1.0000e-14
Angular grids for H and He will be reduced by one unit
Partially contracted basis set               ... on
Rotationally invariant grid construction     ... off

Total number of grid points                  ...   128750
Total number of batches                      ...     2038
Average number of points per batch           ...       63
Average number of grid points per atom       ...     2682
UseSFitting                                  ... on

Time for X-Grid setup             =    2.291 sec

 re-compute Schwartz prescreening matrix in partically contracted basis (1) ...done (   0.122 sec)
--------------
SCF ITERATIONS
--------------
ITER       Energy         Delta-E        Max-DP      RMS-DP      [F,P]     Damp
               ***  Starting incremental Fock matrix formation  ***
  0   -890.1837769311   0.000000000000 0.07608746  0.00089581  0.0871273 0.7000
  1   -890.4420545555  -0.258277624431 0.06193548  0.00068164  0.0458716 0.7000
                               ***Turning on DIIS***
  2   -890.5498401033  -0.107785547766 0.11782657  0.00122877  0.0188500 0.0000
  3   -890.6994527497  -0.149612646448 0.03286414  0.00042053  0.0310194 0.0000
  4   -890.7458995267  -0.046446776963 0.01434487  0.00014084  0.0082880 0.0000
  5   -890.7492713205  -0.003371793855 0.00527614  0.00005014  0.0072060 0.0000
  6   -890.7499513203  -0.000679999750 0.00476752  0.00003159  0.0033307 0.0000
  7   -890.7502549962  -0.000303675949 0.00408844  0.00002287  0.0023483 0.0000
  8   -890.7504140246  -0.000159028375 0.00361903  0.00001896  0.0019594 0.0000
  9   -890.7505141530  -0.000100128419 0.00204669  0.00001436  0.0012302 0.0000
 10   -890.7505691307  -0.000054977702 0.00332103  0.00002197  0.0006135 0.0000
               *** Restarting incremental Fock matrix formation ***
                                   *** Resetting DIIS ***
 11   -890.7508638171  -0.000294686354 0.00104358  0.00001016  0.0002222 0.0000
 12   -890.7508643711  -0.000000553995 0.00027250  0.00000295  0.0003234 0.0000
 13   -890.7508661259  -0.000001754820 0.00015712  0.00000126  0.0001270 0.0000
 14   -890.7508663247  -0.000000198814 0.00018456  0.00000111  0.0001106 0.0000
 15   -890.7508664726  -0.000000147899 0.00005466  0.00000051  0.0000471 0.0000
 16   -890.7508665088  -0.000000036203 0.00004043  0.00000034  0.0000203 0.0000
 17   -890.7508665225  -0.000000013660 0.00001950  0.00000017  0.0000129 0.0000
 18   -890.7508665263  -0.000000003839 0.00002151  0.00000015  0.0000120 0.0000
 19   -890.7508665265  -0.000000000228 0.00001504  0.00000010  0.0000105 0.0000
 20   -890.7508665347  -0.000000008134 0.00002051  0.00000014  0.0000099 0.0000
 21   -890.7508665265   0.000000008223 0.00002496  0.00000016  0.0000090 0.0000
 22   -890.7508665117   0.000000014729 0.00001792  0.00000011  0.0000080 0.0000
 23   -890.7508665172  -0.000000005502 0.00004169  0.00000026  0.0000074 0.0000
 24   -890.7508665058   0.000000011394 0.00003111  0.00000020  0.0000056 0.0000
 25   -890.7508665068  -0.000000000936 0.00000710  0.00000007  0.0000044 0.0000
 26   -890.7508665119  -0.000000005126 0.00003889  0.00000024  0.0000039 0.0000
                 **** Energy Check signals convergence ****

               *****************************************************
               *                     SUCCESS                       *
               *           SCF CONVERGED AFTER  27 CYCLES          *
               *****************************************************

Old exchange energy                            =    -25.595093988 Eh
New exchange energy                            =    -25.595195589 Eh
Exchange energy change after final integration =     -0.000101601 Eh
Total energy after final integration           =   -890.750968114 Eh
Final COS-X integration done in                =     9.000 sec

----------------
TOTAL SCF ENERGY
----------------

Total Energy       :         -890.75096811 Eh          -24238.56611 eV

Components:
Nuclear Repulsion  :         1629.77004340 Eh           44348.29750 eV
Electronic Energy  :        -2520.52101151 Eh          -68586.86361 eV
One Electron Energy:        -4437.21806730 Eh         -120742.84206 eV
Two Electron Energy:         1916.69705579 Eh           52155.97845 eV
Max COSX asymmetry :            0.00000098 Eh               0.00003 eV

Virial components:
Potential Energy   :        -1775.28517657 Eh          -48307.96558 eV
Kinetic Energy     :          884.53420845 Eh           24069.39948 eV
Virial Ratio       :            2.00702829


DFT components:
N(Alpha)           :       82.000197167207 electrons
N(Beta)            :       81.000198234100 electrons
N(Total)           :      163.000395401306 electrons
E(X)               :     -101.501470299951 Eh       
E(C)               :       -6.328510557206 Eh       
E(XC)              :     -107.829980857156 Eh       
DFET-embed. en.    :        0.000000000000 Eh       

---------------
SCF CONVERGENCE
---------------

  Last Energy change         ...   -1.0634e-09  Tolerance :   1.0000e-08
  Last MAX-Density change    ...    0.0000e+00  Tolerance :   1.0000e-07
  Last RMS-Density change    ...    0.0000e+00  Tolerance :   5.0000e-09
  Last DIIS Error            ...    3.3031e-06  Tolerance :   5.0000e-07

             **** THE GBW FILE WAS UPDATED (opt.gbw) ****
             **** DENSITY opt.scfp WAS UPDATED ****
             **** ENERGY FILE WAS UPDATED (opt.en.tmp) ****
----------------------
UHF SPIN CONTAMINATION
----------------------

Warning: in a DFT calculation there is little theoretical justification to 
         calculate <S**2> as in Hartree-Fock theory. We will do it anyways
         but you should keep in mind that the values have only limited relevance

Expectation value of <S**2>     :     0.794306
Ideal value S*(S+1) for S=0.5   :     0.750000
Deviation                       :     0.044306

             **** THE GBW FILE WAS UPDATED (opt.gbw) ****
             **** DENSITY opt.scfp WAS UPDATED ****
----------------
ORBITAL ENERGIES
----------------
                 SPIN UP ORBITALS
  NO   OCC          E(Eh)            E(eV) 
   0   1.0000     -10.253024      -278.9990 
   1   1.0000     -10.218352      -278.0555 
   2   1.0000     -10.217132      -278.0223 
   3   1.0000     -10.213338      -277.9190 
   4   1.0000     -10.207149      -277.7506 
   5   1.0000     -10.204737      -277.6850 
   6   1.0000     -10.201823      -277.6057 
   7   1.0000     -10.199452      -277.5412 
   8   1.0000     -10.199312      -277.5374 
   9   1.0000     -10.198024      -277.5023 
  10   1.0000     -10.197100      -277.4772 
  11   1.0000     -10.196961      -277.4734 
  12   1.0000     -10.196801      -277.4690 
  13   1.0000     -10.195572      -277.4356 
  14   1.0000     -10.194082      -277.3951 
  15   1.0000     -10.191261      -277.3183 
  16   1.0000     -10.190922      -277.3091 
  17   1.0000     -10.187334      -277.2114 
  18   1.0000     -10.185286      -277.1557 
  19   1.0000     -10.185141      -277.1518 
  20   1.0000     -10.184596      -277.1370 
  21   1.0000     -10.178366      -276.9674 
  22   1.0000     -10.177649      -276.9479 
  23   1.0000      -0.880530       -23.9604 
  24   1.0000      -0.865674       -23.5562 
  25   1.0000      -0.824085       -22.4245 
  26   1.0000      -0.800976       -21.7957 
  27   1.0000      -0.799346       -21.7513 
  28   1.0000      -0.780433       -21.2366 
  29   1.0000      -0.770740       -20.9729 
  30   1.0000      -0.753181       -20.4951 
  31   1.0000      -0.739349       -20.1187 
  32   1.0000      -0.727396       -19.7935 
  33   1.0000      -0.705087       -19.1864 
  34   1.0000      -0.673620       -18.3301 
  35   1.0000      -0.657852       -17.9011 
  36   1.0000      -0.629764       -17.1368 
  37   1.0000      -0.618463       -16.8292 
  38   1.0000      -0.611041       -16.6273 
  39   1.0000      -0.599406       -16.3107 
  40   1.0000      -0.582957       -15.8631 
  41   1.0000      -0.568307       -15.4644 
  42   1.0000      -0.551176       -14.9983 
  43   1.0000      -0.535458       -14.5706 
  44   1.0000      -0.512699       -13.9512 
  45   1.0000      -0.482866       -13.1394 
  46   1.0000      -0.481418       -13.1000 
  47   1.0000      -0.476175       -12.9574 
  48   1.0000      -0.473347       -12.8804 
  49   1.0000      -0.459811       -12.5121 
  50   1.0000      -0.439550       -11.9608 
  51   1.0000      -0.437735       -11.9114 
  52   1.0000      -0.429830       -11.6963 
  53   1.0000      -0.428924       -11.6716 
  54   1.0000      -0.426965       -11.6183 
  55   1.0000      -0.426141       -11.5959 
  56   1.0000      -0.421069       -11.4579 
  57   1.0000      -0.414757       -11.2861 
  58   1.0000      -0.408957       -11.1283 
  59   1.0000      -0.388386       -10.5685 
  60   1.0000      -0.380898       -10.3648 
  61   1.0000      -0.376283       -10.2392 
  62   1.0000      -0.370801       -10.0900 
  63   1.0000      -0.367382        -9.9970 
  64   1.0000      -0.362362        -9.8604 
  65   1.0000      -0.362341        -9.8598 
  66   1.0000      -0.352428        -9.5900 
  67   1.0000      -0.346926        -9.4403 
  68   1.0000      -0.337782        -9.1915 
  69   1.0000      -0.333987        -9.0883 
  70   1.0000      -0.332819        -9.0565 
  71   1.0000      -0.329939        -8.9781 
  72   1.0000      -0.325967        -8.8700 
  73   1.0000      -0.325713        -8.8631 
  74   1.0000      -0.324119        -8.8197 
  75   1.0000      -0.292597        -7.9620 
  76   1.0000      -0.290474        -7.9042 
  77   1.0000      -0.271322        -7.3831 
  78   1.0000      -0.261565        -7.1176 
  79   1.0000      -0.256893        -6.9904 
  80   1.0000      -0.237114        -6.4522 
  81   1.0000      -0.177373        -4.8266 
  82   0.0000      -0.108069        -2.9407 
  83   0.0000      -0.042637        -1.1602 
  84   0.0000      -0.012921        -0.3516 
  85   0.0000      -0.009753        -0.2654 
  86   0.0000       0.012585         0.3425 
  87   0.0000       0.042274         1.1503 
  88   0.0000       0.051809         1.4098 
  89   0.0000       0.058634         1.5955 
  90   0.0000       0.061631         1.6771 
  91   0.0000       0.076697         2.0870 
  92   0.0000       0.080975         2.2034 
  93   0.0000       0.084825         2.3082 
  94   0.0000       0.087473         2.3803 
  95   0.0000       0.090595         2.4652 
  96   0.0000       0.091751         2.4967 
  97   0.0000       0.099221         2.6999 
  98   0.0000       0.101434         2.7602 
  99   0.0000       0.111246         3.0272 
 100   0.0000       0.123691         3.3658 
 101   0.0000       0.127176         3.4606 
 102   0.0000       0.135788         3.6950 
 103   0.0000       0.141205         3.8424 
 104   0.0000       0.141531         3.8512 
 105   0.0000       0.144393         3.9291 
 106   0.0000       0.150262         4.0888 
 107   0.0000       0.153448         4.1755 
 108   0.0000       0.156207         4.2506 
 109   0.0000       0.158467         4.3121 
 110   0.0000       0.158504         4.3131 
 111   0.0000       0.162041         4.4094 
 112   0.0000       0.170353         4.6355 
 113   0.0000       0.172694         4.6992 
 114   0.0000       0.173597         4.7238 
 115   0.0000       0.199253         5.4220 
 116   0.0000       0.203773         5.5450 
 117   0.0000       0.207799         5.6545 
 118   0.0000       0.209893         5.7115 
 119   0.0000       0.214747         5.8436 
 120   0.0000       0.220504         6.0002 
 121   0.0000       0.234375         6.3777 
 122   0.0000       0.238143         6.4802 
 123   0.0000       0.262439         7.1413 
 124   0.0000       0.267694         7.2843 
 125   0.0000       0.277286         7.5453 
 126   0.0000       0.280443         7.6312 
 127   0.0000       0.290323         7.9001 
 128   0.0000       0.298211         8.1147 
 129   0.0000       0.309965         8.4346 
 130   0.0000       0.318853         8.6764 
 131   0.0000       0.331136         9.0107 
 132   0.0000       0.346729         9.4350 
 133   0.0000       0.359767         9.7897 
 134   0.0000       0.366033         9.9603 
 135   0.0000       0.375658        10.2222 
 136   0.0000       0.404062        10.9951 
 137   0.0000       0.408511        11.1161 
 138   0.0000       0.409008        11.1297 
 139   0.0000       0.412098        11.2137 
 140   0.0000       0.414622        11.2824 
 141   0.0000       0.416493        11.3334 
 142   0.0000       0.416719        11.3395 
 143   0.0000       0.428213        11.6523 
 144   0.0000       0.443032        12.0555 
 145   0.0000       0.446996        12.1634 
 146   0.0000       0.447795        12.1851 
 147   0.0000       0.452413        12.3108 
 148   0.0000       0.459832        12.5127 
 149   0.0000       0.470570        12.8048 
 150   0.0000       0.471497        12.8301 
 151   0.0000       0.477443        12.9919 
 152   0.0000       0.477556        12.9950 
 153   0.0000       0.484203        13.1758 
 154   0.0000       0.489554        13.3214 
 155   0.0000       0.498168        13.5559 
 156   0.0000       0.501084        13.6352 
 157   0.0000       0.504086        13.7169 
 158   0.0000       0.505348        13.7512 
 159   0.0000       0.506735        13.7890 
 160   0.0000       0.509165        13.8551 
 161   0.0000       0.512179        13.9371 
 162   0.0000       0.512640        13.9497 
 163   0.0000       0.518657        14.1134 
 164   0.0000       0.528196        14.3729 
 165   0.0000       0.537635        14.6298 
 166   0.0000       0.540192        14.6994 
 167   0.0000       0.545352        14.8398 
 168   0.0000       0.559959        15.2372 
 169   0.0000       0.574609        15.6359 
 170   0.0000       0.582135        15.8407 
 171   0.0000       0.585219        15.9246 
 172   0.0000       0.586897        15.9703 
 173   0.0000       0.588952        16.0262 
 174   0.0000       0.589352        16.0371 
 175   0.0000       0.601155        16.3583 
 176   0.0000       0.607430        16.5290 
 177   0.0000       0.612582        16.6692 
 178   0.0000       0.625544        17.0219 
 179   0.0000       0.628987        17.1156 
 180   0.0000       0.629930        17.1413 
 181   0.0000       0.633338        17.2340 
 182   0.0000       0.635952        17.3051 
 183   0.0000       0.637391        17.3443 
 184   0.0000       0.638235        17.3672 
 185   0.0000       0.640417        17.4266 
 186   0.0000       0.649078        17.6623 
 187   0.0000       0.655374        17.8336 
 188   0.0000       0.655614        17.8402 
 189   0.0000       0.655735        17.8434 
 190   0.0000       0.658466        17.9178 
 191   0.0000       0.659455        17.9447 
 192   0.0000       0.662895        18.0383 
 193   0.0000       0.670026        18.2323 
 194   0.0000       0.671333        18.2679 
 195   0.0000       0.674438        18.3524 
 196   0.0000       0.676503        18.4086 
 197   0.0000       0.679333        18.4856 
 198   0.0000       0.682759        18.5788 
 199   0.0000       0.682833        18.5808 
 200   0.0000       0.692285        18.8380 
 201   0.0000       0.695587        18.9279 
 202   0.0000       0.700974        19.0745 
 203   0.0000       0.703795        19.1512 
 204   0.0000       0.710642        19.3376 
 205   0.0000       0.713540        19.4164 
 206   0.0000       0.713803        19.4236 
 207   0.0000       0.721808        19.6414 
 208   0.0000       0.731819        19.9138 
 209   0.0000       0.734017        19.9736 
 210   0.0000       0.740802        20.1582 
 211   0.0000       0.755144        20.5485 
 212   0.0000       0.757186        20.6041 
 213   0.0000       0.771885        21.0041 
 214   0.0000       0.788859        21.4660 
 215   0.0000       0.797412        21.6987 
 216   0.0000       0.811881        22.0924 
 217   0.0000       0.818707        22.2782 
 218   0.0000       0.829980        22.5849 
 219   0.0000       0.836408        22.7598 
 220   0.0000       0.838923        22.8283 
 221   0.0000       0.848907        23.0999 
 222   0.0000       0.862040        23.4573 
 223   0.0000       0.869999        23.6739 
 224   0.0000       0.875888        23.8341 
 225   0.0000       0.878375        23.9018 
 226   0.0000       0.898215        24.4417 
 227   0.0000       0.906242        24.6601 
 228   0.0000       0.909418        24.7465 
 229   0.0000       0.921755        25.0822 
 230   0.0000       0.932386        25.3715 
 231   0.0000       0.934202        25.4209 
 232   0.0000       0.948068        25.7982 
 233   0.0000       0.962401        26.1883 
 234   0.0000       0.972738        26.4695 
 235   0.0000       0.973563        26.4920 
 236   0.0000       0.986230        26.8367 
 237   0.0000       0.986943        26.8561 
 238   0.0000       0.995697        27.0943 
 239   0.0000       0.998549        27.1719 
 240   0.0000       1.022397        27.8208 
 241   0.0000       1.023721        27.8569 
 242   0.0000       1.029261        28.0076 
 243   0.0000       1.038467        28.2581 
 244   0.0000       1.045469        28.4487 
 245   0.0000       1.046161        28.4675 
 246   0.0000       1.049861        28.5682 
 247   0.0000       1.055745        28.7283 
 248   0.0000       1.070780        29.1374 
 249   0.0000       1.098540        29.8928 
 250   0.0000       1.112015        30.2595 
 251   0.0000       1.117792        30.4167 
 252   0.0000       1.137517        30.9534 
 253   0.0000       1.143840        31.1255 
 254   0.0000       1.161234        31.5988 
 255   0.0000       1.180711        32.1288 
 256   0.0000       1.182495        32.1773 
 257   0.0000       1.192015        32.4364 
 258   0.0000       1.195233        32.5239 
 259   0.0000       1.202554        32.7232 
 260   0.0000       1.207649        32.8618 
 261   0.0000       1.215331        33.0708 
 262   0.0000       1.216442        33.1011 
 263   0.0000       1.217245        33.1229 
 264   0.0000       1.220242        33.2045 
 265   0.0000       1.225638        33.3513 
 266   0.0000       1.228167        33.4201 
 267   0.0000       1.232766        33.5453 
 268   0.0000       1.265427        34.4340 
 269   0.0000       1.288570        35.0638 
 270   0.0000       1.295614        35.2554 
 271   0.0000       1.305976        35.5374 
 272   0.0000       1.316628        35.8273 
 273   0.0000       1.317423        35.8489 
 274   0.0000       1.325784        36.0764 
 275   0.0000       1.330782        36.2124 
 276   0.0000       1.352026        36.7905 
 277   0.0000       1.364252        37.1232 
 278   0.0000       1.383690        37.6521 
 279   0.0000       1.389106        37.7995 
 280   0.0000       1.406135        38.2629 
 281   0.0000       1.406198        38.2646 
 282   0.0000       1.424066        38.7508 
 283   0.0000       1.424846        38.7720 
[...]
  1 C s       :    -0.005049  s :    -0.005049
      pz      :    -0.056708  p :    -0.075063
      px      :    -0.003683
      py      :    -0.014672
      dz2     :     0.000294  d :     0.027411
      dxz     :     0.025189
      dyz     :     0.000006
      dx2y2   :     0.000876
      dxy     :     0.001045
  2 C s       :    -0.005928  s :    -0.005928
      pz      :    -0.090867  p :    -0.104409
      px      :    -0.007700
      py      :    -0.005841
      dz2     :     0.000501  d :     0.037886
      dxz     :     0.032198
      dyz     :     0.003164
      dx2y2   :     0.001467
      dxy     :     0.000556
  3 C s       :     0.006485  s :     0.006485
      pz      :     0.174402  p :     0.183140
      px      :     0.004193
      py      :     0.004545
      dz2     :    -0.000769  d :    -0.008215
      dxz     :    -0.004055
      dyz     :    -0.001870
      dx2y2   :    -0.000690
      dxy     :    -0.000832
  4 C s       :    -0.004713  s :    -0.004713
      pz      :    -0.084195  p :    -0.093948
      px      :    -0.005130
      py      :    -0.004624
      dz2     :     0.000392  d :     0.020741
      dxz     :     0.013634
      dyz     :     0.005135
      dx2y2   :     0.000798
      dxy     :     0.000782
  5 C s       :     0.007943  s :     0.007943
      pz      :     0.217476  p :     0.229351
      px      :     0.005638
      py      :     0.006237
      dz2     :    -0.001048  d :    -0.010572
      dxz     :    -0.003701
      dyz     :    -0.003524
      dx2y2   :    -0.000798
      dxy     :    -0.001501
  6 C s       :    -0.004635  s :    -0.004635
      pz      :    -0.081024  p :    -0.090947
      px      :    -0.005253
      py      :    -0.004671
      dz2     :     0.000395  d :     0.019524
      dxz     :     0.012932
      dyz     :     0.004622
      dx2y2   :     0.000807
      dxy     :     0.000768
  7 C s       :     0.006311  s :     0.006311
      pz      :     0.178395  p :     0.186466
      px      :     0.003689
      py      :     0.004382
      dz2     :    -0.000780  d :    -0.008697
      dxz     :    -0.004512
      dyz     :    -0.001808
      dx2y2   :    -0.000717
      dxy     :    -0.000880
  8 H s       :     0.002358  s :     0.002358
      pz      :    -0.002458  p :    -0.003038
      px      :    -0.000239
      py      :    -0.000341
  9 H s       :    -0.005551  s :    -0.005551
      pz      :     0.005049  p :     0.005889
      px      :     0.000276
      py      :     0.000564
 10 C s       :    -0.001236  s :    -0.001236
      pz      :    -0.001996  p :    -0.007502
      px      :    -0.002459
      py      :    -0.003048
      dz2     :     0.000125  d :     0.008258
      dxz     :     0.004926
      dyz     :     0.002651
      dx2y2   :     0.000218
      dxy     :     0.000337
 11 H s       :     0.007960  s :     0.007960
      pz      :    -0.000040  p :    -0.000160
      px      :    -0.000053
      py      :    -0.000067
 12 H s       :     0.007949  s :     0.007949
      pz      :    -0.000039  p :    -0.000159
      px      :    -0.000053
      py      :    -0.000067
 13 C s       :     0.000046  s :     0.000046
      pz      :     0.000072  p :     0.000332
      px      :     0.000124
      py      :     0.000136
      dz2     :    -0.000017  d :    -0.000253
      dxz     :    -0.000000
      dyz     :    -0.000062
      dx2y2   :    -0.000111
      dxy     :    -0.000063
 14 H s       :    -0.000109  s :    -0.000109
      pz      :     0.000006  p :     0.000018
      px      :     0.000004
      py      :     0.000008
 15 H s       :    -0.000109  s :    -0.000109
      pz      :     0.000006  p :     0.000018
      px      :     0.000004
      py      :     0.000008
 16 C s       :    -0.000055  s :    -0.000055
      pz      :     0.000145  p :     0.000011
      px      :    -0.000032
      py      :    -0.000102
      dz2     :    -0.000001  d :     0.000014
      dxz     :     0.000006
      dyz     :     0.000013
      dx2y2   :     0.000002
      dxy     :    -0.000006
 17 H s       :     0.000055  s :     0.000055
      pz      :     0.000000  p :     0.000014
      px      :     0.000002
      py      :     0.000012
 18 H s       :     0.000055  s :     0.000055
      pz      :     0.000000  p :     0.000014
      px      :     0.000002
      py      :     0.000012
 19 C s       :    -0.000008  s :    -0.000008
      pz      :    -0.000003  p :    -0.000046
      px      :    -0.000012
      py      :    -0.000031
      dz2     :    -0.000000  d :     0.000012
      dxz     :     0.000010
      dyz     :     0.000005
      dx2y2   :    -0.000004
      dxy     :     0.000001
 20 H s       :     0.000015  s :     0.000015
      pz      :    -0.000000  p :    -0.000002
      px      :    -0.000000
      py      :    -0.000001
 21 H s       :     0.000015  s :     0.000015
      pz      :    -0.000000  p :    -0.000002
      px      :    -0.000000
      py      :    -0.000001
 22 C s       :     0.000512  s :     0.000512
      pz      :     0.000609  p :     0.002791
      px      :     0.000951
      py      :     0.001231
      dz2     :    -0.000086  d :    -0.004043
      dxz     :    -0.002124
      dyz     :    -0.001384
      dx2y2   :    -0.000240
      dxy     :    -0.000208
 23 H s       :    -0.003597  s :    -0.003597
      pz      :     0.000033  p :     0.000106
      px      :     0.000068
      py      :     0.000005
 24 H s       :    -0.003593  s :    -0.003593
      pz      :     0.000033  p :     0.000106
      px      :     0.000068
      py      :     0.000005
 25 C s       :    -0.000056  s :    -0.000056
      pz      :     0.000410  p :     0.000123
      px      :    -0.000122
      py      :    -0.000164
      dz2     :     0.000006  d :     0.000063
      dxz     :    -0.000044
      dyz     :     0.000038
      dx2y2   :     0.000045
      dxy     :     0.000018
 26 H s       :     0.000122  s :     0.000122
      pz      :     0.000000  p :     0.000033
      px      :     0.000021
      py      :     0.000012
 27 H s       :     0.000122  s :     0.000122
      pz      :     0.000000  p :     0.000033
      px      :     0.000021
      py      :     0.000012
 28 C s       :     0.000014  s :     0.000014
      pz      :    -0.000068  p :    -0.000060
      px      :    -0.000008
      py      :     0.000015
      dz2     :     0.000001  d :     0.000030
      dxz     :     0.000025
      dyz     :     0.000005
      dx2y2   :    -0.000005
      dxy     :     0.000004
 29 H s       :     0.000011  s :     0.000011
      pz      :    -0.000001  p :    -0.000009
      px      :    -0.000002
      py      :    -0.000006
 30 H s       :     0.000011  s :     0.000011
      pz      :    -0.000001  p :    -0.000009
      px      :    -0.000002
      py      :    -0.000006
 31 C s       :     0.000002  s :     0.000002
      pz      :     0.000002  p :     0.000019
      px      :     0.000005
      py      :     0.000012
      dz2     :    -0.000000  d :    -0.000009
      dxz     :    -0.000004
      dyz     :    -0.000003
      dx2y2   :    -0.000000
      dxy     :    -0.000002
 32 H s       :    -0.000005  s :    -0.000005
      pz      :     0.000000  p :     0.000001
      px      :     0.000000
      py      :     0.000000
 33 H s       :    -0.000005  s :    -0.000005
      pz      :     0.000000  p :     0.000001
      px      :     0.000000
      py      :     0.000000
 34 C s       :     0.004753  s :     0.004753
      pz      :     0.130616  p :     0.147805
      px      :     0.002253
      py      :     0.014936
      dz2     :    -0.000540  d :    -0.006412
      dxz     :    -0.004479
      dyz     :    -0.000003
      dx2y2   :    -0.000561
      dxy     :    -0.000828
 35 H s       :    -0.000003  s :    -0.000003
      pz      :    -0.000000  p :    -0.000003
      px      :    -0.000001
      py      :    -0.000002
 36 H s       :    -0.000003  s :    -0.000003
      pz      :     0.000000  p :     0.000001
      px      :     0.000000
      py      :     0.000001
 37 C s       :    -0.001855  s :    -0.001855
      pz      :    -0.024260  p :    -0.028822
      px      :    -0.003192
      py      :    -0.001370
      dz2     :     0.000162  d :     0.010222
      dxz     :     0.007800
      dyz     :     0.000845
      dx2y2   :     0.000500
      dxy     :     0.000915
 38 C s       :     0.001547  s :     0.001547
      pz      :     0.039325  p :     0.041639
      px      :     0.001146
      py      :     0.001169
      dz2     :    -0.000163  d :    -0.002083
      dxz     :    -0.000918
      dyz     :    -0.000558
      dx2y2   :    -0.000221
      dxy     :    -0.000222
 39 C s       :    -0.000921  s :    -0.000921
      pz      :    -0.017714  p :    -0.019591
      px      :    -0.001085
      py      :    -0.000793
      dz2     :     0.000088  d :     0.004044
      dxz     :     0.002806
      dyz     :     0.000816
      dx2y2   :     0.000162
      dxy     :     0.000172
 40 C s       :     0.001511  s :     0.001511
      pz      :     0.043363  p :     0.045487
      px      :     0.000983
      py      :     0.001141
      dz2     :    -0.000189  d :    -0.001570
      dxz     :    -0.000188
      dyz     :    -0.000903
      dx2y2   :    -0.000146
      dxy     :    -0.000144
 41 C s       :    -0.000921  s :    -0.000921
      pz      :    -0.017700  p :    -0.019578
      px      :    -0.001046
      py      :    -0.000831
      dz2     :     0.000088  d :     0.004043
      dxz     :     0.002587
      dyz     :     0.001034
      dx2y2   :     0.000166
      dxy     :     0.000167
 42 C s       :     0.001545  s :     0.001545
      pz      :     0.039309  p :     0.041621
      px      :     0.001173
      py      :     0.001138
      dz2     :    -0.000163  d :    -0.002083
      dxz     :    -0.001000
      dyz     :    -0.000476
      dx2y2   :    -0.000242
      dxy     :    -0.000201
 43 H s       :    -0.001371  s :    -0.001371
      pz      :     0.001324  p :     0.001537
      px      :     0.000189
      py      :     0.000024
 44 H s       :     0.000560  s :     0.000560
      pz      :    -0.000510  p :    -0.000626
      px      :    -0.000049
      py      :    -0.000067
 45 H s       :    -0.001237  s :    -0.001237
      pz      :     0.001063  p :     0.001268
      px      :     0.000066
      py      :     0.000139
 46 H s       :    -0.001233  s :    -0.001233
      pz      :     0.001064  p :     0.001269
      px      :     0.000055
      py      :     0.000150
 47 H s       :     0.000560  s :     0.000560
      pz      :    -0.000510  p :    -0.000626
      px      :    -0.000046
      py      :    -0.000070


                      *****************************
                      * MAYER POPULATION ANALYSIS *
                      *****************************

  NA   - Mulliken gross atomic population
  ZA   - Total nuclear charge
  QA   - Mulliken gross atomic charge
  VA   - Mayer's total valence
  BVA  - Mayer's bonded valence
  FA   - Mayer's free valence

  ATOM       NA         ZA         QA         VA         BVA        FA
  0 C      6.1179     6.0000    -0.1179     2.2645     2.0360     0.2285
  1 C      5.7422     6.0000     0.2578     2.5719     2.5653     0.0066
  2 C      5.9537     6.0000     0.0463     4.1190     4.1046     0.0144
  3 C      6.0498     6.0000    -0.0498     4.0915     4.0493     0.0422
  4 C      5.9918     6.0000     0.0082     3.8861     3.8745     0.0116
  5 C      6.1813     6.0000    -0.1813     3.8272     3.7601     0.0672
  6 C      6.0629     6.0000    -0.0629     4.1689     4.1580     0.0109
  7 C      5.9990     6.0000     0.0010     3.8820     3.8394     0.0427
  8 H      1.0493     1.0000    -0.0493     1.0039     1.0039     0.0000
  9 H      1.0418     1.0000    -0.0418     1.0026     1.0024     0.0001
 10 C      5.9786     6.0000     0.0214     4.0232     4.0229     0.0002
 11 H      0.9641     1.0000     0.0359     0.9688     0.9687     0.0001
 12 H      0.9641     1.0000     0.0359     0.9689     0.9687     0.0001
 13 C      6.0372     6.0000    -0.0372     4.1193     4.1193     0.0000
 14 H      0.9820     1.0000     0.0180     0.9635     0.9635     0.0000
 15 H      0.9821     1.0000     0.0179     0.9635     0.9635     0.0000
 16 C      6.0263     6.0000    -0.0263     4.1182     4.1182     0.0000
 17 H      0.9918     1.0000     0.0082     0.9673     0.9673     0.0000
 18 H      0.9918     1.0000     0.0082     0.9673     0.9673     0.0000
 19 C      5.9976     6.0000     0.0024     4.0182     4.0182     0.0000
 20 H      0.9826     1.0000     0.0174     0.9773     0.9773     0.0000
 21 H      0.9826     1.0000     0.0174     0.9773     0.9773     0.0000
 22 C      5.9606     6.0000     0.0394     4.0317     4.0317     0.0001
 23 H      0.9665     1.0000     0.0335     0.9695     0.9695     0.0000
 24 H      0.9665     1.0000     0.0335     0.9695     0.9695     0.0000
 25 C      6.0358     6.0000    -0.0358     4.1131     4.1131     0.0000
 26 H      0.9828     1.0000     0.0172     0.9633     0.9633     0.0000
 27 H      0.9828     1.0000     0.0172     0.9633     0.9633     0.0000
 28 C      6.0260     6.0000    -0.0260     4.1198     4.1198     0.0000
 29 H      0.9941     1.0000     0.0059     0.9673     0.9673     0.0000
 30 H      0.9941     1.0000     0.0059     0.9673     0.9673     0.0000
 31 C      5.9961     6.0000     0.0039     4.0169     4.0169     0.0000
 32 H      0.9821     1.0000     0.0179     0.9774     0.9774     0.0000
 33 H      0.9821     1.0000     0.0179     0.9774     0.9774     0.0000
 34 C      5.8471     6.0000     0.1529     2.6580     2.6342     0.0239
 35 H      0.9855     1.0000     0.0145     0.9738     0.9738     0.0000
 36 H      0.9868     1.0000     0.0132     0.9736     0.9736     0.0000
 37 C      6.2534     6.0000    -0.2534     3.9277     3.9265     0.0011
 38 C      5.9692     6.0000     0.0308     3.9940     3.9919     0.0021
 39 C      5.9587     6.0000     0.0413     3.9995     3.9990     0.0005
 40 C      5.9668     6.0000     0.0332     3.9984     3.9959     0.0025
 41 C      5.9590     6.0000     0.0410     3.9992     3.9987     0.0005
 42 C      5.9719     6.0000     0.0281     3.9931     3.9910     0.0021
 43 H      1.0268     1.0000    -0.0268     0.9689     0.9689     0.0000
 44 H      1.0270     1.0000    -0.0270     0.9686     0.9686     0.0000
 45 H      1.0407     1.0000    -0.0407     0.9834     0.9834     0.0000
 46 H      1.0399     1.0000    -0.0399     0.9831     0.9831     0.0000
 47 H      1.0269     1.0000    -0.0269     0.9685     0.9685     0.0000

  Mayer bond orders larger than 0.100000
B(  0-C ,  2-C ) :   1.6818 B(  1-C ,  5-C ) :   0.9447 B(  1-C , 34-C ) :   1.7163 
B(  1-C , 37-C ) :  -0.1738 B(  2-C ,  3-C ) :   1.1875 B(  2-C ,  7-C ) :   1.1303 
B(  3-C ,  4-C ) :   1.5209 B(  3-C , 10-C ) :   1.0767 B(  4-C ,  5-C ) :   1.3102 
B(  4-C ,  8-H ) :   0.9222 B(  5-C ,  6-C ) :   1.3139 B(  6-C ,  7-C ) :   1.5453 
B(  6-C , 22-C ) :   1.0907 B(  7-C ,  9-H ) :   0.9161 B( 10-C , 11-H ) :   0.9020 
B( 10-C , 12-H ) :   0.9019 B( 10-C , 13-C ) :   1.1042 B( 13-C , 14-H ) :   0.9307 
B( 13-C , 15-H ) :   0.9307 B( 13-C , 16-C ) :   1.0748 B( 16-C , 17-H ) :   0.9415 
B( 16-C , 18-H ) :   0.9415 B( 16-C , 19-C ) :   1.1060 B( 19-C , 20-H ) :   0.9663 
B( 19-C , 21-H ) :   0.9663 B( 19-C , 35-H ) :   0.9619 B( 22-C , 23-H ) :   0.8979 
B( 22-C , 24-H ) :   0.8979 B( 22-C , 25-C ) :   1.1036 B( 25-C , 26-H ) :   0.9290 
B( 25-C , 27-H ) :   0.9289 B( 25-C , 28-C ) :   1.0753 B( 28-C , 29-H ) :   0.9412 
B( 28-C , 30-H ) :   0.9412 B( 28-C , 31-C ) :   1.1062 B( 31-C , 32-H ) :   0.9662 
B( 31-C , 33-H ) :   0.9662 B( 31-C , 36-H ) :   0.9616 B( 34-C , 37-C ) :   0.9434 
B( 37-C , 38-C ) :   1.4324 B( 37-C , 42-C ) :   1.4299 B( 38-C , 39-C ) :   1.4740 
B( 38-C , 45-H ) :   0.9404 B( 39-C , 40-C ) :   1.4410 B( 39-C , 47-H ) :   0.9380 
B( 40-C , 41-C ) :   1.4407 B( 40-C , 43-H ) :   0.9434 B( 41-C , 42-C ) :   1.4739 
B( 41-C , 44-H ) :   0.9380 B( 42-C , 46-H ) :   0.9408 

-------
TIMINGS
-------

Total SCF time: 0 days 0 hours 1 min 10 sec 

Total time                  ....      70.646 sec
Sum of individual times     ....      67.173 sec  ( 95.1%)

Fock matrix formation       ....      60.586 sec  ( 85.8%)
  Split-RI-J                ....       4.675 sec  (  7.7% of F)
  Chain of spheres X        ....      38.390 sec  ( 63.4% of F)
  XC integration            ....      13.198 sec  ( 21.8% of F)
    Basis function eval.    ....       1.195 sec  (  9.1% of XC)
    Density eval.           ....       1.290 sec  (  9.8% of XC)
    XC-Functional eval.     ....       0.295 sec  (  2.2% of XC)
    XC-Potential eval.      ....       0.621 sec  (  4.7% of XC)
Diagonalization             ....       1.193 sec  (  1.7%)
Density matrix formation    ....       0.150 sec  (  0.2%)
Population analysis         ....       0.363 sec  (  0.5%)
Initial guess               ....       0.163 sec  (  0.2%)
Orbital Transformation      ....       0.000 sec  (  0.0%)
Orbital Orthonormalization  ....       0.127 sec  (  0.2%)
DIIS solution               ....       1.022 sec  (  1.4%)
Grid generation             ....       3.696 sec  (  5.2%)

Maximum memory used throughout the entire SCF-calculation: 116.9 MB

-------------------------   --------------------
FINAL SINGLE POINT ENERGY      -890.752880805287
-------------------------   --------------------

                                *** OPTIMIZATION RUN DONE ***

                            ***************************************
                            *     ORCA property calculations      *
                            ***************************************

                                    ---------------------
                                    Active property flags
                                    ---------------------
   (+) Dipole Moment


------------------------------------------------------------------------------
                       ORCA ELECTRIC PROPERTIES CALCULATION
------------------------------------------------------------------------------

Dipole Moment Calculation                       ... on
Quadrupole Moment Calculation                   ... off
Polarizability Calculation                      ... off
GBWName                                         ... opt.gbw
Electron density                                ... opt.scfp
The origin for moment calculation is the CENTER OF MASS  = ( 3.638353, -0.055268 -0.019224)

-------------
DIPOLE MOMENT
-------------
                                X             Y             Z
Electronic contribution:     11.94010      -0.25464       0.00030
Nuclear contribution   :    -10.82369       0.14307      -0.00029
                        -----------------------------------------
Total Dipole Moment    :      1.11641      -0.11157       0.00001
                        -----------------------------------------
Magnitude (a.u.)       :      1.12197
Magnitude (Debye)      :      2.85182



--------------------
Rotational spectrum 
--------------------
 
Rotational constants in cm-1:     0.006740     0.004685     0.002775 
Rotational constants in MHz :   202.049713   140.466397    83.204171 

 Dipole components along the rotational axes: 
x,y,z [a.u.] :     0.896548     0.674553     0.000027 
x,y,z [Debye]:     2.278843     1.714576     0.000068 

 

Timings for individual modules:

Sum of individual times         ...     1029.358 sec (=  17.156 min)
GTO integral calculation        ...       26.723 sec (=   0.445 min)   2.6 %
SCF iterations                  ...      834.694 sec (=  13.912 min)  81.1 %
SCF Gradient evaluation         ...      165.245 sec (=   2.754 min)  16.1 %
Geometry relaxation             ...        2.695 sec (=   0.045 min)   0.3 %
                             ****ORCA TERMINATED NORMALLY****
TOTAL RUN TIME: 0 days 0 hours 17 minutes 39 seconds 798 msec
